<event>
12    2  0.3518828E-008  0.1620771E+04  0.7818608E-02  0.8807888E-01
          1   -1    0    0  501    0  0.00000000000E+00  0.00000000000E+00  0.16753459986E+04  0.16753459986E+04  0.00000000000E+00 0. -1.
         -1   -1    0    0    0  501 -0.00000000000E+00 -0.00000000000E+00 -0.39199346740E+03  0.39199346740E+03  0.00000000000E+00 0.  1.
         23    2    1    2    0    0 -0.16600986642E+03  0.48677909028E+03  0.72192332206E+03  0.89136619718E+03  0.94059853658E+02 0.  0.
        254    2    1    2    0    0  0.16600986642E+03 -0.48677909028E+03  0.56142920919E+03  0.11759732689E+04  0.89621270559E+03 0.  0.
         23    2    4    4    0    0 -0.17449032389E+03 -0.50558633269E+03  0.37581239957E+02  0.54430834147E+03  0.93780638002E+02 0.  0.
         23    2    4    4    0    0  0.34050019031E+03  0.18807242417E+02  0.52384796923E+03  0.63166492738E+03  0.91048303969E+02 0.  0.
          4    1    3    3  502    0 -0.17775671808E+03  0.44501333995E+03  0.66932432713E+03  0.82318246971E+03  0.00000000000E+00 0. -1.
         -4    1    3    3    0  502  0.11746851658E+02  0.41765750329E+02  0.52598994925E+02  0.68183727469E+02  0.00000000000E+00 0.  1.
         11    1    5    5    0    0 -0.21669415511E+02 -0.15786324492E+03 -0.18321423440E+02  0.16039339831E+03  0.00000000000E+00 0. -1.
        -11    1    5    5    0    0 -0.15282090838E+03 -0.34772308777E+03  0.55902663397E+02  0.38391494316E+03  0.00000000000E+00 0.  1.
          4    1    6    6  503    0  0.38685836033E+02  0.27863587154E+02  0.10507601246E+03  0.11538605546E+03  0.00000000000E+00 0. -1.
         -4    1    6    6    0  503  0.30181435427E+03 -0.90563447370E+01  0.41877195677E+03  0.51627887193E+03  0.00000000000E+00 0.  1.
<mgrwt>
<rscale>  0 0.16207710E+04</rscale>
<asrwt>0</asrwt>
<pdfrwt beam="1">  1        1 0.25774553E+00 0.16207710E+04</pdfrwt>
<pdfrwt beam="2">  1       -1 0.60306688E-01 0.16207710E+04</pdfrwt>
<totfact> 0.13232340E+01</totfact>
</mgrwt>
</event>
<event>
12    2  0.3518828E-008  0.1734111E+04  0.7818608E-02  0.8742145E-01
          1   -1    0    0  501    0  0.00000000000E+00  0.00000000000E+00  0.53137861035E+03  0.53137861035E+03  0.00000000000E+00 0. -1.
         -1   -1    0    0    0  501 -0.00000000000E+00 -0.00000000000E+00 -0.14147830641E+04  0.14147830641E+04  0.00000000000E+00 0.  1.
         23    2    1    2    0    0  0.82152563228E+02  0.39244233461E+03 -0.87338536935E+03  0.96509525914E+03  0.88582312990E+02 0.  0.
        254    2    1    2    0    0 -0.82152563228E+02 -0.39244233461E+03 -0.10019084430E+02  0.98106641534E+03  0.89533842742E+03 0.  0.
         23    2    4    4    0    0 -0.14254733319E+03  0.23771186830E+03  0.13992480800E+03  0.32387337693E+03  0.92132176038E+02 0.  0.
         23    2    4    4    0    0  0.60394769962E+02 -0.63015420291E+03 -0.14994389243E+03  0.65719303841E+03  0.93154018532E+02 0.  0.
          4    1    3    3  502    0  0.41759109040E+02  0.33983050587E+03 -0.69458399423E+03  0.77438719059E+03  0.00000000000E+00 0.  1.
         -4    1    3    3    0  502  0.40393454188E+02  0.52611828742E+02 -0.17880137512E+03  0.19070806855E+03  0.00000000000E+00 0. -1.
         11    1    5    5    0    0 -0.12243356510E+01  0.73815169876E+02  0.20145490301E+02  0.76524630552E+02  0.00000000000E+00 0. -1.
        -11    1    5    5    0    0 -0.14132299754E+03  0.16389669842E+03  0.11977931770E+03  0.24734874638E+03  0.00000000000E+00 0.  1.
          3    1    6    6  503    0 -0.18260429091E+02 -0.66141532191E+02 -0.31659355196E+02  0.75567587778E+02  0.00000000000E+00 0. -1.
         -3    1    6    6    0  503  0.78655199053E+02 -0.56401267072E+03 -0.11828453723E+03  0.58162545063E+03  0.00000000000E+00 0.  1.
<mgrwt>
<rscale>  0 0.17341113E+04</rscale>
<asrwt>0</asrwt>
<pdfrwt beam="1">  1        1 0.81750557E-01 0.17341113E+04</pdfrwt>
<pdfrwt beam="2">  1       -1 0.21765893E+00 0.17341113E+04</pdfrwt>
<totfact> 0.44082784E+00</totfact>
</mgrwt>
</event>
<event>
12    2  0.3518828E-008  0.1250073E+04  0.7818608E-02  0.9070123E-01
          2   -1    0    0  501    0  0.00000000000E+00  0.00000000000E+00  0.26698089463E+04  0.26698089463E+04  0.00000000000E+00 0. -1.
         -2   -1    0    0    0  501 -0.00000000000E+00 -0.00000000000E+00 -0.14632902201E+03  0.14632902201E+03  0.00000000000E+00 0.  1.
         23    2    1    2    0    0 -0.89194296659E+02 -0.17085352746E+03  0.12741752430E+03  0.24916576081E+03  0.93283441516E+02 0.  0.
        254    2    1    2    0    0  0.89194296659E+02  0.17085352746E+03  0.23960624000E+04  0.25669722075E+04  0.90060243116E+03 0.  0.
         23    2    4    4    0    0  0.42446669855E+03 -0.12195938955E+03  0.14271923330E+04  0.14967884959E+04  0.91933536621E+02 0.  0.
         23    2    4    4    0    0 -0.33527240189E+03  0.29281291700E+03  0.96887006701E+03  0.10701837116E+04  0.91853046069E+02 0.  0.
          1    1    3    3  502    0 -0.19536943783E+02 -0.46544588679E+02  0.87782074354E+02  0.10126096724E+03  0.00000000000E+00 0. -1.
         -1    1    3    3    0  502 -0.69657352876E+02 -0.12430893878E+03  0.39635449941E+02  0.14790479357E+03  0.00000000000E+00 0.  1.
         11    1    5    5    0    0  0.13485682372E+03 -0.82376236712E+02  0.54352337736E+03  0.56602991884E+03  0.00000000000E+00 0.  1.
        -11    1    5    5    0    0  0.28960987482E+03 -0.39583152834E+02  0.88366895562E+03  0.93075857702E+03  0.00000000000E+00 0. -1.
          3    1    6    6  503    0 -0.29043585274E+03  0.28860899048E+03  0.86893864326E+03  0.96057404696E+03  0.00000000000E+00 0. -1.
         -3    1    6    6    0  503 -0.44836549149E+02  0.42039265230E+01  0.99931423755E+02  0.10960966468E+03  0.00000000000E+00 0.  1.
<mgrwt>
<rscale>  0 0.12500728E+04</rscale>
<asrwt>0</asrwt>
<pdfrwt beam="1">  1        2 0.41073980E+00 0.12500728E+04</pdfrwt>
<pdfrwt beam="2">  1       -2 0.22512159E-01 0.12500728E+04</pdfrwt>
<totfact> 0.47530566E+01</totfact>
</mgrwt>
</event>
<event>
12    2  0.3518828E-008  0.1521183E+04  0.7818608E-02  0.8870488E-01
          2   -1    0    0  501    0  0.00000000000E+00  0.00000000000E+00  0.26966845834E+03  0.26966845834E+03  0.00000000000E+00 0. -1.
         -2   -1    0    0    0  501 -0.00000000000E+00 -0.00000000000E+00 -0.21452240273E+04  0.21452240273E+04  0.00000000000E+00 0.  1.
         23    2    1    2    0    0 -0.15291404052E+03 -0.75710040139E+02 -0.13614606293E+04  0.13748670615E+04  0.87003893891E+02 0.  0.
        254    2    1    2    0    0  0.15291404052E+03  0.75710040139E+02 -0.51409493961E+03  0.10400254241E+04  0.88783138149E+03 0.  0.
         23    2    4    4    0    0  0.36172857654E+03  0.37194577020E+03 -0.25710535572E+03  0.58570789612E+03  0.88087210125E+02 0.  0.
         23    2    4    4    0    0 -0.20881453602E+03 -0.29623573006E+03 -0.25698958388E+03  0.45431752802E+03  0.94877035273E+02 0.  0.
          1    1    3    3  502    0 -0.75568907757E+02 -0.14766438248E+02 -0.88465419161E+03  0.88799873100E+03  0.00000000000E+00 0. -1.
         -1    1    3    3    0  502 -0.77345132763E+02 -0.60943601891E+02 -0.47680643773E+03  0.48686833049E+03  0.00000000000E+00 0.  1.
         11    1    5    5    0    0  0.39454182942E+02  0.65164782580E+02 -0.68477768485E+02  0.10243186134E+03  0.00000000000E+00 0. -1.
        -11    1    5    5    0    0  0.32227439359E+03  0.30678098762E+03 -0.18862758724E+03  0.48327603479E+03  0.00000000000E+00 0.  1.
          3    1    6    6  503    0 -0.12487059536E+03 -0.96566495741E+02 -0.11562576927E+03  0.19567082615E+03  0.00000000000E+00 0. -1.
         -3    1    6    6    0  503 -0.83943940656E+02 -0.19966923432E+03 -0.14136381461E+03  0.25864670187E+03  0.00000000000E+00 0.  1.
<mgrwt>
<rscale>  0 0.15211828E+04</rscale>
<asrwt>0</asrwt>
<pdfrwt beam="1">  1        2 0.41487457E-01 0.15211828E+04</pdfrwt>
<pdfrwt beam="2">  1       -2 0.33003445E+00 0.15211828E+04</pdfrwt>
<totfact> 0.24888846E+00</totfact>
</mgrwt>
</event>
<event>
12    2  0.3518828E-008  0.1270029E+04  0.7818608E-02  0.9053676E-01
         -2   -1    0    0    0  501 -0.00000000000E+00  0.00000000000E+00  0.40966715131E+03  0.40966715131E+03  0.00000000000E+00 0.  1.
          2   -1    0    0  501    0  0.00000000000E+00 -0.00000000000E+00 -0.98431930057E+03  0.98431930057E+03  0.00000000000E+00 0. -1.
         23    2    1    2    0    0 -0.25961942792E+03 -0.16146410927E+03 -0.70146663019E+02  0.32494271266E+03  0.84819256348E+02 0.  0.
        254    2    1    2    0    0  0.25961942792E+03  0.16146410927E+03 -0.50450548625E+03  0.10690437392E+04  0.89154687188E+03 0.  0.
         23    2    4    4    0    0  0.18928513153E+03  0.51864898889E+03 -0.35749635162E+03  0.66539351463E+03  0.10059449881E+03 0.  0.
         23    2    4    4    0    0  0.70334296384E+02 -0.35718487963E+03 -0.14700913463E+03  0.40365022458E+03  0.93775618689E+02 0.  0.
          1    1    3    3  502    0 -0.92044721079E+02 -0.33436116249E+02  0.11919683320E+02  0.98652336002E+02  0.00000000000E+00 0. -1.
         -1    1    3    3    0  502 -0.16757470684E+03 -0.12802799302E+03 -0.82066346339E+02  0.22629037666E+03  0.00000000000E+00 0.  1.
         11    1    5    5    0    0  0.18067571232E+03  0.47796105163E+03 -0.29407182293E+03  0.58954958820E+03  0.00000000000E+00 0.  1.
        -11    1    5    5    0    0  0.86094192133E+01  0.40687937260E+02 -0.63424528685E+02  0.75843926432E+02  0.00000000000E+00 0. -1.
          1    1    6    6  503    0  0.11721598812E+02 -0.41484583825E+02 -0.54512269897E+02  0.69497871501E+02  0.00000000000E+00 0. -1.
         -1    1    6    6    0  503  0.58612697573E+02 -0.31570029580E+03 -0.92496864734E+02  0.33415235308E+03  0.00000000000E+00 0.  1.
<mgrwt>
<rscale>  0 0.12700288E+04</rscale>
<asrwt>0</asrwt>
<pdfrwt beam="1">  1        2 0.15143374E+00 0.12700288E+04</pdfrwt>
<pdfrwt beam="2">  1       -2 0.63025716E-01 0.12700288E+04</pdfrwt>
<totfact> 0.59077913E+01</totfact>
</mgrwt>
</event>
<event>
12    2  0.3518828E-008  0.1776106E+04  0.7818608E-02  0.8719110E-01
          1   -1    0    0  501    0  0.00000000000E+00  0.00000000000E+00  0.81307051822E+03  0.81307051822E+03  0.00000000000E+00 0. -1.
         -1   -1    0    0    0  501 -0.00000000000E+00 -0.00000000000E+00 -0.96995035279E+03  0.96995035279E+03  0.00000000000E+00 0.  1.
         23    2    1    2    0    0  0.41049509011E+03 -0.10303379420E+03  0.43763464547E+03  0.61587741387E+03  0.93052266197E+02 0.  0.
        254    2    1    2    0    0 -0.41049509011E+03  0.10303379420E+03 -0.59451448004E+03  0.11671434571E+04  0.91085355620E+03 0.  0.
         23    2    4    4    0    0 -0.11181066294E+03  0.11019411373E+03  0.22582731777E+03  0.28950075154E+03  0.90378872780E+02 0.  0.
         23    2    4    4    0    0 -0.29868442716E+03 -0.71603195239E+01 -0.82034179781E+03  0.87764270560E+03  0.89623636712E+02 0.  0.
          1    1    3    3  502    0  0.31393050237E+03 -0.10662110539E+03  0.29619790813E+03  0.44458252464E+03  0.00000000000E+00 0. -1.
         -1    1    3    3    0  502  0.96564587736E+02  0.35873111869E+01  0.14143673734E+03  0.17129488922E+03  0.00000000000E+00 0.  1.
         11    1    5    5    0    0 -0.36599654817E+02  0.95810735552E+02  0.15019194092E+03  0.18187042337E+03  0.00000000000E+00 0. -1.
        -11    1    5    5    0    0 -0.75211008127E+02  0.14383378173E+02  0.75635376850E+02  0.10763032817E+03  0.00000000000E+00 0.  1.
          3    1    6    6  503    0 -0.20192750547E+03 -0.16885901596E+01 -0.42409594327E+03  0.46971793440E+03  0.00000000000E+00 0. -1.
         -3    1    6    6    0  503 -0.96756921696E+02 -0.54717293644E+01 -0.39624585454E+03  0.40792477120E+03  0.00000000000E+00 0.  1.
<mgrwt>
<rscale>  0 0.17761059E+04</rscale>
<asrwt>0</asrwt>
<pdfrwt beam="1">  1        1 0.12508777E+00 0.17761059E+04</pdfrwt>
<pdfrwt beam="2">  1       -1 0.14922313E+00 0.17761059E+04</pdfrwt>
<totfact> 0.72062383E+00</totfact>
</mgrwt>
</event>
<event>
12    2  0.3518828E-008  0.2146048E+04  0.7818608E-02  0.8541226E-01
         -1   -1    0    0    0  501 -0.00000000000E+00  0.00000000000E+00  0.92429096676E+03  0.92429096676E+03  0.00000000000E+00 0.  1.
          1   -1    0    0  501    0  0.00000000000E+00 -0.00000000000E+00 -0.12456902848E+04  0.12456902848E+04  0.00000000000E+00 0. -1.
         23    2    1    2    0    0  0.38118876665E+03  0.56421136688E+02  0.66643099896E+03  0.77503446701E+03  0.89777102854E+02 0.  0.
        254    2    1    2    0    0 -0.38118876665E+03 -0.56421136688E+02 -0.98783031701E+03  0.13949467846E+04  0.90641026919E+03 0.  0.
         23    2    4    4    0    0 -0.23304381245E+03  0.15174052615E+03  0.70903274652E+02  0.30217237175E+03  0.94584682129E+02 0.  0.
         23    2    4    4    0    0 -0.14814495420E+03 -0.20816166284E+03 -0.10587335917E+04  0.10927744128E+04  0.89223841401E+02 0.  0.
          3    1    3    3  502    0  0.43183055421E+02  0.16418471457E+02  0.35917886447E+02  0.58518689726E+02  0.00000000000E+00 0. -1.
         -3    1    3    3    0  502  0.33800571123E+03  0.40002665231E+02  0.63051311251E+03  0.71651577728E+03  0.00000000000E+00 0.  1.
         11    1    5    5    0    0 -0.21034823356E+03  0.16017786296E+03  0.80118445538E+02  0.27626489546E+03  0.00000000000E+00 0.  1.
        -11    1    5    5    0    0 -0.22695578883E+02 -0.84373368079E+01 -0.92151708861E+01  0.25907476290E+02  0.00000000000E+00 0. -1.
          1    1    6    6  503    0 -0.50318927965E+02 -0.81618575514E+02 -0.58403516423E+03  0.59185357939E+03  0.00000000000E+00 0. -1.
         -1    1    6    6    0  503 -0.97826026237E+02 -0.12654308733E+03 -0.47469842743E+03  0.50092083343E+03  0.00000000000E+00 0.  1.
<mgrwt>
<rscale>  0 0.21460478E+04</rscale>
<asrwt>0</asrwt>
<pdfrwt beam="1">  1        1 0.19164466E+00 0.21460478E+04</pdfrwt>
<pdfrwt beam="2">  1       -1 0.14219861E+00 0.21460478E+04</pdfrwt>
<totfact> 0.36480696E+00</totfact>
</mgrwt>
</event>
<event>
12    2  0.3518828E-008  0.1767299E+04  0.7818608E-02  0.8723885E-01
          2   -1    0    0  501    0  0.00000000000E+00  0.00000000000E+00  0.44658189267E+03  0.44658189267E+03  0.00000000000E+00 0. -1.
         -2   -1    0    0    0  501 -0.00000000000E+00 -0.00000000000E+00 -0.17484733115E+04  0.17484733115E+04  0.00000000000E+00 0.  1.
         23    2    1    2    0    0 -0.21287339597E+03  0.60144468618E+03 -0.34677755513E+03  0.73144224872E+03  0.87762732605E+02 0.  0.
        254    2    1    2    0    0  0.21287339597E+03 -0.60144468618E+03 -0.95511386368E+03  0.14636129554E+04  0.90712160016E+03 0.  0.
         23    2    4    4    0    0 -0.21532862322E+03 -0.55151111029E+03 -0.28981408032E+03  0.66541648525E+03  0.90862406620E+02 0.  0.
         23    2    4    4    0    0  0.42820201920E+03 -0.49933575885E+02 -0.66529978337E+03  0.79819647019E+03  0.92970274966E+02 0.  0.
          4    1    3    3  502    0 -0.17775407097E+03  0.42057651542E+03 -0.27919382007E+03  0.53519183873E+03  0.00000000000E+00 0. -1.
         -4    1    3    3    0  502 -0.35119325000E+02  0.18086817075E+03 -0.67583735058E+02  0.19625041000E+03  0.00000000000E+00 0.  1.
         11    1    5    5    0    0  0.48617287232E+01 -0.62455518049E+02 -0.29471324334E+02  0.69230680330E+02  0.00000000000E+00 0. -1.
        -11    1    5    5    0    0 -0.22019035195E+03 -0.48905559224E+03 -0.26034275598E+03  0.59618580492E+03  0.00000000000E+00 0.  1.
          3    1    6    6  503    0  0.17599640537E+03  0.21224648250E+02 -0.23468130974E+03  0.29410973724E+03  0.00000000000E+00 0. -1.
         -3    1    6    6    0  503  0.25220561383E+03 -0.71158224135E+02 -0.43061847363E+03  0.50408673295E+03  0.00000000000E+00 0.  1.
<mgrwt>
<rscale>  0 0.17672991E+04</rscale>
<asrwt>0</asrwt>
<pdfrwt beam="1">  1        2 0.68704906E-01 0.17672991E+04</pdfrwt>
<pdfrwt beam="2">  1       -2 0.26899590E+00 0.17672991E+04</pdfrwt>
<totfact> 0.32662622E+00</totfact>
</mgrwt>
</event>
<event>
12    2  0.3518828E-008  0.2608777E+04  0.7818608E-02  0.8365226E-01
          2   -1    0    0  501    0  0.00000000000E+00  0.00000000000E+00  0.22931441633E+04  0.22931441633E+04  0.00000000000E+00 0. -1.
         -2   -1    0    0    0  501 -0.00000000000E+00 -0.00000000000E+00 -0.74196358970E+03  0.74196358970E+03  0.00000000000E+00 0.  1.
         23    2    1    2    0    0 -0.46074834424E+03 -0.62538683804E+03 -0.29898500843E+03  0.83779129913E+03  0.95417460271E+02 0.  0.
        254    2    1    2    0    0  0.46074834424E+03  0.62538683804E+03  0.18501655820E+04  0.21973164539E+04  0.89537097541E+03 0.  0.
         23    2    4    4    0    0  0.43005648773E+03  0.82300168204E+03  0.12651175294E+04  0.15720286716E+04  0.92040369446E+02 0.  0.
         23    2    4    4    0    0  0.30691856512E+02 -0.19761484400E+03  0.58504805261E+03  0.62528778233E+03  0.93327221365E+02 0.  0.
          4    1    3    3  502    0 -0.15674271239E+03 -0.16424021205E+03 -0.12233894636E+03  0.25789521697E+03  0.00000000000E+00 0. -1.
         -4    1    3    3    0  502 -0.30400563185E+03 -0.46114662599E+03 -0.17664606207E+03  0.57989608216E+03  0.00000000000E+00 0.  1.
         11    1    5    5    0    0  0.18552472901E+03  0.44009355777E+03  0.60827327224E+03  0.77336804847E+03  0.00000000000E+00 0.  1.
        -11    1    5    5    0    0  0.24453175872E+03  0.38290812427E+03  0.65684425720E+03  0.79866062308E+03  0.00000000000E+00 0. -1.
          2    1    6    6  503    0  0.38764661186E+02 -0.19832588315E+03  0.58285526376E+03  0.61689230290E+03  0.00000000000E+00 0.  1.
         -2    1    6    6    0  503 -0.80728046743E+01  0.71103915057E+00  0.21927888500E+01  0.83954794338E+01  0.00000000000E+00 0. -1.
<mgrwt>
<rscale>  0 0.26087771E+04</rscale>
<asrwt>0</asrwt>
<pdfrwt beam="1">  1        2 0.35279141E+00 0.26087771E+04</pdfrwt>
<pdfrwt beam="2">  1       -2 0.11414825E+00 0.26087771E+04</pdfrwt>
<totfact> 0.24275170E+00</totfact>
</mgrwt>
</event>
<event>
12    2  0.3518828E-008  0.1586304E+04  0.7818608E-02  0.8829007E-01
         -1   -1    0    0    0  501 -0.00000000000E+00  0.00000000000E+00  0.48847757586E+03  0.48847757586E+03  0.00000000000E+00 0.  1.
          1   -1    0    0  501    0  0.00000000000E+00 -0.00000000000E+00 -0.12878580936E+04  0.12878580936E+04  0.00000000000E+00 0. -1.
         23    2    1    2    0    0 -0.43491999275E+03  0.12742491252E+03 -0.63986818765E+03  0.78898479847E+03  0.87596839088E+02 0.  0.
        254    2    1    2    0    0  0.43491999275E+03 -0.12742491252E+03 -0.15951233008E+03  0.98735087099E+03  0.86256886715E+03 0.  0.
         23    2    4    4    0    0  0.24496590801E+03 -0.48611761117E+03 -0.14871267840E+03  0.57126023779E+03  0.88905402435E+02 0.  0.
         23    2    4    4    0    0  0.18995408474E+03  0.35869269865E+03 -0.10799651679E+02  0.41609063320E+03  0.90949305566E+02 0.  0.
          2    1    3    3  502    0 -0.19871514186E+03  0.15426526799E+02 -0.30089486456E+03  0.36092021951E+03  0.00000000000E+00 0.  1.
         -2    1    3    3    0  502 -0.23620485089E+03  0.11199838572E+03 -0.33897332309E+03  0.42806457895E+03  0.00000000000E+00 0. -1.
         11    1    5    5    0    0  0.94186965896E+02 -0.19886363205E+03 -0.10532903401E+03  0.24395108957E+03  0.00000000000E+00 0.  1.
        -11    1    5    5    0    0  0.15077894212E+03 -0.28725397913E+03 -0.43383644391E+02  0.32730914822E+03  0.00000000000E+00 0. -1.
          3    1    6    6  503    0  0.84096006877E+02  0.23103490624E+03 -0.35529791478E+02  0.24841826091E+03  0.00000000000E+00 0. -1.
         -3    1    6    6    0  503  0.10585807786E+03  0.12765779242E+03  0.24730139799E+02  0.16767237229E+03  0.00000000000E+00 0.  1.
<mgrwt>
<rscale>  0 0.15863036E+04</rscale>
<asrwt>0</asrwt>
<pdfrwt beam="1">  1        1 0.19813201E+00 0.15863036E+04</pdfrwt>
<pdfrwt beam="2">  1       -1 0.75150397E-01 0.15863036E+04</pdfrwt>
<totfact> 0.15784094E+01</totfact>
</mgrwt>
</event>
<event>
12    2  0.3518828E-008  0.3901431E+04  0.7818608E-02  0.8024732E-01
          2   -1    0    0  501    0  0.00000000000E+00  0.00000000000E+00  0.25363755399E+04  0.25363755399E+04  0.00000000000E+00 0.  1.
         -2   -1    0    0    0  501 -0.00000000000E+00 -0.00000000000E+00 -0.15002866926E+04  0.15002866926E+04  0.00000000000E+00 0. -1.
         23    2    1    2    0    0  0.69799925511E+03 -0.16980596693E+04  0.70161084753E+03  0.19677615239E+04  0.96010588374E+02 0.  0.
        254    2    1    2    0    0 -0.69799925511E+03  0.16980596693E+04  0.33447799975E+03  0.20689007086E+04  0.89323289734E+03 0.  0.
         23    2    4    4    0    0  0.10266535331E+03  0.43441044997E+03  0.34427037025E+03  0.57013898169E+03  0.85344928348E+02 0.  0.
         23    2    4    4    0    0 -0.80066460842E+03  0.12636492193E+04 -0.97923705002E+01  0.14987617269E+04  0.91201199007E+02 0.  0.
          3    1    3    3  502    0  0.50224718826E+03 -0.12194387919E+04  0.54980712494E+03  0.14288355679E+04  0.00000000000E+00 0. -1.
         -3    1    3    3    0  502  0.19575206686E+03 -0.47862087737E+03  0.15180372259E+03  0.53892595607E+03  0.00000000000E+00 0.  1.
         11    1    5    5    0    0  0.89579963137E+02  0.40720790120E+03  0.34304414876E+03  0.53992789574E+03  0.00000000000E+00 0. -1.
        -11    1    5    5    0    0  0.13085390171E+02  0.27202548764E+02  0.12262214964E+01  0.30211085951E+02  0.00000000000E+00 0.  1.
          3    1    6    6  503    0 -0.55891505220E+03  0.92917356782E+03  0.24954582632E+02  0.10846069730E+04  0.00000000000E+00 0. -1.
         -3    1    6    6    0  503 -0.24174955623E+03  0.33447565151E+03 -0.34746953132E+02  0.41415475385E+03  0.00000000000E+00 0.  1.
<mgrwt>
<rscale>  0 0.39014307E+04</rscale>
<asrwt>0</asrwt>
<pdfrwt beam="1">  1        2 0.39021162E+00 0.39014307E+04</pdfrwt>
<pdfrwt beam="2">  1       -2 0.23081334E+00 0.39014307E+04</pdfrwt>
<totfact> 0.22278607E-01</totfact>
</mgrwt>
</event>
<event>
12    2  0.3518828E-008  0.2029212E+04  0.7818608E-02  0.8593083E-01
         -2   -1    0    0    0  501 -0.00000000000E+00  0.00000000000E+00  0.11158918439E+04  0.11158918439E+04  0.00000000000E+00 0.  1.
          2   -1    0    0  501    0  0.00000000000E+00 -0.00000000000E+00 -0.92251391853E+03  0.92251391853E+03  0.00000000000E+00 0. -1.
         23    2    1    2    0    0  0.16585031543E+03 -0.76092425321E+03  0.29652070686E+03  0.83831446821E+03  0.91293875868E+02 0.  0.
        254    2    1    2    0    0 -0.16585031543E+03  0.76092425321E+03 -0.10314278145E+03  0.12000912942E+04  0.90723130177E+03 0.  0.
         23    2    4    4    0    0 -0.28851304365E+02  0.94270762233E+03 -0.42134745566E+02  0.94850229620E+03  0.91384955827E+02 0.  0.
         23    2    4    4    0    0 -0.13699901107E+03 -0.18178336912E+03 -0.61008035884E+02  0.25158899804E+03  0.88097225664E+02 0.  0.
          3    1    3    3  502    0  0.16505401187E+02 -0.46160284088E+02  0.43442149641E+02  0.65501301215E+02  0.00000000000E+00 0. -1.
         -3    1    3    3    0  502  0.14934491425E+03 -0.71476396912E+03  0.25307855722E+03  0.77281316700E+03  0.00000000000E+00 0.  1.
         11    1    5    5    0    0 -0.38620753623E+00  0.19884889976E+01  0.57890727414E+01  0.61332379670E+01  0.00000000000E+00 0. -1.
        -11    1    5    5    0    0 -0.28465096828E+02  0.94071913333E+03 -0.47923818308E+02  0.94236905824E+03  0.00000000000E+00 0.  1.
          3    1    6    6  503    0 -0.97528934295E+02 -0.16304230840E+03 -0.77089086062E+02  0.20503027713E+03  0.00000000000E+00 0.  1.
         -3    1    6    6    0  503 -0.39470076774E+02 -0.18741060727E+02  0.16081050178E+02  0.46558720907E+02  0.00000000000E+00 0. -1.
<mgrwt>
<rscale>  0 0.20292124E+04</rscale>
<asrwt>0</asrwt>
<pdfrwt beam="1">  1        2 0.14192522E+00 0.20292124E+04</pdfrwt>
<pdfrwt beam="2">  1       -2 0.17167567E+00 0.20292124E+04</pdfrwt>
<totfact> 0.54408598E+00</totfact>
</mgrwt>
</event>
<event>
12    2  0.3518828E-008  0.2319218E+04  0.7818608E-02  0.8470382E-01
         -2   -1    0    0    0  501 -0.00000000000E+00  0.00000000000E+00  0.12608161909E+04  0.12608161909E+04  0.00000000000E+00 0.  1.
          2   -1    0    0  501    0  0.00000000000E+00 -0.00000000000E+00 -0.10665254167E+04  0.10665254167E+04  0.00000000000E+00 0. -1.
         23    2    1    2    0    0  0.80176653816E+03  0.49504248380E+03 -0.17361677231E+03  0.96225181811E+03  0.88820804635E+02 0.  0.
        254    2    1    2    0    0 -0.80176653816E+03 -0.49504248380E+03  0.36790754644E+03  0.13650897895E+04  0.91663380269E+03 0.  0.
         23    2    4    4    0    0 -0.40241260537E+03 -0.24500096266E+02 -0.25373298355E+03  0.48439211271E+03  0.87858592279E+02 0.  0.
         23    2    4    4    0    0 -0.39935393279E+03 -0.47054238753E+03  0.62164053000E+03  0.88069767680E+03  0.91091971607E+02 0.  0.
          2    1    3    3  502    0  0.23516986495E+03  0.18036294409E+03 -0.83434570579E+02  0.30789118947E+03  0.00000000000E+00 0. -1.
         -2    1    3    3    0  502  0.56659667321E+03  0.31467953970E+03 -0.90182201733E+02  0.65436062864E+03  0.00000000000E+00 0.  1.
         11    1    5    5    0    0 -0.24824228042E+03  0.27487354205E+02 -0.16023485962E+03  0.29674061850E+03  0.00000000000E+00 0. -1.
        -11    1    5    5    0    0 -0.15417032495E+03 -0.51987450471E+02 -0.93498123931E+02  0.18765149422E+03  0.00000000000E+00 0.  1.
          4    1    6    6  503    0 -0.24701627967E+03 -0.24915878866E+03  0.30048678620E+03  0.46194096275E+03  0.00000000000E+00 0. -1.
         -4    1    6    6    0  503 -0.15233765313E+03 -0.22138359887E+03  0.32115374379E+03  0.41875671405E+03  0.00000000000E+00 0.  1.
<mgrwt>
<rscale>  0 0.23192176E+04</rscale>
<asrwt>0</asrwt>
<pdfrwt beam="1">  1        2 0.16408083E+00 0.23192176E+04</pdfrwt>
<pdfrwt beam="2">  1       -2 0.19397172E+00 0.23192176E+04</pdfrwt>
<totfact> 0.30159678E+00</totfact>
</mgrwt>
</event>
<event>
12    2  0.3518828E-008  0.1513230E+04  0.7818608E-02  0.8875702E-01
         -2   -1    0    0    0  501 -0.00000000000E+00  0.00000000000E+00  0.49697776816E+03  0.49697776816E+03  0.00000000000E+00 0.  1.
          2   -1    0    0  501    0  0.00000000000E+00 -0.00000000000E+00 -0.11518952436E+04  0.11518952436E+04  0.00000000000E+00 0. -1.
         23    2    1    2    0    0 -0.15575942032E+03  0.46899195917E+03 -0.25020736884E+03  0.56243782599E+03  0.97560883016E+02 0.  0.
        254    2    1    2    0    0  0.15575942032E+03 -0.46899195917E+03 -0.40471010663E+03  0.10864351858E+04  0.87882688156E+03 0.  0.
         23    2    4    4    0    0 -0.31080855689E+03 -0.27469151159E+02 -0.27178371535E+03  0.42405588713E+03  0.92738849349E+02 0.  0.
         23    2    4    4    0    0  0.46656797721E+03 -0.44152280801E+03 -0.13292639127E+03  0.66237929867E+03  0.91917585140E+02 0.  0.
          3    1    3    3  502    0  0.10345160979E+02  0.19772812402E+02 -0.53454462751E+00  0.22322011646E+02  0.00000000000E+00 0. -1.
         -3    1    3    3    0  502 -0.16610458130E+03  0.44921914677E+03 -0.24967282421E+03  0.54011581434E+03  0.00000000000E+00 0.  1.
         11    1    5    5    0    0 -0.85528411525E+02 -0.34546231057E+02 -0.39343959670E+02  0.10028209422E+03  0.00000000000E+00 0.  1.
        -11    1    5    5    0    0 -0.22528014536E+03  0.70770798979E+01 -0.23243975568E+03  0.32377379291E+03  0.00000000000E+00 0. -1.
          2    1    6    6  503    0  0.43585920299E+03 -0.43811989241E+03 -0.12585101378E+03  0.63068277495E+03  0.00000000000E+00 0. -1.
         -2    1    6    6    0  503  0.30708774221E+02 -0.34029155961E+01 -0.70753774996E+01  0.31696523713E+02  0.00000000000E+00 0.  1.
<mgrwt>
<rscale>  0 0.15132301E+04</rscale>
<asrwt>0</asrwt>
<pdfrwt beam="1">  1        2 0.17721465E+00 0.15132301E+04</pdfrwt>
<pdfrwt beam="2">  1       -2 0.76458118E-01 0.15132301E+04</pdfrwt>
<totfact> 0.29905316E+01</totfact>
</mgrwt>
</event>
<event>
12    2  0.3518828E-008  0.1866316E+04  0.7818608E-02  0.8671807E-01
         -2   -1    0    0    0  501 -0.00000000000E+00  0.00000000000E+00  0.62510215583E+03  0.62510215583E+03  0.00000000000E+00 0.  1.
          2   -1    0    0  501    0  0.00000000000E+00 -0.00000000000E+00 -0.13930264907E+04  0.13930264907E+04  0.00000000000E+00 0. -1.
         23    2    1    2    0    0 -0.25618365043E+03  0.32021316587E+03 -0.92424359530E+03  0.10152820313E+04  0.91677942900E+02 0.  0.
        254    2    1    2    0    0  0.25618365043E+03 -0.32021316587E+03  0.15631926043E+03  0.10028466153E+04  0.90172007200E+03 0.  0.
         23    2    4    4    0    0  0.11822986001E+03  0.22266479051E+03 -0.19864396573E+03  0.33363919814E+03  0.91092154915E+02 0.  0.
         23    2    4    4    0    0  0.13795379042E+03 -0.54287795638E+03  0.35496322616E+03  0.66920741713E+03  0.89955274483E+02 0.  0.
          4    1    3    3  502    0 -0.72670580715E+02  0.16140895248E+03 -0.41457637715E+03  0.45078535439E+03  0.00000000000E+00 0. -1.
         -4    1    3    3    0  502 -0.18351306971E+03  0.15880421339E+03 -0.50966721814E+03  0.56449667687E+03  0.00000000000E+00 0.  1.
         11    1    5    5    0    0  0.41668735827E+02  0.43052308452E+02 -0.95714487229E+02  0.11292053788E+03  0.00000000000E+00 0.  1.
        -11    1    5    5    0    0  0.76561124184E+02  0.17961248206E+03 -0.10292947850E+03  0.22071866027E+03  0.00000000000E+00 0. -1.
          3    1    6    6  503    0  0.91609929395E+02 -0.47707772134E+03  0.28992969692E+03  0.56573382480E+03  0.00000000000E+00 0. -1.
         -3    1    6    6    0  503  0.46343861021E+02 -0.65800235034E+02  0.65033529235E+02  0.10347359233E+03  0.00000000000E+00 0.  1.
<mgrwt>
<rscale>  0 0.18663160E+04</rscale>
<asrwt>0</asrwt>
<pdfrwt beam="1">  1        2 0.21431177E+00 0.18663160E+04</pdfrwt>
<pdfrwt beam="2">  1       -2 0.96169562E-01 0.18663160E+04</pdfrwt>
<totfact> 0.12422662E+01</totfact>
</mgrwt>
</event>
<event>
12    2  0.3518828E-008  0.2574947E+04  0.7818608E-02  0.8376761E-01
          1   -1    0    0  501    0  0.00000000000E+00  0.00000000000E+00  0.76436442392E+03  0.76436442392E+03  0.00000000000E+00 0. -1.
         -1   -1    0    0    0  501 -0.00000000000E+00 -0.00000000000E+00 -0.21685830715E+04  0.21685830715E+04  0.00000000000E+00 0.  1.
         23    2    1    2    0    0 -0.41615145131E+03 -0.94324944464E+03 -0.10649990693E+04  0.14848085485E+04  0.86786305235E+02 0.  0.
        254    2    1    2    0    0  0.41615145131E+03  0.94324944464E+03 -0.33921957835E+03  0.14481389470E+04  0.95871525609E+03 0.  0.
         23    2    4    4    0    0  0.62838222474E+03  0.71202448420E+03  0.30482830406E+02  0.95442577054E+03  0.90312026052E+02 0.  0.
         23    2    4    4    0    0 -0.21223077343E+03  0.23122496044E+03 -0.36970240875E+03  0.49371317646E+03  0.92552396292E+02 0.  0.
          4    1    3    3  502    0 -0.31222840858E+03 -0.71183633215E+03 -0.74739540885E+03  0.10783308583E+04  0.00000000000E+00 0. -1.
         -4    1    3    3    0  502 -0.10392304273E+03 -0.23141311249E+03 -0.31760366042E+03  0.40647769011E+03  0.00000000000E+00 0.  1.
         11    1    5    5    0    0  0.34541510097E+03  0.44903174169E+03 -0.45033962635E+01  0.56653453346E+03  0.00000000000E+00 0.  1.
        -11    1    5    5    0    0  0.28296712376E+03  0.26299274251E+03  0.34986226669E+02  0.38789123707E+03  0.00000000000E+00 0. -1.
          1    1    6    6  503    0 -0.14793192554E+03  0.10670782477E+03 -0.24963453758E+03  0.30917279443E+03  0.00000000000E+00 0.  1.
         -1    1    6    6    0  503 -0.64298847888E+02  0.12451713567E+03 -0.12006787117E+03  0.18454038204E+03  0.00000000000E+00 0. -1.
<mgrwt>
<rscale>  0 0.25749468E+04</rscale>
<asrwt>0</asrwt>
<pdfrwt beam="1">  1        1 0.11759453E+00 0.25749468E+04</pdfrwt>
<pdfrwt beam="2">  1       -1 0.33362816E+00 0.25749468E+04</pdfrwt>
<totfact> 0.41823230E-01</totfact>
</mgrwt>
</event>
<event>
12    2  0.3518828E-008  0.1386885E+04  0.7818608E-02  0.8963367E-01
          2   -1    0    0  501    0  0.00000000000E+00  0.00000000000E+00  0.39494351917E+03  0.39494351917E+03  0.00000000000E+00 0. -1.
         -2   -1    0    0    0  501 -0.00000000000E+00 -0.00000000000E+00 -0.12175482090E+04  0.12175482090E+04  0.00000000000E+00 0.  1.
         23    2    1    2    0    0  0.34609748108E+03 -0.11270632904E+03 -0.66336542877E+02  0.38195103133E+03  0.94867646753E+02 0.  0.
        254    2    1    2    0    0 -0.34609748108E+03  0.11270632904E+03 -0.75626814690E+03  0.12305406968E+04  0.89989038967E+03 0.  0.
         23    2    4    4    0    0 -0.25258702444E+03 -0.22078438796E+03  0.47849824983E+02  0.35025968232E+03  0.88579277649E+02 0.  0.
         23    2    4    4    0    0 -0.93510456638E+02  0.33349071700E+03 -0.80411797189E+03  0.88028101447E+03  0.91261645265E+02 0.  0.
          2    1    3    3  502    0  0.32604120986E+03 -0.93828477941E+02 -0.36319443529E+02  0.34121218586E+03  0.00000000000E+00 0. -1.
         -2    1    3    3    0  502  0.20056271219E+02 -0.18877851102E+02 -0.30017099348E+02  0.40738845476E+02  0.00000000000E+00 0.  1.
         11    1    5    5    0    0 -0.19986638202E+03 -0.17717389179E+03  0.56635551874E+00  0.26709076988E+03  0.00000000000E+00 0. -1.
        -11    1    5    5    0    0 -0.52720642416E+02 -0.43610496169E+02  0.47283469464E+02  0.83168912446E+02  0.00000000000E+00 0.  1.
          1    1    6    6  503    0 -0.93493600857E+02  0.25216865680E+03 -0.68637429098E+03  0.73718366245E+03  0.00000000000E+00 0. -1.
         -1    1    6    6    0  503 -0.16855781131E-01  0.81322060206E+02 -0.11774368091E+03  0.14309735202E+03  0.00000000000E+00 0.  1.
<mgrwt>
<rscale>  0 0.13868854E+04</rscale>
<asrwt>0</asrwt>
<pdfrwt beam="1">  1        2 0.60760542E-01 0.13868854E+04</pdfrwt>
<pdfrwt beam="2">  1       -2 0.18731511E+00 0.13868854E+04</pdfrwt>
<totfact> 0.12685586E+01</totfact>
</mgrwt>
</event>
<event>
12    2  0.3518828E-008  0.1069922E+04  0.7818608E-02  0.9235014E-01
         -2   -1    0    0    0  501 -0.00000000000E+00  0.00000000000E+00  0.26194918638E+03  0.26194918638E+03  0.00000000000E+00 0.  1.
          2   -1    0    0  501    0  0.00000000000E+00 -0.00000000000E+00 -0.10925142285E+04  0.10925142285E+04  0.00000000000E+00 0. -1.
         23    2    1    2    0    0  0.10113288021E+03 -0.85420525622E+02 -0.26566636882E+03  0.31164189958E+03  0.94960667626E+02 0.  0.
        254    2    1    2    0    0 -0.10113288021E+03  0.85420525622E+02 -0.56489867333E+03  0.10428215153E+04  0.86651120941E+03 0.  0.
         23    2    4    4    0    0  0.18918466454E+03  0.38714874213E+03 -0.22192083492E+03  0.49357827126E+03  0.93250560627E+02 0.  0.
         23    2    4    4    0    0 -0.29031754475E+03 -0.30172821651E+03 -0.34297783841E+03  0.54924324406E+03  0.93328184790E+02 0.  0.
          2    1    3    3  502    0 -0.10819241157E+02 -0.53548094006E-01  0.17667869346E+00  0.10820816142E+02  0.00000000000E+00 0.  1.
         -2    1    3    3    0  502  0.11195212137E+03 -0.85366977528E+02 -0.26584304751E+03  0.30082108344E+03  0.00000000000E+00 0. -1.
         11    1    5    5    0    0  0.44664185360E+02  0.17002371473E+03 -0.56192141833E+02  0.18455489651E+03  0.00000000000E+00 0.  1.
        -11    1    5    5    0    0  0.14452047918E+03  0.21712502741E+03 -0.16572869309E+03  0.30902337475E+03  0.00000000000E+00 0. -1.
          4    1    6    6  503    0 -0.87065187908E+02 -0.39792270615E+02 -0.98120763763E+02  0.13708193181E+03  0.00000000000E+00 0. -1.
         -4    1    6    6    0  503 -0.20325235684E+03 -0.26193594590E+03 -0.24485707465E+03  0.41216131225E+03  0.00000000000E+00 0.  1.
<mgrwt>
<rscale>  0 0.10699219E+04</rscale>
<asrwt>0</asrwt>
<pdfrwt beam="1">  1        2 0.16807911E+00 0.10699219E+04</pdfrwt>
<pdfrwt beam="2">  1       -2 0.40299875E-01 0.10699219E+04</pdfrwt>
<totfact> 0.12754017E+02</totfact>
</mgrwt>
</event>
<event>
12    2  0.3518828E-008  0.3950268E+04  0.7818608E-02  0.8014655E-01
          1   -1    0    0  501    0  0.00000000000E+00  0.00000000000E+00  0.30573403985E+04  0.30573403985E+04  0.00000000000E+00 0. -1.
         -1   -1    0    0    0  501 -0.00000000000E+00 -0.00000000000E+00 -0.12759958065E+04  0.12759958065E+04  0.00000000000E+00 0.  1.
         23    2    1    2    0    0 -0.82169980198E+03  0.41193254478E+03 -0.94240222005E+03  0.13198311830E+04  0.94622520387E+02 0.  0.
        254    2    1    2    0    0  0.82169980198E+03 -0.41193254478E+03  0.27237468121E+04  0.30135050219E+04  0.90417743538E+03 0.  0.
         23    2    4    4    0    0 -0.80463936058E+02  0.21081838900E+02  0.15906603496E+02  0.12519606725E+03  0.92207083694E+02 0.  0.
         23    2    4    4    0    0  0.90216373803E+03 -0.43301438368E+03  0.27078402086E+04  0.28883089547E+04  0.92353427270E+02 0.  0.
          4    1    3    3  502    0  0.10566103574E+01 -0.24890981791E+01 -0.18381503658E+01  0.32696837706E+01  0.00000000000E+00 0. -1.
         -4    1    3    3    0  502 -0.82275641233E+03  0.41442164296E+03 -0.94056406969E+03  0.13165614993E+04  0.00000000000E+00 0.  1.
         11    1    5    5    0    0 -0.77673994779E+02  0.90589374504E+01 -0.25291688185E+02  0.82188705452E+02  0.00000000000E+00 0. -1.
        -11    1    5    5    0    0 -0.27899412787E+01  0.12022901449E+02  0.41198291681E+02  0.43007361801E+02  0.00000000000E+00 0.  1.
          2    1    6    6  503    0  0.35847546982E+03 -0.18712762590E+03  0.97153422109E+03  0.10523308195E+04  0.00000000000E+00 0.  1.
         -2    1    6    6    0  503  0.54368826821E+03 -0.24588675778E+03  0.17363059876E+04  0.18359781352E+04  0.00000000000E+00 0. -1.
<mgrwt>
<rscale>  0 0.39502676E+04</rscale>
<asrwt>0</asrwt>
<pdfrwt beam="1">  1        1 0.47036006E+00 0.39502676E+04</pdfrwt>
<pdfrwt beam="2">  1       -1 0.19630705E+00 0.39502676E+04</pdfrwt>
<totfact> 0.68024720E-02</totfact>
</mgrwt>
</event>
<event>
12    2  0.3518828E-008  0.1549548E+04  0.7818608E-02  0.8852157E-01
         -1   -1    0    0    0  501 -0.00000000000E+00  0.00000000000E+00  0.81896850435E+03  0.81896850435E+03  0.00000000000E+00 0.  1.
          1   -1    0    0  501    0  0.00000000000E+00 -0.00000000000E+00 -0.73296422774E+03  0.73296422774E+03  0.00000000000E+00 0. -1.
         23    2    1    2    0    0  0.90606064814E+02 -0.10453810776E+02  0.52401340262E+03  0.54589513732E+03  0.12285240609E+03 0.  0.
        254    2    1    2    0    0 -0.90606064814E+02  0.10453810776E+02 -0.43800912601E+03  0.10060375948E+04  0.90107763621E+03 0.  0.
         23    2    4    4    0    0 -0.28637063819E+03 -0.28635096660E+03 -0.48237711772E+03  0.63633581587E+03  0.90722479962E+02 0.  0.
         23    2    4    4    0    0  0.19576457338E+03  0.29680477738E+03  0.44367991714E+02  0.36970177889E+03  0.91071634257E+02 0.  0.
          2    1    3    3  502    0  0.35959296574E+02  0.47006035065E+02  0.11575508285E+03  0.13000722114E+03  0.00000000000E+00 0. -1.
         -2    1    3    3    0  502  0.54646768240E+02 -0.57459845841E+02  0.40825831977E+03  0.41588791618E+03  0.00000000000E+00 0.  1.
         11    1    5    5    0    0 -0.18285393940E+03 -0.18272779496E+03 -0.23775455693E+03  0.35121537487E+03  0.00000000000E+00 0. -1.
        -11    1    5    5    0    0 -0.10351669879E+03 -0.10362317164E+03 -0.24462256079E+03  0.28512044100E+03  0.00000000000E+00 0.  1.
          3    1    6    6  503    0  0.19622348592E+03  0.24999392242E+03  0.52721190149E+02  0.32214925355E+03  0.00000000000E+00 0. -1.
         -3    1    6    6    0  503 -0.45891254248E+00  0.46810854952E+02 -0.83531984352E+01  0.47552525340E+02  0.00000000000E+00 0.  1.
<mgrwt>
<rscale>  0 0.15495478E+04</rscale>
<asrwt>0</asrwt>
<pdfrwt beam="1">  1        1 0.11276373E+00 0.15495478E+04</pdfrwt>
<pdfrwt beam="2">  1       -1 0.12599516E+00 0.15495478E+04</pdfrwt>
<totfact> 0.13422358E+01</totfact>
</mgrwt>
</event>
<event>
12    2  0.3518828E-008  0.1916776E+04  0.7818608E-02  0.8646551E-01
          2   -1    0    0  501    0  0.00000000000E+00  0.00000000000E+00  0.23951074596E+04  0.23951074596E+04  0.00000000000E+00 0.  1.
         -2   -1    0    0    0  501 -0.00000000000E+00 -0.00000000000E+00 -0.38349318092E+03  0.38349318092E+03  0.00000000000E+00 0. -1.
         23    2    1    2    0    0  0.59148841067E+03  0.16220691161E+03  0.14217791616E+04  0.15511821652E+04  0.92414843383E+02 0.  0.
        254    2    1    2    0    0 -0.59148841067E+03 -0.16220691161E+03  0.58983511710E+03  0.12274184753E+04  0.88457957585E+03 0.  0.
         23    2    4    4    0    0 -0.64423860988E+03 -0.39844266310E+03  0.25461570111E+03  0.80443471923E+03  0.92120138962E+02 0.  0.
         23    2    4    4    0    0  0.52750199214E+02  0.23623575149E+03  0.33521941599E+03  0.42298375607E+03  0.89181204538E+02 0.  0.
          1    1    3    3  502    0  0.87672721552E+02 -0.84153010303E+01  0.21780675291E+03  0.23494064146E+03  0.00000000000E+00 0. -1.
         -1    1    3    3    0  502  0.50381568912E+03  0.17062221264E+03  0.12039724087E+04  0.13162415238E+04  0.00000000000E+00 0.  1.
         11    1    5    5    0    0 -0.11214481882E+03 -0.11205895201E+03  0.61702889746E+02  0.17012029778E+03  0.00000000000E+00 0.  1.
        -11    1    5    5    0    0 -0.53209379106E+03 -0.28638371109E+03  0.19291281137E+03  0.63431442145E+03  0.00000000000E+00 0. -1.
          2    1    6    6  503    0  0.59657288794E+02  0.19240941599E+03  0.31573861022E+03  0.37452803026E+03  0.00000000000E+00 0. -1.
         -2    1    6    6    0  503 -0.69070895799E+01  0.43826335507E+02  0.19480805769E+02  0.48455725810E+02  0.00000000000E+00 0.  1.
<mgrwt>
<rscale>  0 0.19167758E+04</rscale>
<asrwt>0</asrwt>
<pdfrwt beam="1">  1        2 0.36847806E+00 0.19167758E+04</pdfrwt>
<pdfrwt beam="2">  1       -2 0.58998952E-01 0.19167758E+04</pdfrwt>
<totfact> 0.10048449E+01</totfact>
</mgrwt>
</event>
<event>
12    2  0.3518828E-008  0.2155067E+04  0.7818608E-02  0.8537366E-01
         -1   -1    0    0    0  501 -0.00000000000E+00  0.00000000000E+00  0.38640166548E+03  0.38640166548E+03  0.00000000000E+00 0.  1.
          1   -1    0    0  501    0  0.00000000000E+00 -0.00000000000E+00 -0.30048491955E+04  0.30048491955E+04  0.00000000000E+00 0. -1.
         23    2    1    2    0    0  0.51852344100E+03 -0.19437905732E+03  0.52476723065E+01  0.56136360363E+03  0.91933566385E+02 0.  0.
        254    2    1    2    0    0 -0.51852344100E+03  0.19437905732E+03 -0.26236952023E+04  0.28298872573E+04  0.90434263297E+03 0.  0.
         23    2    4    4    0    0 -0.75605164615E+03  0.76186978250E+02 -0.21049845135E+04  0.22400644685E+04  0.97521656208E+02 0.  0.
         23    2    4    4    0    0  0.23752820515E+03  0.11819207907E+03 -0.51871068878E+03  0.58982278886E+03  0.91875610496E+02 0.  0.
          3    1    3    3  502    0  0.11729040908E+03 -0.71418763184E+01  0.15164297820E+02  0.11848207623E+03  0.00000000000E+00 0. -1.
         -3    1    3    3    0  502  0.40123303192E+03 -0.18723718100E+03 -0.99166255133E+01  0.44288152740E+03  0.00000000000E+00 0.  1.
         11    1    5    5    0    0 -0.35059466333E+02  0.18652799895E+02 -0.16278275230E+03  0.16755690845E+03  0.00000000000E+00 0.  1.
        -11    1    5    5    0    0 -0.72099217982E+03  0.57534178355E+02 -0.19422017612E+04  0.20725075600E+04  0.00000000000E+00 0. -1.
          3    1    6    6  503    0  0.87676811336E+02  0.38522567841E+02 -0.28736278878E+03  0.30290028698E+03  0.00000000000E+00 0. -1.
         -3    1    6    6    0  503  0.14985139382E+03  0.79669511229E+02 -0.23134790001E+03  0.28692250188E+03  0.00000000000E+00 0.  1.
<mgrwt>
<rscale>  0 0.21550673E+04</rscale>
<asrwt>0</asrwt>
<pdfrwt beam="1">  1        1 0.46228451E+00 0.21550673E+04</pdfrwt>
<pdfrwt beam="2">  1       -1 0.59446408E-01 0.21550673E+04</pdfrwt>
<totfact> 0.15585199E+00</totfact>
</mgrwt>
</event>
<event>
12    2  0.3518828E-008  0.1991604E+04  0.7818608E-02  0.8610556E-01
         -1   -1    0    0    0  501 -0.00000000000E+00  0.00000000000E+00  0.69199563292E+03  0.69199563292E+03  0.00000000000E+00 0.  1.
          1   -1    0    0  501    0  0.00000000000E+00 -0.00000000000E+00 -0.14329885096E+04  0.14329885096E+04  0.00000000000E+00 0. -1.
         23    2    1    2    0    0 -0.59580856910E+02 -0.42413156965E+03  0.41266315482E+03  0.60178672066E+03  0.91754623459E+02 0.  0.
        254    2    1    2    0    0  0.59580856910E+02  0.42413156965E+03 -0.11536560315E+04  0.15231974219E+04  0.89764730270E+03 0.  0.
         23    2    4    4    0    0  0.21295384577E+03 -0.10885959553E+03 -0.18238014225E+02  0.25613404191E+03  0.89845813995E+02 0.  0.
         23    2    4    4    0    0 -0.15337298886E+03  0.53299116519E+03 -0.11354180173E+04  0.12670633800E+04  0.93127219241E+02 0.  0.
          4    1    3    3  502    0 -0.56965480273E+02 -0.24129277958E+03  0.29031968808E+03  0.38177584092E+03  0.00000000000E+00 0. -1.
         -4    1    3    3    0  502 -0.26153766379E+01 -0.18283879008E+03  0.12234346674E+03  0.22001087974E+03  0.00000000000E+00 0.  1.
         11    1    5    5    0    0  0.20709633184E+03 -0.73700517897E+02 -0.16820118842E+02  0.22046218133E+03  0.00000000000E+00 0. -1.
        -11    1    5    5    0    0  0.58575139336E+01 -0.35159077637E+02 -0.14178953837E+01  0.35671860578E+02  0.00000000000E+00 0.  1.
          3    1    6    6  503    0 -0.51000092027E+02  0.25755982576E+03 -0.62848342619E+03  0.68112369672E+03  0.00000000000E+00 0. -1.
         -3    1    6    6    0  503 -0.10237289683E+03  0.27543133942E+03 -0.50693459111E+03  0.58593968325E+03  0.00000000000E+00 0.  1.
<mgrwt>
<rscale>  0 0.19916042E+04</rscale>
<asrwt>0</asrwt>
<pdfrwt beam="1">  1        1 0.22045977E+00 0.19916042E+04</pdfrwt>
<pdfrwt beam="2">  1       -1 0.10646087E+00 0.19916042E+04</pdfrwt>
<totfact> 0.55739169E+00</totfact>
</mgrwt>
</event>
<event>
12    2  0.3518828E-008  0.1838743E+04  0.7818608E-02  0.8685963E-01
          2   -1    0    0  501    0  0.00000000000E+00  0.00000000000E+00  0.58909407046E+03  0.58909407046E+03  0.00000000000E+00 0. -1.
         -2   -1    0    0    0  501 -0.00000000000E+00 -0.00000000000E+00 -0.14348206289E+04  0.14348206289E+04  0.00000000000E+00 0.  1.
         23    2    1    2    0    0 -0.66363770236E+02  0.18440606119E+02  0.43833878858E+03  0.45199360901E+03  0.86099495085E+02 0.  0.
        254    2    1    2    0    0  0.66363770236E+02 -0.18440606119E+02 -0.12840653470E+04  0.15719210903E+04  0.90408400767E+03 0.  0.
         23    2    4    4    0    0  0.88378687280E+02  0.37588495001E+03 -0.26904455731E+03  0.47894315722E+03  0.88889178291E+02 0.  0.
         23    2    4    4    0    0 -0.22014917044E+02 -0.39432555613E+03 -0.10150207897E+04  0.10929779331E+04  0.91412570238E+02 0.  0.
          3    1    3    3  502    0 -0.21283667745E+02 -0.32761356300E+02  0.21305979612E+03  0.21661204422E+03  0.00000000000E+00 0. -1.
         -3    1    3    3    0  502 -0.45080102491E+02  0.51201962419E+02  0.22527899247E+03  0.23538156479E+03  0.00000000000E+00 0.  1.
         11    1    5    5    0    0  0.90466078627E+02  0.19526721096E+03 -0.15695166755E+03  0.26635919546E+03  0.00000000000E+00 0. -1.
        -11    1    5    5    0    0 -0.20873913471E+01  0.18061773905E+03 -0.11209288976E+03  0.21258396176E+03  0.00000000000E+00 0.  1.
          2    1    6    6  503    0  0.21053242261E+02 -0.33635255458E+02 -0.14098573726E+03  0.14646346825E+03  0.00000000000E+00 0. -1.
         -2    1    6    6    0  503 -0.43068159304E+02 -0.36069030067E+03 -0.87403505241E+03  0.94651446486E+03  0.00000000000E+00 0.  1.
<mgrwt>
<rscale>  0 0.18387434E+04</rscale>
<asrwt>0</asrwt>
<pdfrwt beam="1">  1        2 0.90629859E-01 0.18387434E+04</pdfrwt>
<pdfrwt beam="2">  1       -2 0.22074163E+00 0.18387434E+04</pdfrwt>
<totfact> 0.46630712E+00</totfact>
</mgrwt>
</event>
<event>
12    2  0.3518828E-008  0.1693620E+04  0.7818608E-02  0.8765011E-01
         -2   -1    0    0    0  501 -0.00000000000E+00  0.00000000000E+00  0.60674432067E+03  0.60674432067E+03  0.00000000000E+00 0.  1.
          2   -1    0    0  501    0  0.00000000000E+00 -0.00000000000E+00 -0.11818607392E+04  0.11818607392E+04  0.00000000000E+00 0. -1.
         23    2    1    2    0    0  0.39527540750E+03 -0.33502483745E+03 -0.53776413699E+03  0.75237862766E+03  0.91646292094E+02 0.  0.
        254    2    1    2    0    0 -0.39527540750E+03  0.33502483745E+03 -0.37352281544E+02  0.10362264322E+04  0.89659675240E+03 0.  0.
         23    2    4    4    0    0 -0.20939148181E+03 -0.19607173297E+03  0.25482087958E+03  0.39542403206E+03  0.95590623675E+02 0.  0.
         23    2    4    4    0    0 -0.18588392569E+03  0.53109657042E+03 -0.29217316113E+03  0.64080240016E+03  0.92984724685E+02 0.  0.
          2    1    3    3  502    0  0.32689239735E+03 -0.26744028426E+03 -0.48343849849E+03  0.64194682561E+03  0.00000000000E+00 0. -1.
         -2    1    3    3    0  502  0.68383010143E+02 -0.67584553192E+02 -0.54325638505E+02  0.11043180206E+03  0.00000000000E+00 0.  1.
         11    1    5    5    0    0 -0.21549043289E+03 -0.17590666597E+03  0.24955876149E+03  0.37370958944E+03  0.00000000000E+00 0. -1.
        -11    1    5    5    0    0  0.60989510859E+01 -0.20165067005E+02  0.52621180957E+01  0.21714442625E+02  0.00000000000E+00 0.  1.
          2    1    6    6  503    0 -0.13662869655E+03  0.36090789431E+03 -0.24623687880E+03  0.45777124132E+03  0.00000000000E+00 0. -1.
         -2    1    6    6    0  503 -0.49255229143E+02  0.17018867610E+03 -0.45936282333E+02  0.18303115884E+03  0.00000000000E+00 0.  1.
<mgrwt>
<rscale>  0 0.16936201E+04</rscale>
<asrwt>0</asrwt>
<pdfrwt beam="1">  1        2 0.18182473E+00 0.16936201E+04</pdfrwt>
<pdfrwt beam="2">  1       -2 0.93345280E-01 0.16936201E+04</pdfrwt>
<totfact> 0.17957263E+01</totfact>
</mgrwt>
</event>
<event>
12    2  0.3518828E-008  0.2495973E+04  0.7818608E-02  0.8404421E-01
         -2   -1    0    0    0  501 -0.00000000000E+00  0.00000000000E+00  0.80352800159E+03  0.80352800159E+03  0.00000000000E+00 0.  1.
          2   -1    0    0  501    0  0.00000000000E+00 -0.00000000000E+00 -0.19382903980E+04  0.19382903980E+04  0.00000000000E+00 0. -1.
         23    2    1    2    0    0  0.81603727358E+02 -0.62748878855E+03 -0.14634328125E+04  0.15969132568E+04  0.89972244413E+02 0.  0.
        254    2    1    2    0    0 -0.81603727358E+02  0.62748878855E+03  0.32867041610E+03  0.11449051429E+04  0.89575788897E+03 0.  0.
         23    2    4    4    0    0 -0.48132159036E+03  0.34288184618E+03  0.17487211456E+03  0.62321153706E+03  0.92595516613E+02 0.  0.
         23    2    4    4    0    0  0.39971786300E+03  0.28460694237E+03  0.15379830154E+03  0.52169360580E+03  0.87947820489E+02 0.  0.
          1    1    3    3  502    0  0.49168011682E+02 -0.46318154052E+03 -0.11656191990E+04  0.12552381248E+04  0.00000000000E+00 0.  1.
         -1    1    3    3    0  502  0.32435715676E+02 -0.16430724803E+03 -0.29781361357E+03  0.34167513201E+03  0.00000000000E+00 0. -1.
         11    1    5    5    0    0 -0.44252583522E+03  0.31575419820E+03  0.18602901741E+03  0.57457516814E+03  0.00000000000E+00 0. -1.
        -11    1    5    5    0    0 -0.38795755133E+02  0.27127647976E+02 -0.11156902850E+02  0.48636368925E+02  0.00000000000E+00 0.  1.
          4    1    6    6  503    0  0.28986581868E+03  0.19893016771E+03  0.67991394602E+02  0.35807573808E+03  0.00000000000E+00 0. -1.
         -4    1    6    6    0  503  0.10985204431E+03  0.85676774665E+02  0.85806906937E+02  0.16361786771E+03  0.00000000000E+00 0.  1.
<mgrwt>
<rscale>  0 0.24959732E+04</rscale>
<asrwt>0</asrwt>
<pdfrwt beam="1">  1        2 0.29819852E+00 0.24959732E+04</pdfrwt>
<pdfrwt beam="2">  1       -2 0.12361969E+00 0.24959732E+04</pdfrwt>
<totfact> 0.31805951E+00</totfact>
</mgrwt>
</event>
<event>
12    2  0.3518828E-008  0.1283164E+04  0.7818608E-02  0.9043024E-01
         -2   -1    0    0    0  501 -0.00000000000E+00  0.00000000000E+00  0.49121420480E+03  0.49121420480E+03  0.00000000000E+00 0.  1.
          2   -1    0    0  501    0  0.00000000000E+00 -0.00000000000E+00 -0.83797981630E+03  0.83797981630E+03  0.00000000000E+00 0. -1.
         23    2    1    2    0    0 -0.51451740773E+01  0.13569888685E+02 -0.41651894398E+03  0.42663800812E+03  0.91221404217E+02 0.  0.
        254    2    1    2    0    0  0.51451740773E+01 -0.13569888685E+02  0.69753332477E+02  0.90255601298E+03  0.89973952591E+03 0.  0.
         23    2    4    4    0    0  0.29046264368E+03 -0.22629182129E+03 -0.21678661013E+03  0.43679122631E+03  0.90628942902E+02 0.  0.
         23    2    4    4    0    0 -0.28531746961E+03  0.21272193260E+03  0.28653994261E+03  0.46576478667E+03  0.90415810115E+02 0.  0.
          2    1    3    3  502    0  0.21963502683E+01  0.33611856032E+02 -0.39463056314E+03  0.39606547714E+03  0.00000000000E+00 0. -1.
         -2    1    3    3    0  502 -0.73415243456E+01 -0.20041967347E+02 -0.21888380840E+02  0.30572530982E+02  0.00000000000E+00 0.  1.
         11    1    5    5    0    0  0.22981080324E+03 -0.20949021953E+03 -0.15078946512E+03  0.34559603608E+03  0.00000000000E+00 0. -1.
        -11    1    5    5    0    0  0.60651840446E+02 -0.16801601756E+02 -0.65997145012E+02  0.91195190228E+02  0.00000000000E+00 0.  1.
          3    1    6    6  503    0 -0.27314978807E+03  0.22169501922E+03  0.27816904993E+03  0.44848356560E+03  0.00000000000E+00 0. -1.
         -3    1    6    6    0  503 -0.12167681541E+02 -0.89730866225E+01  0.83708926780E+01  0.17281221075E+02  0.00000000000E+00 0.  1.
<mgrwt>
<rscale>  0 0.12831642E+04</rscale>
<asrwt>0</asrwt>
<pdfrwt beam="1">  1        2 0.12891997E+00 0.12831642E+04</pdfrwt>
<pdfrwt beam="2">  1       -2 0.75571417E-01 0.12831642E+04</pdfrwt>
<totfact> 0.49880826E+01</totfact>
</mgrwt>
</event>
<event>
12    2  0.3518828E-008  0.1689273E+04  0.7818608E-02  0.8767506E-01
          2   -1    0    0  501    0  0.00000000000E+00  0.00000000000E+00  0.87854310296E+03  0.87854310296E+03  0.00000000000E+00 0.  1.
         -2   -1    0    0    0  501 -0.00000000000E+00 -0.00000000000E+00 -0.81203890307E+03  0.81203890307E+03  0.00000000000E+00 0. -1.
         23    2    1    2    0    0  0.53937904541E+03  0.57805079176E+02 -0.21994236211E+03  0.59657472407E+03  0.11513286650E+03 0.  0.
        254    2    1    2    0    0 -0.53937904541E+03 -0.57805079176E+02  0.28644656200E+03  0.10940072820E+04  0.90583062340E+03 0.  0.
         23    2    4    4    0    0 -0.69390154424E+03  0.81066736890E+02  0.43206912614E+03  0.82629694295E+03  0.89508319417E+02 0.  0.
         23    2    4    4    0    0  0.15452249883E+03 -0.13887181607E+03 -0.14562256414E+03  0.26771033900E+03  0.85441854367E+02 0.  0.
          4    1    3    3  502    0  0.37780004030E+03 -0.13298690266E+01 -0.18636914220E+03  0.42126962408E+03  0.00000000000E+00 0. -1.
         -4    1    3    3    0  502  0.16157900510E+03  0.59134948203E+02 -0.33573219912E+02  0.17530510000E+03  0.00000000000E+00 0.  1.
         11    1    5    5    0    0 -0.11058187259E+02  0.82461500580E+01  0.23446986548E+02  0.27203743758E+02  0.00000000000E+00 0. -1.
        -11    1    5    5    0    0 -0.68284335698E+03  0.72820586832E+02  0.40862213959E+03  0.79909319920E+03  0.00000000000E+00 0.  1.
          3    1    6    6  503    0  0.88962861794E+02 -0.12643195679E+03 -0.12195778028E+03  0.19690893998E+03  0.00000000000E+00 0. -1.
         -3    1    6    6    0  503  0.65559637037E+02 -0.12439859281E+02 -0.23664783864E+02  0.70801399016E+02  0.00000000000E+00 0.  1.
<mgrwt>
<rscale>  0 0.16892734E+04</rscale>
<asrwt>0</asrwt>
<pdfrwt beam="1">  1        2 0.13516048E+00 0.16892734E+04</pdfrwt>
<pdfrwt beam="2">  1       -2 0.12492906E+00 0.16892734E+04</pdfrwt>
<totfact> 0.13866981E+01</totfact>
</mgrwt>
</event>
<event>
12    2  0.3518828E-008  0.1836213E+04  0.7818608E-02  0.8687275E-01
         -1   -1    0    0    0  501 -0.00000000000E+00  0.00000000000E+00  0.72080388338E+03  0.72080388338E+03  0.00000000000E+00 0.  1.
          1   -1    0    0  501    0  0.00000000000E+00 -0.00000000000E+00 -0.11694159645E+04  0.11694159645E+04  0.00000000000E+00 0. -1.
         23    2    1    2    0    0  0.43775058606E+03  0.52618812665E+03 -0.63901286239E+02  0.69363197774E+03  0.92425245112E+02 0.  0.
        254    2    1    2    0    0 -0.43775058606E+03 -0.52618812665E+03 -0.38471079493E+03  0.11965878702E+04  0.90295105910E+03 0.  0.
         23    2    4    4    0    0  0.18537850722E+03 -0.43857375449E+03 -0.25144465301E+03  0.54686888538E+03  0.95545984771E+02 0.  0.
         23    2    4    4    0    0 -0.62312909328E+03 -0.87614372159E+02 -0.13326614192E+03  0.64971898481E+03  0.91699234078E+02 0.  0.
          3    1    3    3  502    0 -0.15344554266E+01  0.19878112842E+02  0.22390734330E+01  0.20062586410E+02  0.00000000000E+00 0. -1.
         -3    1    3    3    0  502  0.43928504149E+03  0.50631001381E+03 -0.66140359672E+02  0.67356939133E+03  0.00000000000E+00 0.  1.
         11    1    5    5    0    0  0.15573223126E+03 -0.34706047954E+03 -0.24050978565E+03  0.45005384267E+03  0.00000000000E+00 0.  1.
        -11    1    5    5    0    0  0.29646275965E+02 -0.91513274951E+02 -0.10934867357E+02  0.96815042710E+02  0.00000000000E+00 0. -1.
          1    1    6    6  503    0 -0.16763517539E+03 -0.34179316024E+01 -0.71997453614E+02  0.18247429301E+03  0.00000000000E+00 0. -1.
         -1    1    6    6    0  503 -0.45549391789E+03 -0.84196440557E+02 -0.61268688306E+02  0.46724469179E+03  0.00000000000E+00 0.  1.
<mgrwt>
<rscale>  0 0.18362130E+04</rscale>
<asrwt>0</asrwt>
<pdfrwt beam="1">  1        1 0.17991015E+00 0.18362130E+04</pdfrwt>
<pdfrwt beam="2">  1       -1 0.11089291E+00 0.18362130E+04</pdfrwt>
<totfact> 0.79267155E+00</totfact>
</mgrwt>
</event>
<event>
12    2  0.3518828E-008  0.2808390E+04  0.7818608E-02  0.8300668E-01
         -1   -1    0    0    0  501 -0.00000000000E+00  0.00000000000E+00  0.57018537555E+03  0.57018537555E+03  0.00000000000E+00 0.  1.
          1   -1    0    0  501    0  0.00000000000E+00 -0.00000000000E+00 -0.34581101660E+04  0.34581101660E+04  0.00000000000E+00 0. -1.
         23    2    1    2    0    0  0.11892932876E+04  0.28277350216E+03 -0.88717612006E+03  0.15131767308E+04  0.90790820094E+02 0.  0.
        254    2    1    2    0    0 -0.11892932876E+04 -0.28277350216E+03 -0.20007486704E+04  0.25151188108E+04  0.91019119570E+03 0.  0.
         23    2    4    4    0    0 -0.88485675233E+03  0.22490179064E+03 -0.10859173645E+04  0.14216204943E+04  0.90752519503E+02 0.  0.
         23    2    4    4    0    0 -0.30443653531E+03 -0.50767529280E+03 -0.91483130593E+03  0.10934983165E+04  0.91686656010E+02 0.  0.
          1    1    3    3  502    0  0.92788946170E+03  0.24058957195E+03 -0.73361419932E+03  0.12070840852E+04  0.00000000000E+00 0. -1.
         -1    1    3    3    0  502  0.26140382593E+03  0.42183930207E+02 -0.15356192073E+03  0.30609264558E+03  0.00000000000E+00 0.  1.
         11    1    5    5    0    0 -0.42868154726E+03  0.77026703029E+02 -0.46567953804E+03  0.63761933321E+03  0.00000000000E+00 0. -1.
        -11    1    5    5    0    0 -0.45617520507E+03  0.14787508761E+03 -0.62023782643E+03  0.78400116110E+03  0.00000000000E+00 0.  1.
          4    1    6    6  503    0 -0.58116890872E+02 -0.10767718345E+03 -0.12778229683E+03  0.17691880687E+03  0.00000000000E+00 0. -1.
         -4    1    6    6    0  503 -0.24631964443E+03 -0.39999810935E+03 -0.78704900910E+03  0.91657950961E+03  0.00000000000E+00 0.  1.
<mgrwt>
<rscale>  0 0.28083902E+04</rscale>
<asrwt>0</asrwt>
<pdfrwt beam="1">  1        1 0.53201695E+00 0.28083902E+04</pdfrwt>
<pdfrwt beam="2">  1       -1 0.87720827E-01 0.28083902E+04</pdfrwt>
<totfact> 0.29795713E-01</totfact>
</mgrwt>
</event>
<event>
12    2  0.3518828E-008  0.1907603E+04  0.7818608E-02  0.8651081E-01
         -2   -1    0    0    0  501 -0.00000000000E+00  0.00000000000E+00  0.31747935607E+03  0.31747935607E+03  0.00000000000E+00 0.  1.
          2   -1    0    0  501    0  0.00000000000E+00 -0.00000000000E+00 -0.28655017173E+04  0.28655017173E+04  0.00000000000E+00 0. -1.
         23    2    1    2    0    0  0.11443778509E+03  0.71409289273E+03 -0.75441413234E+03  0.10491839447E+04  0.92852575286E+02 0.  0.
        254    2    1    2    0    0 -0.11443778509E+03 -0.71409289273E+03 -0.17936082289E+04  0.21337971287E+04  0.90168455751E+03 0.  0.
         23    2    4    4    0    0 -0.38813994703E+03 -0.52793473307E+03 -0.60456748771E+03  0.89621045985E+03  0.91233986464E+02 0.  0.
         23    2    4    4    0    0  0.27370216194E+03 -0.18615815967E+03 -0.11890407412E+04  0.12375866688E+04  0.90747697826E+02 0.  0.
          3    1    3    3  502    0  0.11751531277E+03  0.45561138026E+03 -0.49591539679E+03  0.68361075132E+03  0.00000000000E+00 0. -1.
         -3    1    3    3    0  502 -0.30775276842E+01  0.25848151247E+03 -0.25849873555E+03  0.36557319343E+03  0.00000000000E+00 0.  1.
         11    1    5    5    0    0 -0.23530040669E+03 -0.39116550544E+03 -0.41692858299E+03  0.61822825667E+03  0.00000000000E+00 0. -1.
        -11    1    5    5    0    0 -0.15283954034E+03 -0.13676922762E+03 -0.18763890472E+03  0.27798220317E+03  0.00000000000E+00 0.  1.
          3    1    6    6  503    0  0.23431368387E+03 -0.18927883315E+03 -0.10927558067E+04  0.11335098730E+04  0.00000000000E+00 0. -1.
         -3    1    6    6    0  503  0.39388478070E+02  0.31206734890E+01 -0.96284934504E+02  0.10407679578E+03  0.00000000000E+00 0.  1.
<mgrwt>
<rscale>  0 0.19076034E+04</rscale>
<asrwt>0</asrwt>
<pdfrwt beam="1">  1        2 0.44084639E+00 0.19076034E+04</pdfrwt>
<pdfrwt beam="2">  1       -2 0.48842981E-01 0.19076034E+04</pdfrwt>
<totfact> 0.78551019E+00</totfact>
</mgrwt>
</event>
<event>
12    2  0.3518828E-008  0.1334814E+04  0.7818608E-02  0.9002404E-01
         -2   -1    0    0    0  501 -0.00000000000E+00  0.00000000000E+00  0.10065700240E+03  0.10065700240E+03  0.00000000000E+00 0.  1.
          2   -1    0    0  501    0  0.00000000000E+00 -0.00000000000E+00 -0.44252446163E+04  0.44252446163E+04  0.00000000000E+00 0. -1.
         23    2    1    2    0    0 -0.36148502051E+03 -0.82016686775E+01 -0.13496307006E+04  0.14001825607E+04  0.90936724193E+02 0.  0.
        254    2    1    2    0    0  0.36148502051E+03  0.82016686775E+01 -0.29749569132E+04  0.31257190580E+04  0.88826364684E+03 0.  0.
         23    2    4    4    0    0  0.23535089298E+03  0.35235562130E+03 -0.23931157976E+04  0.24321269851E+04  0.93241217276E+02 0.  0.
         23    2    4    4    0    0  0.12613412752E+03 -0.34415395263E+03 -0.58184111569E+03  0.69359207284E+03  0.90438478361E+02 0.  0.
          4    1    3    3  502    0 -0.13448728926E+03 -0.65384443440E+01 -0.67758157696E+03  0.69083020755E+03  0.00000000000E+00 0. -1.
         -4    1    3    3    0  502 -0.22699773124E+03 -0.16632243335E+01 -0.67204912367E+03  0.70935235316E+03  0.00000000000E+00 0.  1.
         11    1    5    5    0    0  0.19670230828E+03  0.23882087477E+03 -0.15558868553E+04  0.15863515105E+04  0.00000000000E+00 0.  1.
        -11    1    5    5    0    0  0.38648584704E+02  0.11353474654E+03 -0.83722894223E+03  0.84577547463E+03  0.00000000000E+00 0. -1.
          1    1    6    6  503    0 -0.64009899794E+01 -0.80417323853E+01 -0.21102613014E+01  0.10492632426E+02  0.00000000000E+00 0. -1.
         -1    1    6    6    0  503  0.13253511750E+03 -0.33611222024E+03 -0.57973085439E+03  0.68309944042E+03  0.00000000000E+00 0.  1.
<mgrwt>
<rscale>  0 0.13348136E+04</rscale>
<asrwt>0</asrwt>
<pdfrwt beam="1">  1        2 0.68080667E+00 0.13348136E+04</pdfrwt>
<pdfrwt beam="2">  1       -2 0.15485697E-01 0.13348136E+04</pdfrwt>
<totfact> 0.49381983E+00</totfact>
</mgrwt>
</event>
<event>
12    2  0.3518828E-008  0.1443053E+04  0.7818608E-02  0.8923231E-01
          2   -1    0    0  501    0  0.00000000000E+00  0.00000000000E+00  0.11762357584E+04  0.11762357584E+04  0.00000000000E+00 0. -1.
         -2   -1    0    0    0  501 -0.00000000000E+00 -0.00000000000E+00 -0.44259876673E+03  0.44259876673E+03  0.00000000000E+00 0.  1.
         23    2    1    2    0    0 -0.17729559860E+03 -0.53380710378E+01 -0.22130672053E+03  0.29560620521E+03  0.83331504960E+02 0.  0.
        254    2    1    2    0    0  0.17729559860E+03  0.53380710378E+01  0.95494371223E+03  0.13232283199E+04  0.89863978817E+03 0.  0.
         23    2    4    4    0    0  0.27958378218E+03  0.35010460304E+03  0.79901516973E+03  0.92055617064E+03  0.90874075051E+02 0.  0.
         23    2    4    4    0    0 -0.10228818358E+03 -0.34476653200E+03  0.15592854250E+03  0.40267214930E+03  0.92218844944E+02 0.  0.
          1    1    3    3  502    0 -0.23795716981E+02 -0.28446785068E+02 -0.67872468901E+02  0.77344216086E+02  0.00000000000E+00 0. -1.
         -1    1    3    3    0  502 -0.15349988162E+03  0.23108714030E+02 -0.15343425163E+03  0.21826198912E+03  0.00000000000E+00 0.  1.
         11    1    5    5    0    0  0.24781699913E+03  0.34500417721E+03  0.73536714803E+03  0.84923847638E+03  0.00000000000E+00 0.  1.
        -11    1    5    5    0    0  0.31766783057E+02  0.51004258281E+01  0.63648021701E+02  0.71317694269E+02  0.00000000000E+00 0. -1.
          4    1    6    6  503    0 -0.57122930894E+02 -0.65442400544E+02  0.21913226480E+02  0.89587535504E+02  0.00000000000E+00 0. -1.
         -4    1    6    6    0  503 -0.45165252689E+02 -0.27932413146E+03  0.13401531602E+03  0.31308461379E+03  0.00000000000E+00 0.  1.
<mgrwt>
<rscale>  0 0.14430530E+04</rscale>
<asrwt>0</asrwt>
<pdfrwt beam="1">  1        2 0.18095935E+00 0.14430530E+04</pdfrwt>
<pdfrwt beam="2">  1       -2 0.68092118E-01 0.14430530E+04</pdfrwt>
<totfact> 0.37499854E+01</totfact>
</mgrwt>
</event>
<event>
12    2  0.3518828E-008  0.1217435E+04  0.7818608E-02  0.9097731E-01
          1   -1    0    0  501    0  0.00000000000E+00  0.00000000000E+00  0.13305334625E+04  0.13305334625E+04  0.00000000000E+00 0. -1.
         -1   -1    0    0    0  501 -0.00000000000E+00 -0.00000000000E+00 -0.27848744506E+03  0.27848744506E+03  0.00000000000E+00 0.  1.
         23    2    1    2    0    0 -0.35482683835E+02 -0.24367818421E+03  0.11379969381E+03  0.28574449267E+03  0.89785669624E+02 0.  0.
        254    2    1    2    0    0  0.35482683835E+02  0.24367818421E+03  0.93824632367E+03  0.13232764149E+04  0.90006456886E+03 0.  0.
         23    2    4    4    0    0 -0.50395240706E+02 -0.53405376816E+02  0.98924092393E+03  0.99688321776E+03  0.98927901579E+02 0.  0.
         23    2    4    4    0    0  0.85877924540E+02  0.29708356103E+03 -0.50994600265E+02  0.32639319717E+03  0.91095607730E+02 0.  0.
          4    1    3    3  502    0  0.12095993916E+02 -0.40693702133E+01 -0.54836860395E+01  0.13890415953E+02  0.00000000000E+00 0. -1.
         -4    1    3    3    0  502 -0.47578677751E+02 -0.23960881400E+03  0.11928337985E+03  0.27185407672E+03  0.00000000000E+00 0.  1.
         11    1    5    5    0    0 -0.60808819455E+02 -0.54664883005E+02  0.97835477513E+03  0.98176577042E+03  0.00000000000E+00 0.  1.
        -11    1    5    5    0    0  0.10413578749E+02  0.12595061887E+01  0.10886148803E+02  0.15117447336E+02  0.00000000000E+00 0. -1.
          3    1    6    6  503    0  0.30469947070E+02  0.10820474812E+03  0.25405608521E+02  0.11524812421E+03  0.00000000000E+00 0. -1.
         -3    1    6    6    0  503  0.55407977471E+02  0.18887881291E+03 -0.76400208785E+02  0.21114507296E+03  0.00000000000E+00 0.  1.
<mgrwt>
<rscale>  0 0.12174348E+04</rscale>
<asrwt>0</asrwt>
<pdfrwt beam="1">  1        1 0.20469745E+00 0.12174348E+04</pdfrwt>
<pdfrwt beam="2">  1       -1 0.42844223E-01 0.12174348E+04</pdfrwt>
<totfact> 0.45617964E+01</totfact>
</mgrwt>
</event>
<event>
12    2  0.3518828E-008  0.2521229E+04  0.7818608E-02  0.8395461E-01
         -1   -1    0    0    0  501 -0.00000000000E+00  0.00000000000E+00  0.10525679458E+04  0.10525679458E+04  0.00000000000E+00 0.  1.
          1   -1    0    0  501    0  0.00000000000E+00 -0.00000000000E+00 -0.15097827320E+04  0.15097827320E+04  0.00000000000E+00 0. -1.
         23    2    1    2    0    0  0.53863670437E+03  0.14519998946E+03  0.76234418081E+03  0.94902828552E+03  0.90958784472E+02 0.  0.
        254    2    1    2    0    0 -0.53863670437E+03 -0.14519998946E+03 -0.12195589670E+04  0.16133223923E+04  0.89681242810E+03 0.  0.
         23    2    4    4    0    0  0.12210244704E+03 -0.29366196364E+03 -0.62654446253E+03  0.70865933373E+03  0.92161441500E+02 0.  0.
         23    2    4    4    0    0 -0.66073915141E+03  0.14846197418E+03 -0.59301450452E+03  0.90466305857E+03  0.90176842906E+02 0.  0.
          1    1    3    3  502    0  0.82940638466E+02  0.49003858544E+02  0.95545989252E+02  0.13568184744E+03  0.00000000000E+00 0. -1.
         -1    1    3    3    0  502  0.45569606590E+03  0.96196130921E+02  0.66679819156E+03  0.81334643809E+03  0.00000000000E+00 0.  1.
         11    1    5    5    0    0  0.97573614657E+02 -0.28550832960E+03 -0.54285994386E+03  0.62107369547E+03  0.00000000000E+00 0. -1.
        -11    1    5    5    0    0  0.24528832386E+02 -0.81536340375E+01 -0.83684518668E+02  0.87585638268E+02  0.00000000000E+00 0.  1.
          2    1    6    6  503    0 -0.34850617580E+03  0.10072990868E+03 -0.36877419481E+03  0.51729824650E+03  0.00000000000E+00 0.  1.
         -2    1    6    6    0  503 -0.31223297561E+03  0.47732065495E+02 -0.22424030971E+03  0.38736481208E+03  0.00000000000E+00 0. -1.
<mgrwt>
<rscale>  0 0.25212290E+04</rscale>
<asrwt>0</asrwt>
<pdfrwt beam="1">  1        1 0.23227427E+00 0.25212290E+04</pdfrwt>
<pdfrwt beam="2">  1       -1 0.16193353E+00 0.25212290E+04</pdfrwt>
<totfact> 0.16138242E+00</totfact>
</mgrwt>
</event>
<event>
12    2  0.3518828E-008  0.2288790E+04  0.7818608E-02  0.8482354E-01
          1   -1    0    0  501    0  0.00000000000E+00  0.00000000000E+00  0.67465417150E+03  0.67465417150E+03  0.00000000000E+00 0. -1.
         -1   -1    0    0    0  501 -0.00000000000E+00 -0.00000000000E+00 -0.19412014353E+04  0.19412014353E+04  0.00000000000E+00 0.  1.
         23    2    1    2    0    0  0.32976896556E+02  0.82368749024E+03  0.33545289070E+02  0.83004435835E+03  0.91103200372E+02 0.  0.
        254    2    1    2    0    0 -0.32976896556E+02 -0.82368749024E+03 -0.13000925529E+04  0.17858112485E+04  0.90516993533E+03 0.  0.
         23    2    4    4    0    0  0.10243242125E+03 -0.93307371934E+03 -0.12783732958E+04  0.15882174251E+04  0.84126922953E+02 0.  0.
         23    2    4    4    0    0 -0.13540931781E+03  0.10938622910E+03 -0.21719257108E+02  0.19759382344E+03  0.90942632843E+02 0.  0.
          1    1    3    3  502    0  0.40580039162E+02  0.39883592532E+03 -0.22062196088E+02  0.40150165056E+03  0.00000000000E+00 0. -1.
         -1    1    3    3    0  502 -0.76031426066E+01  0.42485156493E+03  0.55607485158E+02  0.42854270779E+03  0.00000000000E+00 0.  1.
         11    1    5    5    0    0  0.88747731428E+02 -0.59136055423E+03 -0.75703874586E+03  0.96472334255E+03  0.00000000000E+00 0.  1.
        -11    1    5    5    0    0  0.13684689826E+02 -0.34171316511E+03 -0.52133454995E+03  0.62349408250E+03  0.00000000000E+00 0. -1.
          2    1    6    6  503    0 -0.30564232593E+02 -0.10524069268E+02  0.12533024444E+02  0.34669944471E+02  0.00000000000E+00 0. -1.
         -2    1    6    6    0  503 -0.10484508522E+03  0.11991029836E+03 -0.34252281552E+02  0.16292387897E+03  0.00000000000E+00 0.  1.
<mgrwt>
<rscale>  0 0.22887898E+04</rscale>
<asrwt>0</asrwt>
<pdfrwt beam="1">  1        1 0.10379295E+00 0.22887898E+04</pdfrwt>
<pdfrwt beam="2">  1       -1 0.29864637E+00 0.22887898E+04</pdfrwt>
<totfact> 0.87858050E-01</totfact>
</mgrwt>
</event>
<event>
12    2  0.3518828E-008  0.2344726E+04  0.7818608E-02  0.8460492E-01
          1   -1    0    0  501    0  0.00000000000E+00  0.00000000000E+00  0.14721039037E+04  0.14721039037E+04  0.00000000000E+00 0. -1.
         -1   -1    0    0    0  501 -0.00000000000E+00 -0.00000000000E+00 -0.93365336386E+03  0.93365336386E+03  0.00000000000E+00 0.  1.
         23    2    1    2    0    0 -0.25055272050E+03  0.33860508880E+03 -0.70367463118E+03  0.82520082904E+03  0.91478684700E+02 0.  0.
        254    2    1    2    0    0  0.25055272050E+03 -0.33860508880E+03  0.12421251710E+04  0.15805564385E+04  0.88196011415E+03 0.  0.
         23    2    4    4    0    0  0.17088015264E+03  0.20170485688E+03  0.75911998825E+02  0.28952030852E+03  0.90412950519E+02 0.  0.
         23    2    4    4    0    0  0.79672567855E+02 -0.54030994569E+03  0.11662131722E+04  0.12910361300E+04  0.91861692183E+02 0.  0.
          4    1    3    3  502    0 -0.97263587167E+02  0.19437802906E+03 -0.30711513442E+03  0.37624822838E+03  0.00000000000E+00 0. -1.
         -4    1    3    3    0  502 -0.15328913333E+03  0.14422705974E+03 -0.39655949676E+03  0.44895260065E+03  0.00000000000E+00 0.  1.
         11    1    5    5    0    0  0.16108738088E+03  0.20752813602E+03  0.59207360931E+02  0.26930017286E+03  0.00000000000E+00 0.  1.
        -11    1    5    5    0    0  0.97927717659E+01 -0.58232791326E+01  0.16704637895E+02  0.20220135655E+02  0.00000000000E+00 0. -1.
          3    1    6    6  503    0  0.67010991504E+02 -0.37264611910E+03  0.89692321047E+03  0.97356399304E+03  0.00000000000E+00 0. -1.
         -3    1    6    6    0  503  0.12661576352E+02 -0.16766382659E+03  0.26928996172E+03  0.31747213696E+03  0.00000000000E+00 0.  1.
<mgrwt>
<rscale>  0 0.23447258E+04</rscale>
<asrwt>0</asrwt>
<pdfrwt beam="1">  1        1 0.22647752E+00 0.23447258E+04</pdfrwt>
<pdfrwt beam="2">  1       -1 0.14363898E+00 0.23447258E+04</pdfrwt>
<totfact> 0.24130145E+00</totfact>
</mgrwt>
</event>
<event>
12    2  0.3518828E-008  0.1708066E+04  0.7818608E-02  0.8756778E-01
         -3   -1    0    0    0  501 -0.00000000000E+00  0.00000000000E+00  0.74474859455E+03  0.74474859455E+03  0.00000000000E+00 0.  1.
          3   -1    0    0  501    0  0.00000000000E+00 -0.00000000000E+00 -0.97935323642E+03  0.97935323642E+03  0.00000000000E+00 0. -1.
         23    2    1    2    0    0  0.21422402362E+02  0.45610776571E+03  0.32515218047E+03  0.56789255350E+03  0.91020868948E+02 0.  0.
        254    2    1    2    0    0 -0.21422402362E+02 -0.45610776571E+03 -0.55975682234E+03  0.11562092775E+04  0.90277293927E+03 0.  0.
         23    2    4    4    0    0 -0.23156031056E+02 -0.70799106900E+03 -0.52465158538E+03  0.88623758851E+03  0.91488915720E+02 0.  0.
         23    2    4    4    0    0  0.17336286945E+01  0.25188330329E+03 -0.35105236965E+02  0.26997168896E+03  0.90576659423E+02 0.  0.
          4    1    3    3  502    0  0.15261387197E+02  0.11714722660E+02  0.25211979447E+02  0.31714169921E+02  0.00000000000E+00 0. -1.
         -4    1    3    3    0  502  0.61610151652E+01  0.44439304305E+03  0.29994020102E+03  0.53617838358E+03  0.00000000000E+00 0.  1.
         11    1    5    5    0    0 -0.68851564250E+01 -0.36858968801E+03 -0.21649087625E+03  0.42752083339E+03  0.00000000000E+00 0.  1.
        -11    1    5    5    0    0 -0.16270874631E+02 -0.33940138099E+03 -0.30816070913E+03  0.45871675513E+03  0.00000000000E+00 0. -1.
          3    1    6    6  503    0  0.12296390052E+02  0.19482115233E+03  0.11492995532E+02  0.19554685257E+03  0.00000000000E+00 0. -1.
         -3    1    6    6    0  503 -0.10562761358E+02  0.57062150956E+02 -0.46598232497E+02  0.74424836386E+02  0.00000000000E+00 0.  1.
<mgrwt>
<rscale>  0 0.17080655E+04</rscale>
<asrwt>0</asrwt>
<pdfrwt beam="1">  1        3 0.15066973E+00 0.17080655E+04</pdfrwt>
<pdfrwt beam="2">  1       -3 0.11457671E+00 0.17080655E+04</pdfrwt>
<totfact> 0.50333555E-01</totfact>
</mgrwt>
</event>
<event>
12    2  0.3518828E-008  0.1074290E+04  0.7818608E-02  0.9230619E-01
          1   -1    0    0  501    0  0.00000000000E+00  0.00000000000E+00  0.87071351181E+03  0.87071351181E+03  0.00000000000E+00 0. -1.
         -1   -1    0    0    0  501 -0.00000000000E+00 -0.00000000000E+00 -0.33136609363E+03  0.33136609363E+03  0.00000000000E+00 0.  1.
         23    2    1    2    0    0  0.10150614711E+01  0.10844481243E+03  0.16210248219E+03  0.21816964917E+03  0.97772559516E+02 0.  0.
        254    2    1    2    0    0 -0.10150614711E+01 -0.10844481243E+03  0.37724493599E+03  0.98390995627E+03  0.90222156516E+03 0.  0.
         23    2    4    4    0    0 -0.38631115198E+03  0.43242396783E+02 -0.22076167734E+02  0.40116349823E+03  0.96636349800E+02 0.  0.
         23    2    4    4    0    0  0.38529609051E+03 -0.15168720921E+03  0.39932110372E+03  0.58274645805E+03  0.93134331422E+02 0.  0.
          3    1    3    3  502    0  0.26278152903E+02  0.10544549751E+03  0.15893209972E+03  0.19253235205E+03  0.00000000000E+00 0. -1.
         -3    1    3    3    0  502 -0.25263091432E+02  0.29993149168E+01  0.31703824758E+01  0.25637297122E+02  0.00000000000E+00 0.  1.
         11    1    5    5    0    0 -0.21472161465E+03 -0.24343709669E+02 -0.91522196732E+01  0.21629089468E+03  0.00000000000E+00 0.  1.
        -11    1    5    5    0    0 -0.17158953733E+03  0.67586106452E+02 -0.12923948061E+02  0.18487260354E+03  0.00000000000E+00 0. -1.
          1    1    6    6  503    0  0.77349377301E+02 -0.72851351481E+02  0.90823364167E+02  0.13978243473E+03  0.00000000000E+00 0. -1.
         -1    1    6    6    0  503  0.30794671321E+03 -0.78835857728E+02  0.30849773955E+03  0.44296402331E+03  0.00000000000E+00 0.  1.
<mgrwt>
<rscale>  0 0.10742903E+04</rscale>
<asrwt>0</asrwt>
<pdfrwt beam="1">  1        1 0.13395592E+00 0.10742903E+04</pdfrwt>
<pdfrwt beam="2">  1       -1 0.50979399E-01 0.10742903E+04</pdfrwt>
<totfact> 0.74260964E+01</totfact>
</mgrwt>
</event>
<event>
12    2  0.3518828E-008  0.2420068E+04  0.7818608E-02  0.8432029E-01
          1   -1    0    0  501    0  0.00000000000E+00  0.00000000000E+00  0.11092725718E+04  0.11092725718E+04  0.00000000000E+00 0. -1.
         -1   -1    0    0    0  501 -0.00000000000E+00 -0.00000000000E+00 -0.13199476664E+04  0.13199476664E+04  0.00000000000E+00 0.  1.
         23    2    1    2    0    0  0.63924927077E+03 -0.59788137036E+03 -0.64928252205E+03  0.10937811666E+04  0.93207745460E+02 0.  0.
        254    2    1    2    0    0 -0.63924927077E+03  0.59788137036E+03  0.43860742745E+03  0.13354390716E+04  0.90825066769E+03 0.  0.
         23    2    4    4    0    0  0.40697239069E+02 -0.17803661256E+03  0.16812889395E+03  0.26489108504E+03  0.92448154503E+02 0.  0.
         23    2    4    4    0    0 -0.67994650984E+03  0.77591798293E+03  0.27047853350E+03  0.10705479866E+04  0.92403365754E+02 0.  0.
          2    1    3    3  502    0  0.13369804419E+03 -0.99681414985E+02 -0.85914761901E+02  0.18759770208E+03  0.00000000000E+00 0. -1.
         -2    1    3    3    0  502  0.50555122658E+03 -0.49819995538E+03 -0.56336776015E+03  0.90618346454E+03  0.00000000000E+00 0.  1.
         11    1    5    5    0    0  0.30070909352E+02 -0.18130848004E+03  0.17332032310E+03  0.25262018708E+03  0.00000000000E+00 0. -1.
        -11    1    5    5    0    0  0.10626329717E+02  0.32718674728E+01 -0.51914291501E+01  0.12270897955E+02  0.00000000000E+00 0.  1.
          4    1    6    6  503    0 -0.48023349320E+03  0.60251972838E+03  0.18243034202E+03  0.79179230911E+03  0.00000000000E+00 0. -1.
         -4    1    6    6    0  503 -0.19971301664E+03  0.17339825455E+03  0.88048191479E+02  0.27875567746E+03  0.00000000000E+00 0.  1.
<mgrwt>
<rscale>  0 0.24200676E+04</rscale>
<asrwt>0</asrwt>
<pdfrwt beam="1">  1        1 0.17065732E+00 0.24200676E+04</pdfrwt>
<pdfrwt beam="2">  1       -1 0.20306887E+00 0.24200676E+04</pdfrwt>
<totfact> 0.16000188E+00</totfact>
</mgrwt>
</event>
<event>
12    2  0.3518828E-008  0.2410896E+04  0.7818608E-02  0.8435436E-01
          2   -1    0    0  501    0  0.00000000000E+00  0.00000000000E+00  0.37329177527E+04  0.37329177527E+04  0.00000000000E+00 0. -1.
         -2   -1    0    0    0  501 -0.00000000000E+00 -0.00000000000E+00 -0.38926784170E+03  0.38926784170E+03  0.00000000000E+00 0.  1.
         23    2    1    2    0    0 -0.46715776789E+03  0.92181661659E+02  0.29847608906E+04  0.30238141907E+04  0.88999138789E+02 0.  0.
        254    2    1    2    0    0  0.46715776789E+03 -0.92181661659E+02  0.35888902043E+03  0.10983714038E+04  0.92243404793E+03 0.  0.
         23    2    4    4    0    0 -0.10507977423E+03 -0.36443155784E+03  0.20358028333E+03  0.43982263850E+03  0.90260192055E+02 0.  0.
         23    2    4    4    0    0  0.57223754212E+03  0.27224989618E+03  0.15530873710E+03  0.65854876528E+03  0.89386027114E+02 0.  0.
          2    1    3    3  502    0 -0.46191231278E+03  0.77192488395E+02  0.29016687451E+04  0.29392181225E+04  0.00000000000E+00 0. -1.
         -2    1    3    3    0  502 -0.52454551120E+01  0.14989173264E+02  0.83092145477E+02  0.84596068197E+02  0.00000000000E+00 0.  1.
         11    1    5    5    0    0 -0.83775680850E+02 -0.16186426442E+03  0.65166113798E+02  0.19355884683E+03  0.00000000000E+00 0. -1.
        -11    1    5    5    0    0 -0.21304093376E+02 -0.20256729342E+03  0.13841416953E+03  0.24626379167E+03  0.00000000000E+00 0.  1.
          4    1    6    6  503    0  0.15296921617E+03  0.74586088959E+02  0.15688093624E+01  0.17019144199E+03  0.00000000000E+00 0. -1.
         -4    1    6    6    0  503  0.41926832594E+03  0.19766380722E+03  0.15373992774E+03  0.48835732329E+03  0.00000000000E+00 0.  1.
<mgrwt>
<rscale>  0 0.24108960E+04</rscale>
<asrwt>0</asrwt>
<pdfrwt beam="1">  1        2 0.57429501E+00 0.24108960E+04</pdfrwt>
<pdfrwt beam="2">  1       -2 0.59887363E-01 0.24108960E+04</pdfrwt>
<totfact> 0.12927696E+00</totfact>
</mgrwt>
</event>
<event>
12    2  0.3518828E-008  0.2765080E+04  0.7818608E-02  0.8314192E-01
         -2   -1    0    0    0  501 -0.00000000000E+00  0.00000000000E+00  0.70164856642E+03  0.70164856642E+03  0.00000000000E+00 0.  1.
          2   -1    0    0  501    0  0.00000000000E+00 -0.00000000000E+00 -0.27241804203E+04  0.27241804203E+04  0.00000000000E+00 0. -1.
         23    2    1    2    0    0  0.55078954938E+03 -0.99519913939E+03 -0.15071122376E+04  0.18903862955E+04  0.91556510849E+02 0.  0.
        254    2    1    2    0    0 -0.55078954938E+03  0.99519913939E+03 -0.51541961629E+03  0.15354426912E+04  0.89338481209E+03 0.  0.
         23    2    4    4    0    0 -0.44832577613E+02  0.25043672744E+03 -0.56710203445E+03  0.62864004492E+03  0.94101403431E+02 0.  0.
         23    2    4    4    0    0 -0.50595697176E+03  0.74476241195E+03  0.51682418159E+02  0.90680264632E+03  0.94638572981E+02 0.  0.
          2    1    3    3  502    0  0.20572786991E+03 -0.37920985376E+03 -0.64614229562E+03  0.77693238821E+03  0.00000000000E+00 0. -1.
         -2    1    3    3    0  502  0.34506167946E+03 -0.61598928563E+03 -0.86096994197E+03  0.11134539073E+04  0.00000000000E+00 0.  1.
         11    1    5    5    0    0 -0.23998657596E+02  0.14426202099E+03 -0.42873331404E+03  0.45298975797E+03  0.00000000000E+00 0.  1.
        -11    1    5    5    0    0 -0.20833920017E+02  0.10617470645E+03 -0.13836872042E+03  0.17565028694E+03  0.00000000000E+00 0. -1.
          3    1    6    6  503    0 -0.72749373693E+02  0.56725575282E+02  0.34692935110E+01  0.92316294668E+02  0.00000000000E+00 0. -1.
         -3    1    6    6    0  503 -0.43320759807E+03  0.68803683667E+03  0.48213124648E+02  0.81448635165E+03  0.00000000000E+00 0.  1.
<mgrwt>
<rscale>  0 0.27650803E+04</rscale>
<asrwt>0</asrwt>
<pdfrwt beam="1">  1        2 0.41910468E+00 0.27650803E+04</pdfrwt>
<pdfrwt beam="2">  1       -2 0.10794593E+00 0.27650803E+04</pdfrwt>
<totfact> 0.15409255E+00</totfact>
</mgrwt>
</event>
<event>
12    2  0.3518828E-008  0.3591316E+04  0.7818608E-02  0.8092484E-01
         -1   -1    0    0    0  501 -0.00000000000E+00  0.00000000000E+00  0.13782479049E+04  0.13782479049E+04  0.00000000000E+00 0.  1.
          1   -1    0    0  501    0  0.00000000000E+00 -0.00000000000E+00 -0.23394834005E+04  0.23394834005E+04  0.00000000000E+00 0. -1.
         23    2    1    2    0    0  0.35820515777E+03  0.10075129973E+03  0.12443348591E+04  0.13020160800E+04  0.91732608350E+02 0.  0.
        254    2    1    2    0    0 -0.35820515777E+03 -0.10075129973E+03 -0.22055703547E+04  0.24157152255E+04  0.91251175439E+03 0.  0.
         23    2    4    4    0    0 -0.16047721672E+03 -0.30122456456E+03 -0.20521228109E+04  0.20824728558E+04  0.94847186745E+02 0.  0.
         23    2    4    4    0    0 -0.19772794105E+03  0.20047326483E+03 -0.15344754375E+03  0.33324236967E+03  0.90655720587E+02 0.  0.
          2    1    3    3  502    0  0.81123853108E+02 -0.70007087025E+01  0.35826456086E+03  0.36740112279E+03  0.00000000000E+00 0. -1.
         -2    1    3    3    0  502  0.27708130466E+03  0.10775200843E+03  0.88607029825E+03  0.93461495716E+03  0.00000000000E+00 0.  1.
         11    1    5    5    0    0 -0.14229710619E+03 -0.25663380613E+03 -0.19100838580E+04  0.19324931362E+04  0.00000000000E+00 0.  1.
        -11    1    5    5    0    0 -0.18180110532E+02 -0.44590758428E+02 -0.14203895294E+03  0.14997971966E+03  0.00000000000E+00 0. -1.
          2    1    6    6  503    0 -0.77463939559E+02  0.11569044762E+03 -0.33001119457E+02  0.14308744001E+03  0.00000000000E+00 0.  1.
         -2    1    6    6    0  503 -0.12026400149E+03  0.84782817209E+02 -0.12044642429E+03  0.19015492966E+03  0.00000000000E+00 0. -1.
<mgrwt>
<rscale>  0 0.35913162E+04</rscale>
<asrwt>0</asrwt>
<pdfrwt beam="1">  1        1 0.35992052E+00 0.35913162E+04</pdfrwt>
<pdfrwt beam="2">  1       -1 0.21203814E+00 0.35913162E+04</pdfrwt>
<totfact> 0.17629861E-01</totfact>
</mgrwt>
</event>
<event>
12    2  0.3518828E-008  0.1945417E+04  0.7818608E-02  0.8632574E-01
          2   -1    0    0  501    0  0.00000000000E+00  0.00000000000E+00  0.22096960762E+04  0.22096960762E+04  0.00000000000E+00 0. -1.
         -2   -1    0    0    0  501 -0.00000000000E+00 -0.00000000000E+00 -0.42818651215E+03  0.42818651215E+03  0.00000000000E+00 0.  1.
         23    2    1    2    0    0 -0.99378368588E+02  0.71579795667E+03  0.35610846849E+03  0.81070407713E+03  0.90471456451E+02 0.  0.
        254    2    1    2    0    0  0.99378368588E+02 -0.71579795667E+03  0.14254010955E+04  0.18271785112E+04  0.88575970425E+03 0.  0.
         23    2    4    4    0    0  0.12305716578E+03 -0.42747063513E+03  0.14529232451E+04  0.15222668055E+04  0.91848031637E+02 0.  0.
         23    2    4    4    0    0 -0.23678797192E+02 -0.28832732154E+03 -0.27522149576E+02  0.30491170571E+03  0.92305740780E+02 0.  0.
          4    1    3    3  502    0 -0.10531399839E+02  0.26364777972E+03  0.16917042082E+03  0.31343211931E+03  0.00000000000E+00 0. -1.
         -4    1    3    3    0  502 -0.88846968749E+02  0.45215017695E+03  0.18693804767E+03  0.49727195783E+03  0.00000000000E+00 0.  1.
         11    1    5    5    0    0  0.35115551745E+02 -0.25778778831E+03  0.92146438886E+03  0.95748851988E+03  0.00000000000E+00 0. -1.
        -11    1    5    5    0    0  0.87941614034E+02 -0.16968284682E+03  0.53145885624E+03  0.56477828558E+03  0.00000000000E+00 0.  1.
          3    1    6    6  503    0  0.31635343539E+02 -0.16697765358E+03 -0.22754935244E+02  0.17146462852E+03  0.00000000000E+00 0. -1.
         -3    1    6    6    0  503 -0.55314140731E+02 -0.12134966797E+03 -0.47672143320E+01  0.13344707720E+03  0.00000000000E+00 0.  1.
<mgrwt>
<rscale>  0 0.19454172E+04</rscale>
<asrwt>0</asrwt>
<pdfrwt beam="1">  1        2 0.33995324E+00 0.19454172E+04</pdfrwt>
<pdfrwt beam="2">  1       -2 0.65874849E-01 0.19454172E+04</pdfrwt>
<totfact> 0.10094276E+01</totfact>
</mgrwt>
</event>
<event>
12    2  0.3518828E-008  0.1425118E+04  0.7818608E-02  0.8935835E-01
         -1   -1    0    0    0  501 -0.00000000000E+00  0.00000000000E+00  0.79658133929E+03  0.79658133929E+03  0.00000000000E+00 0.  1.
          1   -1    0    0  501    0  0.00000000000E+00 -0.00000000000E+00 -0.63739953070E+03  0.63739953070E+03  0.00000000000E+00 0. -1.
         23    2    1    2    0    0 -0.63692069104E+02 -0.15605593106E+03 -0.31753601499E+03  0.37121886705E+03  0.92542926016E+02 0.  0.
        254    2    1    2    0    0  0.63692069104E+02  0.15605593106E+03  0.47671782358E+03  0.10627620029E+04  0.93476898658E+03 0.  0.
         23    2    4    4    0    0 -0.32830255240E+03 -0.33706314917E+02 -0.78172256191E+02  0.35143749733E+03  0.92080026704E+02 0.  0.
         23    2    4    4    0    0  0.39199462150E+03  0.18976224598E+03  0.55489007977E+03  0.71132450560E+03  0.91706370323E+02 0.  0.
          1    1    3    3  502    0 -0.75567746846E+02 -0.14229870475E+03 -0.31368136757E+03  0.35264061890E+03  0.00000000000E+00 0. -1.
         -1    1    3    3    0  502  0.11875677742E+02 -0.13757226316E+02 -0.38546474144E+01  0.18578248153E+02  0.00000000000E+00 0.  1.
         11    1    5    5    0    0 -0.63448695915E+02 -0.81014487879E+01  0.21219855711E+02  0.67391785569E+02  0.00000000000E+00 0.  1.
        -11    1    5    5    0    0 -0.26485385648E+03 -0.25604866129E+02 -0.99392111902E+02  0.28404571176E+03  0.00000000000E+00 0. -1.
          3    1    6    6  503    0  0.20540005290E+03  0.84853605542E+02  0.35264700145E+03  0.41683236887E+03  0.00000000000E+00 0. -1.
         -3    1    6    6    0  503  0.18659456860E+03  0.10490864044E+03  0.20224307832E+03  0.29449213673E+03  0.00000000000E+00 0.  1.
<mgrwt>
<rscale>  0 0.14251183E+04</rscale>
<asrwt>0</asrwt>
<pdfrwt beam="1">  1        1 0.98061466E-01 0.14251183E+04</pdfrwt>
<pdfrwt beam="2">  1       -1 0.12255098E+00 0.14251183E+04</pdfrwt>
<totfact> 0.17939870E+01</totfact>
</mgrwt>
</event>
<event>
12    2  0.3518828E-008  0.2050019E+04  0.7818608E-02  0.8583586E-01
          1   -1    0    0  501    0  0.00000000000E+00  0.00000000000E+00  0.12025654882E+04  0.12025654882E+04  0.00000000000E+00 0. -1.
         -1   -1    0    0    0  501 -0.00000000000E+00 -0.00000000000E+00 -0.87366954745E+03  0.87366954745E+03  0.00000000000E+00 0.  1.
         23    2    1    2    0    0 -0.50979482074E+03 -0.38503850405E+03  0.65735169351E+03  0.92115664986E+03  0.90955570237E+02 0.  0.
        254    2    1    2    0    0  0.50979482074E+03  0.38503850405E+03 -0.32845575278E+03  0.11550783858E+04  0.90453163951E+03 0.  0.
         23    2    4    4    0    0 -0.33078553791E+01  0.48249583775E+03 -0.38229652373E+03  0.62226409788E+03  0.90822905127E+02 0.  0.
         23    2    4    4    0    0  0.51310267612E+03 -0.97457333701E+02  0.53840770944E+02  0.53281428789E+03  0.90663932363E+02 0.  0.
          4    1    3    3  502    0 -0.46997744139E+03 -0.31887523384E+03  0.57232235156E+03  0.80629590366E+03  0.00000000000E+00 0. -1.
         -4    1    3    3    0  502 -0.39817379356E+02 -0.66163270209E+02  0.85029341952E+02  0.11486074619E+03  0.00000000000E+00 0.  1.
         11    1    5    5    0    0 -0.26858135127E+02  0.69257179661E+02 -0.83589847412E+02  0.11182655743E+03  0.00000000000E+00 0. -1.
        -11    1    5    5    0    0  0.23550279748E+02  0.41323865809E+03 -0.29870667632E+03  0.51043754044E+03  0.00000000000E+00 0.  1.
          2    1    6    6  503    0  0.42904733266E+02 -0.21782398788E+02 -0.17603802966E+02  0.51236538842E+02  0.00000000000E+00 0. -1.
         -2    1    6    6    0  503  0.47019794286E+03 -0.75674934913E+02  0.71444573910E+02  0.48157774905E+03  0.00000000000E+00 0.  1.
<mgrwt>
<rscale>  0 0.20500194E+04</rscale>
<asrwt>0</asrwt>
<pdfrwt beam="1">  1        1 0.18501007E+00 0.20500194E+04</pdfrwt>
<pdfrwt beam="2">  1       -1 0.13441070E+00 0.20500194E+04</pdfrwt>
<totfact> 0.45783828E+00</totfact>
</mgrwt>
</event>
<event>
12    2  0.3518828E-008  0.1850751E+04  0.7818608E-02  0.8679767E-01
         -2   -1    0    0    0  501 -0.00000000000E+00  0.00000000000E+00  0.17184483597E+03  0.17184483597E+03  0.00000000000E+00 0.  1.
          2   -1    0    0  501    0  0.00000000000E+00 -0.00000000000E+00 -0.49830983430E+04  0.49830983430E+04  0.00000000000E+00 0. -1.
         23    2    1    2    0    0  0.34530712262E+03  0.43031789723E+03 -0.30935983933E+04  0.31437003368E+04  0.89946024470E+02 0.  0.
        254    2    1    2    0    0 -0.34530712262E+03 -0.43031789723E+03 -0.17176551137E+04  0.20112428421E+04  0.88901528594E+03 0.  0.
         23    2    4    4    0    0  0.12918237806E+03  0.18010487433E+03 -0.23508646700E+03  0.33679330066E+03  0.95069594721E+02 0.  0.
         23    2    4    4    0    0 -0.47448950067E+03 -0.61042277156E+03 -0.14825686467E+04  0.16744495415E+04  0.89527807647E+02 0.  0.
          3    1    3    3  502    0  0.15585319674E+03  0.26508670957E+03 -0.16689552842E+04  0.16970482973E+04  0.00000000000E+00 0. -1.
         -3    1    3    3    0  502  0.18945392588E+03  0.16523118767E+03 -0.14246431090E+04  0.14466520395E+04  0.00000000000E+00 0.  1.
         11    1    5    5    0    0  0.12148933101E+03  0.16624276878E+03 -0.24346664248E+03  0.31886097554E+03  0.00000000000E+00 0. -1.
        -11    1    5    5    0    0  0.76930470434E+01  0.13862105552E+02  0.83801754748E+01  0.17932325118E+02  0.00000000000E+00 0.  1.
          1    1    6    6  503    0 -0.39700246595E+03 -0.53161383527E+03 -0.12032127217E+04  0.13740251386E+04  0.00000000000E+00 0. -1.
         -1    1    6    6    0  503 -0.77487034726E+02 -0.78808936295E+02 -0.27935592505E+03  0.30042440289E+03  0.00000000000E+00 0.  1.
<mgrwt>
<rscale>  0 0.18507509E+04</rscale>
<asrwt>0</asrwt>
<pdfrwt beam="1">  1        2 0.76663044E+00 0.18507509E+04</pdfrwt>
<pdfrwt beam="2">  1       -2 0.26437670E-01 0.18507509E+04</pdfrwt>
<totfact> 0.45299119E-01</totfact>
</mgrwt>
</event>
<event>
12    2  0.3518828E-008  0.1836498E+04  0.7818608E-02  0.8687128E-01
          2   -1    0    0  501    0  0.00000000000E+00  0.00000000000E+00  0.25794278247E+04  0.25794278247E+04  0.00000000000E+00 0. -1.
         -2   -1    0    0    0  501 -0.00000000000E+00 -0.00000000000E+00 -0.32688677514E+03  0.32688677514E+03  0.00000000000E+00 0.  1.
         23    2    1    2    0    0 -0.23848154688E+03  0.57701216441E+03  0.37594366791E+03  0.73439835134E+03  0.90503098988E+02 0.  0.
        254    2    1    2    0    0  0.23848154688E+03 -0.57701216441E+03  0.18765973816E+04  0.21719162485E+04  0.89765582021E+03 0.  0.
         23    2    4    4    0    0  0.43907215750E+03  0.16209077249E+02  0.93562911155E+03  0.10378855549E+04  0.93581499218E+02 0.  0.
         23    2    4    4    0    0 -0.20059061063E+03 -0.59322124166E+03  0.94096827006E+03  0.11340306936E+04  0.91958110325E+02 0.  0.
          4    1    3    3  502    0 -0.23986140096E+03  0.54493933310E+03  0.33780391526E+03  0.68454645832E+03  0.00000000000E+00 0.  1.
         -4    1    3    3    0  502  0.13798540808E+01  0.32072831308E+02  0.38139752647E+02  0.49851893017E+02  0.00000000000E+00 0. -1.
         11    1    5    5    0    0  0.19816416854E+03 -0.32065193887E+02  0.36385409507E+03  0.41555627399E+03  0.00000000000E+00 0. -1.
        -11    1    5    5    0    0  0.24090798896E+03  0.48274271136E+02  0.57177501648E+03  0.62232928090E+03  0.00000000000E+00 0.  1.
          1    1    6    6  503    0 -0.45984420032E+02 -0.24170346576E+03  0.42110693859E+03  0.48771527142E+03  0.00000000000E+00 0. -1.
         -1    1    6    6    0  503 -0.15460619059E+03 -0.35151777590E+03  0.51986133146E+03  0.64631542214E+03  0.00000000000E+00 0.  1.
<mgrwt>
<rscale>  0 0.18364976E+04</rscale>
<asrwt>0</asrwt>
<pdfrwt beam="1">  1        2 0.39683504E+00 0.18364976E+04</pdfrwt>
<pdfrwt beam="2">  1       -2 0.50290275E-01 0.18364976E+04</pdfrwt>
<totfact> 0.11029672E+01</totfact>
</mgrwt>
</event>
<event>
12    2  0.3518828E-008  0.3058408E+04  0.7818608E-02  0.8227246E-01
          2   -1    0    0  501    0  0.00000000000E+00  0.00000000000E+00  0.18829804171E+04  0.18829804171E+04  0.00000000000E+00 0. -1.
         -2   -1    0    0    0  501 -0.00000000000E+00 -0.00000000000E+00 -0.12418956361E+04  0.12418956361E+04  0.00000000000E+00 0.  1.
         23    2    1    2    0    0 -0.13444778566E+04 -0.25118525816E+03  0.85125273068E+00  0.13706270938E+04  0.88899747021E+02 0.  0.
        254    2    1    2    0    0  0.13444778566E+04  0.25118525816E+03  0.64023352824E+03  0.17542489593E+04  0.89262293263E+03 0.  0.
         23    2    4    4    0    0  0.10518967850E+04 -0.20953903451E+02  0.78877619748E+03  0.13180703316E+04  0.90639930404E+02 0.  0.
         23    2    4    4    0    0  0.29258107161E+03  0.27213916161E+03 -0.14854266923E+03  0.43617862775E+03  0.92322608130E+02 0.  0.
          3    1    3    3  502    0 -0.35095556507E+03 -0.44252482583E+02  0.33031061905E+02  0.35527333409E+03  0.00000000000E+00 0. -1.
         -3    1    3    3    0  502 -0.99352229150E+03 -0.20693277558E+03 -0.32179809174E+02  0.10153537597E+04  0.00000000000E+00 0.  1.
         11    1    5    5    0    0  0.35682415606E+02 -0.90457838069E+01  0.11323780920E+02  0.38513491175E+02  0.00000000000E+00 0.  1.
        -11    1    5    5    0    0  0.10162143693E+04 -0.11908119644E+02  0.77745241656E+03  0.12795568404E+04  0.00000000000E+00 0. -1.
          3    1    6    6  503    0  0.15623705931E+03  0.19889548891E+03 -0.11487536889E+03  0.27778730098E+03  0.00000000000E+00 0. -1.
         -3    1    6    6    0  503  0.13634401231E+03  0.73243672704E+02 -0.33667300348E+02  0.15839132677E+03  0.00000000000E+00 0.  1.
<mgrwt>
<rscale>  0 0.30584082E+04</rscale>
<asrwt>0</asrwt>
<pdfrwt beam="1">  1        2 0.28968930E+00 0.30584082E+04</pdfrwt>
<pdfrwt beam="2">  1       -2 0.19106087E+00 0.30584082E+04</pdfrwt>
<totfact> 0.10082163E+00</totfact>
</mgrwt>
</event>
<event>
12    2  0.3518828E-008  0.2770209E+04  0.7818608E-02  0.8312577E-01
          1   -1    0    0  501    0  0.00000000000E+00  0.00000000000E+00  0.21587788369E+04  0.21587788369E+04  0.00000000000E+00 0. -1.
         -1   -1    0    0    0  501 -0.00000000000E+00 -0.00000000000E+00 -0.88870368838E+03  0.88870368838E+03  0.00000000000E+00 0.  1.
         23    2    1    2    0    0  0.48129944235E+03 -0.20188017993E+03 -0.66130679310E+03  0.84804736542E+03  0.97226020917E+02 0.  0.
        254    2    1    2    0    0 -0.48129944235E+03  0.20188017993E+03  0.19313819417E+04  0.21994351599E+04  0.91371442898E+03 0.  0.
         23    2    4    4    0    0 -0.34916834748E+03 -0.20114174322E+03  0.29880019226E+03  0.51009918233E+03  0.92428811378E+02 0.  0.
         23    2    4    4    0    0 -0.13213109486E+03  0.40302192315E+03  0.16325817494E+04  0.16893359776E+04  0.92992364313E+02 0.  0.
          1    1    3    3  502    0  0.29245688393E+03 -0.10451250327E+03 -0.46231720356E+03  0.55694801284E+03  0.00000000000E+00 0. -1.
         -1    1    3    3    0  502  0.18884255842E+03 -0.97367676658E+02 -0.19898958954E+03  0.29109935258E+03  0.00000000000E+00 0.  1.
         11    1    5    5    0    0 -0.22837277770E+03 -0.17900433151E+03  0.19893096764E+03  0.35180990063E+03  0.00000000000E+00 0.  1.
        -11    1    5    5    0    0 -0.12079556978E+03 -0.22137411709E+02  0.99869224625E+02  0.15828928170E+03  0.00000000000E+00 0. -1.
          2    1    6    6  503    0 -0.40930991047E+01  0.20854061135E+02  0.20034485487E+03  0.20146887154E+03  0.00000000000E+00 0. -1.
         -2    1    6    6    0  503 -0.12803799576E+03  0.38216786201E+03  0.14322368945E+04  0.14878671060E+04  0.00000000000E+00 0.  1.
<mgrwt>
<rscale>  0 0.27702092E+04</rscale>
<asrwt>0</asrwt>
<pdfrwt beam="1">  1        1 0.33211982E+00 0.27702092E+04</pdfrwt>
<pdfrwt beam="2">  1       -1 0.13672365E+00 0.27702092E+04</pdfrwt>
<totfact> 0.89917481E-01</totfact>
</mgrwt>
</event>
<event>
12    2  0.3518828E-008  0.1481136E+04  0.7818608E-02  0.8897095E-01
          3   -1    0    0  501    0  0.00000000000E+00  0.00000000000E+00  0.41754508300E+03  0.41754508300E+03  0.00000000000E+00 0. -1.
         -3   -1    0    0    0  501 -0.00000000000E+00 -0.00000000000E+00 -0.13134885236E+04  0.13134885236E+04  0.00000000000E+00 0.  1.
         23    2    1    2    0    0 -0.28594779775E+03  0.23964753393E+03  0.30615696264E+02  0.38554465308E+03  0.92251152353E+02 0.  0.
        254    2    1    2    0    0  0.28594779775E+03 -0.23964753393E+03 -0.92655913684E+03  0.13454889535E+04  0.90146081799E+03 0.  0.
         23    2    4    4    0    0 -0.20941219616E+03 -0.34693614532E+03 -0.21683479686E+03  0.46894141430E+03  0.93115863758E+02 0.  0.
         23    2    4    4    0    0  0.49535999391E+03  0.10728861140E+03 -0.70972433999E+03  0.87654753920E+03  0.87946460997E+02 0.  0.
          3    1    3    3  502    0 -0.28146228572E+03  0.24216177253E+03  0.41396752524E+02  0.37360009834E+03  0.00000000000E+00 0. -1.
         -3    1    3    3    0  502 -0.44855120228E+01 -0.25142386080E+01 -0.10781056260E+02  0.11944554741E+02  0.00000000000E+00 0.  1.
         11    1    5    5    0    0 -0.18404389510E+03 -0.23975258781E+03 -0.13153195327E+03  0.32962723403E+03  0.00000000000E+00 0. -1.
        -11    1    5    5    0    0 -0.25368301068E+02 -0.10718355751E+03 -0.85302843582E+02  0.13931418027E+03  0.00000000000E+00 0.  1.
          4    1    6    6  503    0  0.37432591010E+03  0.10998286242E+03 -0.49768952017E+03  0.63238514806E+03  0.00000000000E+00 0. -1.
         -4    1    6    6    0  503  0.12103408381E+03 -0.26942510212E+01 -0.21203481981E+03  0.24416239114E+03  0.00000000000E+00 0.  1.
<mgrwt>
<rscale>  0 0.14811356E+04</rscale>
<asrwt>0</asrwt>
<pdfrwt beam="1">  1        3 0.64237707E-01 0.14811356E+04</pdfrwt>
<pdfrwt beam="2">  1       -3 0.20207515E+00 0.14811356E+04</pdfrwt>
<totfact> 0.84604479E-01</totfact>
</mgrwt>
</event>
<event>
12    2  0.6507644E-008  0.1415502E+04  0.7818608E-02  0.8942673E-01
          1   -1    0    0  501    0  0.00000000000E+00  0.00000000000E+00  0.65979134972E+03  0.65979134972E+03  0.00000000000E+00 0. -1.
         -1   -1    0    0    0  501 -0.00000000000E+00 -0.00000000000E+00 -0.75919704604E+03  0.75919704604E+03  0.00000000000E+00 0.  1.
         23    2    1    2    0    0 -0.23991343579E+03 -0.15390089042E+02  0.30777740146E+03  0.40139395299E+03  0.92708495480E+02 0.  0.
        254    2    1    2    0    0  0.23991343579E+03  0.15390089042E+02 -0.40718309777E+03  0.10175944428E+04  0.90105774695E+03 0.  0.
         23    2    4    4    0    0 -0.96496258242E+02 -0.18925588922E+03 -0.54345840197E+03  0.59080692903E+03  0.92609250426E+02 0.  0.
         23    2    4    4    0    0  0.33640969403E+03  0.20464597826E+03  0.13627530420E+03  0.42678751374E+03  0.92331818411E+02 0.  0.
          3    1    3    3  502    0 -0.21859082744E+03 -0.33723285393E+02  0.29904187194E+03  0.37194791435E+03  0.00000000000E+00 0. -1.
         -3    1    3    3    0  502 -0.21322608354E+02  0.18333196351E+02  0.87355295183E+01  0.29446038638E+02  0.00000000000E+00 0.  1.
         11    1    5    5    0    0 -0.33458705746E+02 -0.13458476167E+01 -0.83276049579E+02  0.89756318605E+02  0.00000000000E+00 0. -1.
        -11    1    5    5    0    0 -0.63037552496E+02 -0.18791004160E+03 -0.46018235239E+03  0.50105061043E+03  0.00000000000E+00 0.  1.
          3    1    6    6  503    0 -0.52050260688E+00 -0.59628891319E+01 -0.16198347883E+01  0.62008736888E+01  0.00000000000E+00 0. -1.
         -3    1    6    6    0  503  0.33693019664E+03  0.21060886739E+03  0.13789513898E+03  0.42058664005E+03  0.00000000000E+00 0.  1.
<mgrwt>
<rscale>  0 0.14155022E+04</rscale>
<asrwt>0</asrwt>
<pdfrwt beam="1">  1        1 0.10150636E+00 0.14155022E+04</pdfrwt>
<pdfrwt beam="2">  1       -1 0.11679955E+00 0.14155022E+04</pdfrwt>
<totfact> 0.19187212E+01</totfact>
</mgrwt>
</event>
<event>
12    2  0.3518828E-008  0.1531117E+04  0.7818608E-02  0.8864020E-01
         -1   -1    0    0    0  501 -0.00000000000E+00  0.00000000000E+00  0.18397124529E+03  0.18397124529E+03  0.00000000000E+00 0.  1.
          1   -1    0    0  501    0  0.00000000000E+00 -0.00000000000E+00 -0.31857147188E+04  0.31857147188E+04  0.00000000000E+00 0. -1.
         23    2    1    2    0    0  0.31123805932E+03  0.19141410319E+02 -0.14325090774E+03  0.35671044503E+03  0.97396077262E+02 0.  0.
        254    2    1    2    0    0 -0.31123805932E+03 -0.19141410319E+02 -0.28584925657E+04  0.30129755190E+04  0.89989233063E+03 0.  0.
         23    2    4    4    0    0 -0.23037922678E+03 -0.27494718948E+03 -0.42742140908E+03  0.56543022561E+03  0.91387821735E+02 0.  0.
         23    2    4    4    0    0 -0.80858832539E+02  0.25580577916E+03 -0.24310711566E+04  0.24475452934E+04  0.91631038058E+02 0.  0.
          2    1    3    3  502    0  0.10565684140E+03 -0.22586357795E+02 -0.10710080601E+02  0.10857355811E+03  0.00000000000E+00 0. -1.
         -2    1    3    3    0  502  0.20558121791E+03  0.41727768114E+02 -0.13254082714E+03  0.24813688692E+03  0.00000000000E+00 0.  1.
         11    1    5    5    0    0 -0.74580471642E+02 -0.14953536892E+03 -0.23100423070E+03  0.28510704640E+03  0.00000000000E+00 0. -1.
        -11    1    5    5    0    0 -0.15579875514E+03 -0.12541182056E+03 -0.19641717838E+03  0.28032317921E+03  0.00000000000E+00 0.  1.
          2    1    6    6  503    0 -0.57453040390E+02  0.20526229780E+03 -0.15328750752E+04  0.15476238105E+04  0.00000000000E+00 0. -1.
         -2    1    6    6    0  503 -0.23405792148E+02  0.50543481366E+02 -0.89819608147E+03  0.89992148290E+03  0.00000000000E+00 0.  1.
<mgrwt>
<rscale>  0 0.15311171E+04</rscale>
<asrwt>0</asrwt>
<pdfrwt beam="1">  1        1 0.49010991E+00 0.15311171E+04</pdfrwt>
<pdfrwt beam="2">  1       -1 0.28303271E-01 0.15311171E+04</pdfrwt>
<totfact> 0.47859963E+00</totfact>
</mgrwt>
</event>
<event>
12    2  0.3518828E-008  0.1197660E+04  0.7818608E-02  0.9114907E-01
         -2   -1    0    0    0  501 -0.00000000000E+00  0.00000000000E+00  0.13039158175E+03  0.13039158175E+03  0.00000000000E+00 0.  1.
          2   -1    0    0  501    0  0.00000000000E+00 -0.00000000000E+00 -0.27501582093E+04  0.27501582093E+04  0.00000000000E+00 0. -1.
         23    2    1    2    0    0 -0.22585478696E+02 -0.40477554840E+02  0.10373405932E+02  0.10301704672E+03  0.91413172308E+02 0.  0.
        254    2    1    2    0    0  0.22585478696E+02  0.40477554840E+02 -0.26301400335E+04  0.27775327443E+04  0.89157333618E+03 0.  0.
         23    2    4    4    0    0  0.16306525214E+02  0.43857039826E+03 -0.98247647553E+03  0.10799953111E+04  0.92303575647E+02 0.  0.
         23    2    4    4    0    0  0.62789534824E+01 -0.39809284342E+03 -0.16476635580E+04  0.16975374332E+04  0.91218417530E+02 0.  0.
          4    1    3    3  502    0  0.30777523781E+02 -0.21351877158E+02  0.24292627703E+02  0.44646280797E+02  0.00000000000E+00 0.  1.
         -4    1    3    3    0  502 -0.53363002477E+02 -0.19125677682E+02 -0.13919221771E+02  0.58370765927E+02  0.00000000000E+00 0. -1.
         11    1    5    5    0    0  0.54638295326E+02  0.22986895056E+03 -0.51414176705E+03  0.56583286788E+03  0.00000000000E+00 0.  1.
        -11    1    5    5    0    0 -0.38331770112E+02  0.20870144770E+03 -0.46833470848E+03  0.51416244324E+03  0.00000000000E+00 0. -1.
          3    1    6    6  503    0  0.46566418747E+02 -0.27478038365E+03 -0.11343540494E+04  0.11680889521E+04  0.00000000000E+00 0. -1.
         -3    1    6    6    0  503 -0.40287465265E+02 -0.12331245978E+03 -0.51330950853E+03  0.52944848110E+03  0.00000000000E+00 0.  1.
<mgrwt>
<rscale>  0 0.11976602E+04</rscale>
<asrwt>0</asrwt>
<pdfrwt beam="1">  1        2 0.42310129E+00 0.11976602E+04</pdfrwt>
<pdfrwt beam="2">  1       -2 0.20060242E-01 0.11976602E+04</pdfrwt>
<totfact> 0.52531937E+01</totfact>
</mgrwt>
</event>
<event>
12    2  0.3518828E-008  0.2258673E+04  0.7818608E-02  0.8494396E-01
          1   -1    0    0  501    0  0.00000000000E+00  0.00000000000E+00  0.10281554276E+04  0.10281554276E+04  0.00000000000E+00 0. -1.
         -1   -1    0    0    0  501 -0.00000000000E+00 -0.00000000000E+00 -0.12404752953E+04  0.12404752953E+04  0.00000000000E+00 0.  1.
         23    2    1    2    0    0 -0.19351957707E+03 -0.89297362923E+03  0.14148910276E+03  0.92913121342E+03  0.91727402416E+02 0.  0.
        254    2    1    2    0    0  0.19351957707E+03  0.89297362923E+03 -0.35380897043E+03  0.13394995094E+04  0.91335996135E+03 0.  0.
         23    2    4    4    0    0 -0.91738583685E+02  0.91843618394E+02  0.24769141424E+03  0.29367321522E+03  0.89675541114E+02 0.  0.
         23    2    4    4    0    0  0.28525816076E+03  0.80113001083E+03 -0.60150038467E+03  0.10458262942E+04  0.93639801141E+02 0.  0.
          1    1    3    3  502    0 -0.11498564546E+03 -0.58647007902E+03  0.49790729955E+02  0.59970656912E+03  0.00000000000E+00 0. -1.
         -1    1    3    3    0  502 -0.78533931615E+02 -0.30650355020E+03  0.91698372809E+02  0.32942464431E+03  0.00000000000E+00 0.  1.
         11    1    5    5    0    0  0.24189413188E+01  0.44967353600E+02  0.37373708556E+02  0.58521006982E+02  0.00000000000E+00 0. -1.
        -11    1    5    5    0    0 -0.94157525004E+02  0.46876264794E+02  0.21031770569E+03  0.23515220824E+03  0.00000000000E+00 0.  1.
          3    1    6    6  503    0  0.21366266901E+03  0.61662395541E+03 -0.50764551803E+03  0.82678945959E+03  0.00000000000E+00 0. -1.
         -3    1    6    6    0  503  0.71595491748E+02  0.18450605542E+03 -0.93854866642E+02  0.21903683462E+03  0.00000000000E+00 0.  1.
<mgrwt>
<rscale>  0 0.22586734E+04</rscale>
<asrwt>0</asrwt>
<pdfrwt beam="1">  1        1 0.15817776E+00 0.22586734E+04</pdfrwt>
<pdfrwt beam="2">  1       -1 0.19084235E+00 0.22586734E+04</pdfrwt>
<totfact> 0.22747286E+00</totfact>
</mgrwt>
</event>
<event>
12    2  0.3518828E-008  0.1567552E+04  0.7818608E-02  0.8840734E-01
          2   -1    0    0  501    0  0.00000000000E+00  0.00000000000E+00  0.13328352103E+04  0.13328352103E+04  0.00000000000E+00 0. -1.
         -2   -1    0    0    0  501 -0.00000000000E+00 -0.00000000000E+00 -0.46090064154E+03  0.46090064154E+03  0.00000000000E+00 0.  1.
         23    2    1    2    0    0  0.86097464274E+02 -0.16773895710E+03  0.83420383025E+03  0.86027071718E+03  0.92846892018E+02 0.  0.
        254    2    1    2    0    0 -0.86097464274E+02  0.16773895710E+03  0.37730738528E+02  0.93346513467E+03  0.91344645050E+03 0.  0.
         23    2    4    4    0    0  0.15073085523E+03 -0.33013551801E+03  0.10200233389E+02  0.37447808631E+03  0.91763508000E+02 0.  0.
         23    2    4    4    0    0 -0.23682831950E+03  0.49787447511E+03  0.27530505139E+02  0.55898704836E+03  0.87988326719E+02 0.  0.
          1    1    3    3  502    0  0.80325880660E+02 -0.17762337542E+03  0.81431092987E+03  0.83731989174E+03  0.00000000000E+00 0. -1.
         -1    1    3    3    0  502  0.57715836139E+01  0.98844183222E+01  0.19892900382E+02  0.22950825444E+02  0.00000000000E+00 0.  1.
         11    1    5    5    0    0  0.30150523923E+02 -0.14834343996E+03 -0.25255657182E+02  0.15346881928E+03  0.00000000000E+00 0.  1.
        -11    1    5    5    0    0  0.12058033130E+03 -0.18179207805E+03  0.35455890571E+02  0.22100926704E+03  0.00000000000E+00 0. -1.
          3    1    6    6  503    0 -0.60782767132E+02  0.20090719886E+03 -0.18457750315E+02  0.21071055000E+03  0.00000000000E+00 0. -1.
         -3    1    6    6    0  503 -0.17604555237E+03  0.29696727625E+03  0.45988255453E+02  0.34827649836E+03  0.00000000000E+00 0.  1.
<mgrwt>
<rscale>  0 0.15675517E+04</rscale>
<asrwt>0</asrwt>
<pdfrwt beam="1">  1        2 0.20505157E+00 0.15675517E+04</pdfrwt>
<pdfrwt beam="2">  1       -2 0.70907792E-01 0.15675517E+04</pdfrwt>
<totfact> 0.27483588E+01</totfact>
</mgrwt>
</event>
<event>
12    2  0.3518828E-008  0.1962184E+04  0.7818608E-02  0.8624508E-01
          1   -1    0    0  501    0  0.00000000000E+00  0.00000000000E+00  0.10789856881E+04  0.10789856881E+04  0.00000000000E+00 0. -1.
         -1   -1    0    0    0  501 -0.00000000000E+00 -0.00000000000E+00 -0.89207981152E+03  0.89207981152E+03  0.00000000000E+00 0.  1.
         23    2    1    2    0    0 -0.18438253833E+03 -0.73543532014E+03 -0.68984502690E+02  0.76642484374E+03  0.88239157685E+02 0.  0.
        254    2    1    2    0    0  0.18438253833E+03  0.73543532014E+03  0.25589037924E+03  0.12046406558E+04  0.90045388165E+03 0.  0.
         23    2    4    4    0    0  0.90467779362E+02  0.67627585195E+03  0.54736622518E+03  0.87979402971E+03  0.94309613629E+02 0.  0.
         23    2    4    4    0    0  0.93914758963E+02  0.59159468189E+02 -0.29147584593E+03  0.32484662613E+03  0.90814850747E+02 0.  0.
          1    1    3    3  502    0 -0.26478575217E+02 -0.12133496153E+03 -0.44343664778E+02  0.13186981626E+03  0.00000000000E+00 0. -1.
         -1    1    3    3    0  502 -0.15790396311E+03 -0.61410035861E+03 -0.24640837912E+02  0.63455502748E+03  0.00000000000E+00 0.  1.
         11    1    5    5    0    0  0.10048434924E+03  0.50560171555E+03  0.44141166871E+03  0.67865636406E+03  0.00000000000E+00 0. -1.
        -11    1    5    5    0    0 -0.10016569873E+02  0.17067413640E+03  0.10595455647E+03  0.20113766565E+03  0.00000000000E+00 0.  1.
          2    1    6    6  503    0  0.99268173972E+02  0.16793674642E+02 -0.20773904563E+03  0.23084997066E+03  0.00000000000E+00 0. -1.
         -2    1    6    6    0  503 -0.53534150090E+01  0.42365793547E+02 -0.83736800300E+02  0.93996655470E+02  0.00000000000E+00 0.  1.
<mgrwt>
<rscale>  0 0.19621838E+04</rscale>
<asrwt>0</asrwt>
<pdfrwt beam="1">  1        1 0.16599780E+00 0.19621838E+04</pdfrwt>
<pdfrwt beam="2">  1       -1 0.13724305E+00 0.19621838E+04</pdfrwt>
<totfact> 0.54041413E+00</totfact>
</mgrwt>
</event>
<event>
12    2  0.3518828E-008  0.2345493E+04  0.7818608E-02  0.8460197E-01
         -2   -1    0    0    0  501 -0.00000000000E+00  0.00000000000E+00  0.16561347039E+04  0.16561347039E+04  0.00000000000E+00 0.  1.
          2   -1    0    0  501    0  0.00000000000E+00 -0.00000000000E+00 -0.83044841181E+03  0.83044841181E+03  0.00000000000E+00 0. -1.
         23    2    1    2    0    0 -0.44729786468E+03 -0.59771979504E+03 -0.36416137222E+03  0.83557304141E+03  0.90688860255E+02 0.  0.
        254    2    1    2    0    0  0.44729786468E+03  0.59771979504E+03  0.11898476643E+04  0.16510100743E+04  0.86761308662E+03 0.  0.
         23    2    4    4    0    0  0.28752443490E+02 -0.16845808855E+02 -0.11330532608E+03  0.14790030977E+03  0.89027638566E+02 0.  0.
         23    2    4    4    0    0  0.41854542119E+03  0.61456560390E+03  0.13031529904E+04  0.15031097646E+04  0.90885074548E+02 0.  0.
          2    1    3    3  502    0 -0.32061376465E+03 -0.40807913580E+03 -0.29647584319E+03  0.59767858650E+03  0.00000000000E+00 0. -1.
         -2    1    3    3    0  502 -0.12668410003E+03 -0.18964065924E+03 -0.67685529033E+02  0.23789445491E+03  0.00000000000E+00 0.  1.
         11    1    5    5    0    0  0.46940705948E+02 -0.41949800333E+02 -0.64883409374E+02  0.90405046512E+02  0.00000000000E+00 0. -1.
        -11    1    5    5    0    0 -0.18188262457E+02  0.25103991478E+02 -0.48421916709E+02  0.57495263258E+02  0.00000000000E+00 0.  1.
          1    1    6    6  503    0  0.36271934306E+02  0.10606595920E+03  0.17101685564E+03  0.20448082020E+03  0.00000000000E+00 0. -1.
         -1    1    6    6    0  503  0.38227348689E+03  0.50849964470E+03  0.11321361348E+04  0.12986289444E+04  0.00000000000E+00 0.  1.
<mgrwt>
<rscale>  0 0.23454931E+04</rscale>
<asrwt>0</asrwt>
<pdfrwt beam="1">  1        2 0.12776129E+00 0.23454931E+04</pdfrwt>
<pdfrwt beam="2">  1       -2 0.25478995E+00 0.23454931E+04</pdfrwt>
<totfact> 0.17766599E+00</totfact>
</mgrwt>
</event>
<event>
12    2  0.3518828E-008  0.1505975E+04  0.7818608E-02  0.8880489E-01
         -2   -1    0    0    0  501 -0.00000000000E+00  0.00000000000E+00  0.63337045006E+03  0.63337045006E+03  0.00000000000E+00 0.  1.
          2   -1    0    0  501    0  0.00000000000E+00 -0.00000000000E+00 -0.89519567971E+03  0.89519567971E+03  0.00000000000E+00 0. -1.
         23    2    1    2    0    0  0.11704103932E+03 -0.78406717291E+02 -0.54421818239E+03  0.57022212366E+03  0.95569985186E+02 0.  0.
        254    2    1    2    0    0 -0.11704103932E+03  0.78406717291E+02  0.28239295274E+03  0.95834400612E+03  0.90489294179E+03 0.  0.
         23    2    4    4    0    0 -0.36445733116E+03 -0.24751847927E+03  0.29772326086E+03  0.53905144389E+03  0.88559444977E+02 0.  0.
         23    2    4    4    0    0  0.24741629184E+03  0.32592519656E+03 -0.15330308120E+02  0.41929256222E+03  0.90161960755E+02 0.  0.
          3    1    3    3  502    0 -0.12901120606E+02 -0.59498516940E+01 -0.11658065574E+03  0.11744313067E+03  0.00000000000E+00 0.  1.
         -3    1    3    3    0  502  0.12994215993E+03 -0.72456865597E+02 -0.42763752664E+03  0.45277899299E+03  0.00000000000E+00 0. -1.
         11    1    5    5    0    0 -0.19694801293E+03 -0.14857725057E+03  0.21649186454E+03  0.32822621253E+03  0.00000000000E+00 0. -1.
        -11    1    5    5    0    0 -0.16750931823E+03 -0.98941228700E+02  0.81231396320E+02  0.21082523136E+03  0.00000000000E+00 0.  1.
          1    1    6    6  503    0  0.17730847801E+02  0.46492756600E+01  0.14298887498E+02  0.23247729171E+02  0.00000000000E+00 0. -1.
         -1    1    6    6    0  503  0.22968544404E+03  0.32127592090E+03 -0.29629195619E+02  0.39604483305E+03  0.00000000000E+00 0.  1.
<mgrwt>
<rscale>  0 0.15059754E+04</rscale>
<asrwt>0</asrwt>
<pdfrwt beam="1">  1        2 0.13772241E+00 0.15059754E+04</pdfrwt>
<pdfrwt beam="2">  1       -2 0.97441607E-01 0.15059754E+04</pdfrwt>
<totfact> 0.25059895E+01</totfact>
</mgrwt>
</event>
<event>
12    2  0.3518828E-008  0.1480895E+04  0.7818608E-02  0.8897258E-01
         -2   -1    0    0    0  501 -0.00000000000E+00  0.00000000000E+00  0.23608240877E+03  0.23608240877E+03  0.00000000000E+00 0.  1.
          2   -1    0    0  501    0  0.00000000000E+00 -0.00000000000E+00 -0.23223349823E+04  0.23223349823E+04  0.00000000000E+00 0. -1.
         23    2    1    2    0    0  0.35130341615E+03  0.11893166847E+03 -0.20505841938E+03  0.43373675166E+03  0.92302667448E+02 0.  0.
        254    2    1    2    0    0 -0.35130341615E+03 -0.11893166847E+03 -0.18811941542E+04  0.21246806394E+04  0.91532373612E+03 0.  0.
         23    2    4    4    0    0  0.15847744368E+03 -0.21340497058E+02 -0.13967324794E+04  0.14088516724E+04  0.91819925310E+02 0.  0.
         23    2    4    4    0    0 -0.50978085982E+03 -0.97591171412E+02 -0.48446167474E+03  0.71582896705E+03  0.91145126013E+02 0.  0.
          1    1    3    3  502    0  0.18994149226E+03  0.38379946831E+02 -0.61748679013E+02  0.20338065336E+03  0.00000000000E+00 0. -1.
         -1    1    3    3    0  502  0.16136192389E+03  0.80551721639E+02 -0.14330974037E+03  0.23035609830E+03  0.00000000000E+00 0.  1.
         11    1    5    5    0    0  0.10190666415E+03 -0.57698540890E+02 -0.90138336813E+03  0.90895878133E+03  0.00000000000E+00 0.  1.
        -11    1    5    5    0    0  0.56570779528E+02  0.36358043831E+02 -0.49534911132E+03  0.49989289106E+03  0.00000000000E+00 0. -1.
          1    1    6    6  503    0 -0.38106707309E+03 -0.88457212983E+02 -0.41070459648E+03  0.56719931091E+03  0.00000000000E+00 0. -1.
         -1    1    6    6    0  503 -0.12871378673E+03 -0.91339584288E+01 -0.73757078252E+02  0.14862965614E+03  0.00000000000E+00 0.  1.
<mgrwt>
<rscale>  0 0.14808949E+04</rscale>
<asrwt>0</asrwt>
<pdfrwt beam="1">  1        2 0.35728232E+00 0.14808949E+04</pdfrwt>
<pdfrwt beam="2">  1       -2 0.36320369E-01 0.14808949E+04</pdfrwt>
<totfact> 0.30449646E+01</totfact>
</mgrwt>
</event>
<event>
12    2  0.3518828E-008  0.1786520E+04  0.7818608E-02  0.8713501E-01
         -3   -1    0    0    0  501 -0.00000000000E+00  0.00000000000E+00  0.15925356459E+04  0.15925356459E+04  0.00000000000E+00 0.  1.
          3   -1    0    0  501    0  0.00000000000E+00 -0.00000000000E+00 -0.50103335675E+03  0.50103335675E+03  0.00000000000E+00 0. -1.
         23    2    1    2    0    0  0.21811269817E+03 -0.33416243858E+03 -0.21377211591E+03  0.46120763153E+03  0.88183203560E+02 0.  0.
        254    2    1    2    0    0 -0.21811269817E+03  0.33416243858E+03  0.13052744050E+04  0.16323613711E+04  0.89533495908E+03 0.  0.
         23    2    4    4    0    0  0.52046958741E+02  0.57461873758E+03  0.96323167067E+03  0.11264364017E+04  0.90267027748E+02 0.  0.
         23    2    4    4    0    0 -0.27015965691E+03 -0.24045629901E+03  0.34204273435E+03  0.50592496934E+03  0.90340304006E+02 0.  0.
          1    1    3    3  502    0  0.15069830042E+03 -0.28840622219E+03 -0.18771623743E+03  0.37566675730E+03  0.00000000000E+00 0. -1.
         -1    1    3    3    0  502  0.67414397744E+02 -0.45756216389E+02 -0.26055878478E+02  0.85540874233E+02  0.00000000000E+00 0.  1.
         11    1    5    5    0    0  0.24784104074E+02  0.44424143869E+03  0.66882377406E+03  0.80329941392E+03  0.00000000000E+00 0. -1.
        -11    1    5    5    0    0  0.27262854667E+02  0.13037729890E+03  0.29440789661E+03  0.32313698782E+03  0.00000000000E+00 0.  1.
          3    1    6    6  503    0 -0.23794280194E+03 -0.22992699781E+03  0.33586110414E+03  0.47147203798E+03  0.00000000000E+00 0. -1.
         -3    1    6    6    0  503 -0.32216854964E+02 -0.10529301200E+02  0.61816302057E+01  0.34452931363E+02  0.00000000000E+00 0.  1.
<mgrwt>
<rscale>  0 0.17865201E+04</rscale>
<asrwt>0</asrwt>
<pdfrwt beam="1">  1        3 0.77082056E-01 0.17865201E+04</pdfrwt>
<pdfrwt beam="2">  1       -3 0.24500548E+00 0.17865201E+04</pdfrwt>
<totfact> 0.30562788E-01</totfact>
</mgrwt>
</event>
<event>
12    2  0.3518828E-008  0.1467654E+04  0.7818608E-02  0.8906252E-01
         -1   -1    0    0    0  501 -0.00000000000E+00  0.00000000000E+00  0.22363230106E+03  0.22363230106E+03  0.00000000000E+00 0.  1.
          1   -1    0    0  501    0  0.00000000000E+00 -0.00000000000E+00 -0.24079788206E+04  0.24079788206E+04  0.00000000000E+00 0. -1.
         23    2    1    2    0    0  0.29534600568E+03  0.96473582043E+02 -0.12846347309E+04  0.13246541363E+04  0.88801879288E+02 0.  0.
        254    2    1    2    0    0 -0.29534600568E+03 -0.96473582043E+02 -0.89971178857E+03  0.13069569853E+04  0.89561087752E+03 0.  0.
         23    2    4    4    0    0 -0.16832624417E+02 -0.46643189019E+03 -0.44311195804E+03  0.65025203503E+03  0.92937916173E+02 0.  0.
         23    2    4    4    0    0 -0.27851338126E+03  0.36995830815E+03 -0.45659983053E+03  0.65670495031E+03  0.91318854699E+02 0.  0.
          1    1    3    3  502    0  0.27488942547E+03  0.82571496787E+02 -0.12470982230E+04  0.12797016160E+04  0.00000000000E+00 0. -1.
         -1    1    3    3    0  502  0.20456580204E+02  0.13902085256E+02 -0.37536507964E+02  0.44952520266E+02  0.00000000000E+00 0.  1.
         11    1    5    5    0    0 -0.71194792001E+01 -0.22648654742E+03 -0.15192052979E+03  0.27281255565E+03  0.00000000000E+00 0. -1.
        -11    1    5    5    0    0 -0.97131452172E+01 -0.23994534277E+03 -0.29119142825E+03  0.37743947938E+03  0.00000000000E+00 0.  1.
          2    1    6    6  503    0 -0.12627139375E+02  0.25604901438E+02 -0.38528410504E+01  0.28807985188E+02  0.00000000000E+00 0.  1.
         -2    1    6    6    0  503 -0.26588624188E+03  0.34435340671E+03 -0.45274698948E+03  0.62789696513E+03  0.00000000000E+00 0. -1.
<mgrwt>
<rscale>  0 0.14676537E+04</rscale>
<asrwt>0</asrwt>
<pdfrwt beam="1">  1        1 0.37045833E+00 0.14676537E+04</pdfrwt>
<pdfrwt beam="2">  1       -1 0.34404965E-01 0.14676537E+04</pdfrwt>
<totfact> 0.12203700E+01</totfact>
</mgrwt>
</event>
<event>
12    2  0.3518828E-008  0.2165563E+04  0.7818608E-02  0.8532900E-01
         -2   -1    0    0    0  501 -0.00000000000E+00  0.00000000000E+00  0.29188599906E+03  0.29188599906E+03  0.00000000000E+00 0. -1.
          2   -1    0    0  501    0  0.00000000000E+00 -0.00000000000E+00 -0.40166919084E+04  0.40166919084E+04  0.00000000000E+00 0.  1.
         23    2    1    2    0    0  0.51757137057E+03  0.60406416721E+03 -0.23475535919E+04  0.24802610587E+04  0.88957352893E+02 0.  0.
        254    2    1    2    0    0 -0.51757137057E+03 -0.60406416721E+03 -0.13772523174E+04  0.18283168488E+04  0.90174548069E+03 0.  0.
         23    2    4    4    0    0  0.19502167369E+03 -0.21346942883E+03 -0.11586601660E+03  0.32513643953E+03  0.93199357569E+02 0.  0.
         23    2    4    4    0    0 -0.71259304425E+03 -0.39059473837E+03 -0.12613863008E+04  0.15031804093E+04  0.90015812343E+02 0.  0.
          3    1    3    3  502    0  0.15964450049E+03  0.14753129074E+03 -0.73844036207E+03  0.76977010635E+03  0.00000000000E+00 0. -1.
         -3    1    3    3    0  502  0.35792687007E+03  0.45653287647E+03 -0.16091132298E+04  0.17104909523E+04  0.00000000000E+00 0.  1.
         11    1    5    5    0    0  0.14668677425E+03 -0.93457253487E+02 -0.75467814491E+02  0.18959604160E+03  0.00000000000E+00 0. -1.
        -11    1    5    5    0    0  0.48334899443E+02 -0.12001217535E+03 -0.40398202109E+02  0.13554039792E+03  0.00000000000E+00 0.  1.
          4    1    6    6  503    0 -0.68029460583E+03 -0.36030466867E+03 -0.12199804480E+04  0.14425576239E+04  0.00000000000E+00 0.  1.
         -4    1    6    6    0  503 -0.32298438427E+02 -0.30290069704E+02 -0.41405852893E+02  0.60622785332E+02  0.00000000000E+00 0. -1.
<mgrwt>
<rscale>  0 0.21655633E+04</rscale>
<asrwt>0</asrwt>
<pdfrwt beam="1">  1        2 0.61795261E+00 0.21655633E+04</pdfrwt>
<pdfrwt beam="2">  1       -2 0.44905538E-01 0.21655633E+04</pdfrwt>
<totfact> 0.14407753E+00</totfact>
</mgrwt>
</event>
<event>
12    2  0.3518828E-008  0.1259475E+04  0.7818608E-02  0.9062334E-01
          1   -1    0    0  501    0  0.00000000000E+00  0.00000000000E+00  0.22088777960E+04  0.22088777960E+04  0.00000000000E+00 0. -1.
         -1   -1    0    0    0  501 -0.00000000000E+00 -0.00000000000E+00 -0.17953415386E+03  0.17953415386E+03  0.00000000000E+00 0.  1.
         23    2    1    2    0    0 -0.25153673136E+03 -0.10314808086E+03  0.28828789585E+03  0.40688832123E+03  0.92400980808E+02 0.  0.
        254    2    1    2    0    0  0.25153673136E+03  0.10314808086E+03  0.17410557463E+04  0.19815236286E+04  0.90622873785E+03 0.  0.
         23    2    4    4    0    0  0.25280569240E+03 -0.28377079025E+03  0.14112120781E+04  0.14643285383E+04  0.91115087188E+02 0.  0.
         23    2    4    4    0    0 -0.12689610411E+01  0.38691887111E+03  0.32984366817E+03  0.51719509033E+03  0.94795004852E+02 0.  0.
          1    1    3    3  502    0 -0.80732899724E+02 -0.23212609163E+02  0.15385570021E+03  0.17529461717E+03  0.00000000000E+00 0. -1.
         -1    1    3    3    0  502 -0.17080383163E+03 -0.79935471699E+02  0.13443219564E+03  0.23159370406E+03  0.00000000000E+00 0.  1.
         11    1    5    5    0    0  0.39345401177E+02 -0.54492437024E+02  0.40312484418E+03  0.40868952309E+03  0.00000000000E+00 0.  1.
        -11    1    5    5    0    0  0.21346029122E+03 -0.22927835323E+03  0.10080872340E+04  0.10556390152E+04  0.00000000000E+00 0. -1.
          3    1    6    6  503    0  0.36113221286E+02  0.22523626649E+03  0.15293752702E+03  0.27463690150E+03  0.00000000000E+00 0.  1.
         -3    1    6    6    0  503 -0.37382182327E+02  0.16168260463E+03  0.17690614115E+03  0.24255818883E+03  0.00000000000E+00 0. -1.
<mgrwt>
<rscale>  0 0.12594745E+04</rscale>
<asrwt>0</asrwt>
<pdfrwt beam="1">  1        1 0.33982733E+00 0.12594745E+04</pdfrwt>
<pdfrwt beam="2">  1       -1 0.27620641E-01 0.12594745E+04</pdfrwt>
<totfact> 0.25031446E+01</totfact>
</mgrwt>
</event>
<event>
12    2  0.3518828E-008  0.1412893E+04  0.7818608E-02  0.8944538E-01
          2   -1    0    0  501    0  0.00000000000E+00  0.00000000000E+00  0.55930740048E+03  0.55930740048E+03  0.00000000000E+00 0.  1.
         -2   -1    0    0    0  501 -0.00000000000E+00 -0.00000000000E+00 -0.89229444320E+03  0.89229444320E+03  0.00000000000E+00 0. -1.
         23    2    1    2    0    0  0.22761261554E+03 -0.68183186337E+01  0.24512245852E+03  0.34661538964E+03  0.90571609465E+02 0.  0.
        254    2    1    2    0    0 -0.22761261554E+03  0.68183186337E+01 -0.57810950123E+03  0.11049864540E+04  0.91374530148E+03 0.  0.
         23    2    4    4    0    0 -0.10551422405E+03  0.42507009869E+03 -0.46262480575E+03  0.64372073315E+03  0.92394973423E+02 0.  0.
         23    2    4    4    0    0 -0.12209839150E+03 -0.41825178006E+03 -0.11548469548E+03  0.46126572089E+03  0.97912111870E+02 0.  0.
          4    1    3    3  502    0  0.37538000774E+02 -0.36601161168E+02  0.46292683999E+02  0.69941111607E+02  0.00000000000E+00 0. -1.
         -4    1    3    3    0  502  0.19007461477E+03  0.29782842535E+02  0.19882977452E+03  0.27667427803E+03  0.00000000000E+00 0.  1.
         11    1    5    5    0    0 -0.73831241673E+02  0.38150101865E+03 -0.36993327093E+03  0.53651160698E+03  0.00000000000E+00 0. -1.
        -11    1    5    5    0    0 -0.31682982375E+02  0.43569080042E+02 -0.92691534822E+02  0.10720912618E+03  0.00000000000E+00 0.  1.
          1    1    6    6  503    0 -0.10016832718E+03 -0.35791571759E+03 -0.60135326961E+02  0.37650180905E+03  0.00000000000E+00 0. -1.
         -1    1    6    6    0  503 -0.21930064314E+02 -0.60336062467E+02 -0.55349368522E+02  0.84763911841E+02  0.00000000000E+00 0.  1.
<mgrwt>
<rscale>  0 0.14128933E+04</rscale>
<asrwt>0</asrwt>
<pdfrwt beam="1">  1        2 0.86047292E-01 0.14128933E+04</pdfrwt>
<pdfrwt beam="2">  1       -2 0.13727607E+00 0.14128933E+04</pdfrwt>
<totfact> 0.19820083E+01</totfact>
</mgrwt>
</event>
<event>
12    2  0.3518828E-008  0.1234083E+04  0.7818608E-02  0.9083536E-01
          2   -1    0    0  501    0  0.00000000000E+00  0.00000000000E+00  0.10625404341E+04  0.10625404341E+04  0.00000000000E+00 0.  1.
         -2   -1    0    0    0  501 -0.00000000000E+00 -0.00000000000E+00 -0.35833002685E+03  0.35833002685E+03  0.00000000000E+00 0. -1.
         23    2    1    2    0    0 -0.80069074356E+02  0.17255604242E+03  0.39201510641E+03  0.44560561535E+03  0.93283848172E+02 0.  0.
        254    2    1    2    0    0  0.80069074356E+02 -0.17255604242E+03  0.31219530080E+03  0.97526484556E+03  0.90415096566E+03 0.  0.
         23    2    4    4    0    0  0.14636170673E+03  0.34126559640E+03  0.45084860100E+02  0.38534557549E+03  0.92599197901E+02 0.  0.
         23    2    4    4    0    0 -0.66292632377E+02 -0.51382163882E+03  0.26711044070E+03  0.58991927007E+03  0.90826031749E+02 0.  0.
          1    1    3    3  502    0 -0.13341623356E+02  0.71731405785E+02  0.67878818723E+02  0.99654039160E+02  0.00000000000E+00 0. -1.
         -1    1    3    3    0  502 -0.66727451000E+02  0.10082463663E+03  0.32413628769E+03  0.34595157619E+03  0.00000000000E+00 0.  1.
         11    1    5    5    0    0  0.10817795958E+03  0.32079788400E+03  0.47960032670E+02  0.34192677294E+03  0.00000000000E+00 0.  1.
        -11    1    5    5    0    0  0.38183747152E+02  0.20467712404E+02 -0.28751725703E+01  0.43418802551E+02  0.00000000000E+00 0. -1.
          2    1    6    6  503    0 -0.47175082253E+02 -0.92315820101E+02  0.43974837414E+02  0.11261210127E+03  0.00000000000E+00 0. -1.
         -2    1    6    6    0  503 -0.19117550124E+02 -0.42150581872E+03  0.22313560329E+03  0.47730716881E+03  0.00000000000E+00 0.  1.
<mgrwt>
<rscale>  0 0.12340829E+04</rscale>
<asrwt>0</asrwt>
<pdfrwt beam="1">  1        2 0.16346776E+00 0.12340829E+04</pdfrwt>
<pdfrwt beam="2">  1       -2 0.55127697E-01 0.12340829E+04</pdfrwt>
<totfact> 0.70021080E+01</totfact>
</mgrwt>
</event>
<event>
12    2  0.3518828E-008  0.1782683E+04  0.7818608E-02  0.8715563E-01
          1   -1    0    0  501    0  0.00000000000E+00  0.00000000000E+00  0.10571561314E+04  0.10571561314E+04  0.00000000000E+00 0. -1.
         -1   -1    0    0    0  501 -0.00000000000E+00 -0.00000000000E+00 -0.75153457268E+03  0.75153457268E+03  0.00000000000E+00 0.  1.
         23    2    1    2    0    0 -0.10087755908E+03  0.13582855488E+03  0.74918346343E+03  0.77349849904E+03  0.91642718723E+02 0.  0.
        254    2    1    2    0    0  0.10087755908E+03 -0.13582855488E+03 -0.44356190471E+03  0.10351922050E+04  0.91991850717E+03 0.  0.
         23    2    4    4    0    0 -0.19440358826E+03 -0.14827942845E+03 -0.62425339476E+03  0.67676293740E+03  0.92391712496E+02 0.  0.
         23    2    4    4    0    0  0.29528114734E+03  0.12450873578E+02  0.18069149006E+03  0.35842926764E+03  0.92065982309E+02 0.  0.
          4    1    3    3  502    0 -0.35385391240E+02  0.40217266025E+00  0.23879058040E+03  0.24139848580E+03  0.00000000000E+00 0. -1.
         -4    1    3    3    0  502 -0.65492167843E+02  0.13542638222E+03  0.51039288303E+03  0.53210001324E+03  0.00000000000E+00 0.  1.
         11    1    5    5    0    0 -0.66043367692E+01 -0.86923458937E+01 -0.12410318347E+03  0.12458239959E+03  0.00000000000E+00 0. -1.
        -11    1    5    5    0    0 -0.18779925149E+03 -0.13958708256E+03 -0.50015021129E+03  0.55218053781E+03  0.00000000000E+00 0.  1.
          1    1    6    6  503    0  0.10940354193E+03  0.19154172657E+02  0.11824492003E+03  0.16222785960E+03  0.00000000000E+00 0. -1.
         -1    1    6    6    0  503  0.18587760541E+03 -0.67032990798E+01  0.62446570024E+02  0.19620140804E+03  0.00000000000E+00 0.  1.
<mgrwt>
<rscale>  0 0.17826827E+04</rscale>
<asrwt>0</asrwt>
<pdfrwt beam="1">  1        1 0.16263940E+00 0.17826827E+04</pdfrwt>
<pdfrwt beam="2">  1       -1 0.11562070E+00 0.17826827E+04</pdfrwt>
<totfact> 0.87515792E+00</totfact>
</mgrwt>
</event>
<event>
12    2  0.3518828E-008  0.2008495E+04  0.7818608E-02  0.8602659E-01
          1   -1    0    0  501    0  0.00000000000E+00  0.00000000000E+00  0.11658403463E+04  0.11658403463E+04  0.00000000000E+00 0. -1.
         -1   -1    0    0    0  501 -0.00000000000E+00 -0.00000000000E+00 -0.86505215846E+03  0.86505215846E+03  0.00000000000E+00 0.  1.
         23    2    1    2    0    0  0.76934177308E+03  0.97564627755E+02 -0.66427323332E+02  0.78684375725E+03  0.11534681892E+03 0.  0.
        254    2    1    2    0    0 -0.76934177308E+03 -0.97564627755E+02  0.36721551121E+03  0.12440487475E+04  0.90077990330E+03 0.  0.
         23    2    4    4    0    0 -0.12211650313E+03 -0.16695197433E+03 -0.25351321101E+03  0.33959145783E+03  0.90928587423E+02 0.  0.
         23    2    4    4    0    0 -0.64722526995E+03  0.69387346573E+02  0.62072872221E+03  0.90445728971E+03  0.94993096564E+02 0.  0.
          3    1    3    3  502    0  0.48865370102E+03  0.64690190283E+02 -0.97719086178E+02  0.50250998004E+03  0.00000000000E+00 0. -1.
         -3    1    3    3    0  502  0.28068807206E+03  0.32874437472E+02  0.31291762846E+02  0.28433377720E+03  0.00000000000E+00 0.  1.
         11    1    5    5    0    0 -0.71415672219E+02 -0.27289353194E+02 -0.10094214048E+03  0.12662631149E+03  0.00000000000E+00 0. -1.
        -11    1    5    5    0    0 -0.50700830911E+02 -0.13966262113E+03 -0.15257107053E+03  0.21296514635E+03  0.00000000000E+00 0.  1.
          1    1    6    6  503    0 -0.33828196867E+03  0.69417950687E+02  0.37431577695E+03  0.50927972970E+03  0.00000000000E+00 0. -1.
         -1    1    6    6    0  503 -0.30894330128E+03 -0.30604114313E-01  0.24641294526E+03  0.39517756001E+03  0.00000000000E+00 0.  1.
<mgrwt>
<rscale>  0 0.20084947E+04</rscale>
<asrwt>0</asrwt>
<pdfrwt beam="1">  1        1 0.17936005E+00 0.20084947E+04</pdfrwt>
<pdfrwt beam="2">  1       -1 0.13308495E+00 0.20084947E+04</pdfrwt>
<totfact> 0.50152088E+00</totfact>
</mgrwt>
</event>
<event>
12    2  0.3518828E-008  0.1131681E+04  0.7818608E-02  0.9174852E-01
         -2   -1    0    0    0  501 -0.00000000000E+00  0.00000000000E+00  0.19180733320E+03  0.19180733320E+03  0.00000000000E+00 0.  1.
          2   -1    0    0  501    0  0.00000000000E+00 -0.00000000000E+00 -0.16692559639E+04  0.16692559639E+04  0.00000000000E+00 0. -1.
         23    2    1    2    0    0  0.26888222484E+02  0.33414561570E+02  0.28900313677E+02  0.10496528812E+03  0.91339882561E+02 0.  0.
        254    2    1    2    0    0 -0.26888222484E+02 -0.33414561570E+02 -0.15063489444E+04  0.17560980090E+04  0.90163937664E+03 0.  0.
         23    2    4    4    0    0  0.16691435030E+03  0.26677169391E+03 -0.12845333398E+04  0.13254831373E+04  0.88612127460E+02 0.  0.
         23    2    4    4    0    0 -0.19380257279E+03 -0.30018625548E+03 -0.22181560459E+03  0.43061487172E+03  0.92497460015E+02 0.  0.
          1    1    3    3  502    0 -0.22289030754E+02  0.47469153162E+01 -0.19695229927E+02  0.30120361532E+02  0.00000000000E+00 0. -1.
         -1    1    3    3    0  502  0.49177253238E+02  0.28667646254E+02  0.48595543604E+02  0.74844926588E+02  0.00000000000E+00 0.  1.
         11    1    5    5    0    0  0.87092173051E+01  0.37593527345E+02 -0.75471656168E+02  0.84764937616E+02  0.00000000000E+00 0.  1.
        -11    1    5    5    0    0  0.15820513300E+03  0.22917816657E+03 -0.12090616836E+04  0.12407181997E+04  0.00000000000E+00 0. -1.
          3    1    6    6  503    0 -0.12303548323E+03 -0.12360514931E+03 -0.72890673640E+02  0.18902119821E+03  0.00000000000E+00 0. -1.
         -3    1    6    6    0  503 -0.70767089554E+02 -0.17658110617E+03 -0.14892493095E+03  0.24159367351E+03  0.00000000000E+00 0.  1.
<mgrwt>
<rscale>  0 0.11316811E+04</rscale>
<asrwt>0</asrwt>
<pdfrwt beam="1">  1        2 0.25680861E+00 0.11316811E+04</pdfrwt>
<pdfrwt beam="2">  1       -2 0.29508821E-01 0.11316811E+04</pdfrwt>
<totfact> 0.10688620E+02</totfact>
</mgrwt>
</event>
<event>
12    2  0.3518828E-008  0.1249563E+04  0.7818608E-02  0.9070547E-01
         -2   -1    0    0    0  501 -0.00000000000E+00  0.00000000000E+00  0.26008503463E+03  0.26008503463E+03  0.00000000000E+00 0. -1.
          2   -1    0    0  501    0  0.00000000000E+00 -0.00000000000E+00 -0.15008623964E+04  0.15008623964E+04  0.00000000000E+00 0.  1.
         23    2    1    2    0    0 -0.42117150349E+02  0.24565871289E+03 -0.10904185352E+03  0.28770319776E+03  0.93599928478E+02 0.  0.
        254    2    1    2    0    0  0.42117150349E+02 -0.24565871289E+03 -0.11317355082E+04  0.14732442332E+04  0.90967095842E+03 0.  0.
         23    2    4    4    0    0 -0.52542770409E+02 -0.57408806599E+03 -0.78141356762E+03  0.97530194979E+03  0.90933378717E+02 0.  0.
         23    2    4    4    0    0  0.94659920758E+02  0.32842935309E+03 -0.35032194060E+03  0.49794228344E+03  0.91622677316E+02 0.  0.
          1    1    3    3  502    0 -0.35086278929E+02  0.16727191621E+03 -0.25285188913E+02  0.17277234067E+03  0.00000000000E+00 0. -1.
         -1    1    3    3    0  502 -0.70308714197E+01  0.78386796684E+02 -0.83756664604E+02  0.11493085710E+03  0.00000000000E+00 0.  1.
         11    1    5    5    0    0 -0.10547044796E+02 -0.24103379509E+03 -0.25572407606E+03  0.35157265765E+03  0.00000000000E+00 0. -1.
        -11    1    5    5    0    0 -0.41995725613E+02 -0.33305427089E+03 -0.52568949157E+03  0.62372929214E+03  0.00000000000E+00 0.  1.
          3    1    6    6  503    0  0.11181441369E+03  0.25973831288E+03 -0.28796153161E+03  0.40359422441E+03  0.00000000000E+00 0. -1.
         -3    1    6    6    0  503 -0.17154492935E+02  0.68691040219E+02 -0.62360408988E+02  0.94348059033E+02  0.00000000000E+00 0.  1.
<mgrwt>
<rscale>  0 0.12495629E+04</rscale>
<asrwt>0</asrwt>
<pdfrwt beam="1">  1        2 0.23090191E+00 0.12495629E+04</pdfrwt>
<pdfrwt beam="2">  1       -2 0.40013082E-01 0.12495629E+04</pdfrwt>
<totfact> 0.73673191E+01</totfact>
</mgrwt>
</event>
<event>
12    2  0.3518828E-008  0.1746043E+04  0.7818608E-02  0.8735531E-01
          2   -1    0    0  501    0  0.00000000000E+00  0.00000000000E+00  0.15131498326E+04  0.15131498326E+04  0.00000000000E+00 0. -1.
         -2   -1    0    0    0  501 -0.00000000000E+00 -0.00000000000E+00 -0.50369542607E+03  0.50369542607E+03  0.00000000000E+00 0.  1.
         23    2    1    2    0    0 -0.11025749424E+03  0.29297120963E+03  0.10070684950E+04  0.10588524083E+04  0.94829448022E+02 0.  0.
        254    2    1    2    0    0  0.11025749424E+03 -0.29297120963E+03  0.23859115582E+01  0.95799285040E+03  0.90540364708E+03 0.  0.
         23    2    4    4    0    0 -0.75108071867E+02 -0.58466778940E+03  0.47831144077E+02  0.59755615467E+03  0.85486216517E+02 0.  0.
         23    2    4    4    0    0  0.18536556611E+03  0.29169657978E+03 -0.45445232519E+02  0.36043669574E+03  0.91662722649E+02 0.  0.
          2    1    3    3  502    0 -0.89935118171E+02  0.12024402920E+03  0.39587533498E+03  0.42339607094E+03  0.00000000000E+00 0. -1.
         -2    1    3    3    0  502 -0.20322376070E+02  0.17272718042E+03  0.61119316000E+03  0.63545633734E+03  0.00000000000E+00 0.  1.
         11    1    5    5    0    0 -0.83960742145E+02 -0.56421993519E+03  0.34246921651E+02  0.57145987884E+03  0.00000000000E+00 0.  1.
        -11    1    5    5    0    0  0.88526702776E+01 -0.20447854213E+02  0.13584222426E+02  0.26096275824E+02  0.00000000000E+00 0. -1.
          3    1    6    6  503    0 -0.87620917372E+00  0.44969549987E+02 -0.22940203745E+02  0.50490406182E+02  0.00000000000E+00 0. -1.
         -3    1    6    6    0  503  0.18624177528E+03  0.24672702979E+03 -0.22505028773E+02  0.30994628955E+03  0.00000000000E+00 0.  1.
<mgrwt>
<rscale>  0 0.17460431E+04</rscale>
<asrwt>0</asrwt>
<pdfrwt beam="1">  1        2 0.23279228E+00 0.17460431E+04</pdfrwt>
<pdfrwt beam="2">  1       -2 0.77491605E-01 0.17460431E+04</pdfrwt>
<totfact> 0.17565120E+01</totfact>
</mgrwt>
</event>
<event>
12    2  0.3518828E-008  0.1799139E+04  0.7818608E-02  0.8706758E-01
          1   -1    0    0  501    0  0.00000000000E+00  0.00000000000E+00  0.19278728842E+04  0.19278728842E+04  0.00000000000E+00 0. -1.
         -1   -1    0    0    0  501 -0.00000000000E+00 -0.00000000000E+00 -0.41975012866E+03  0.41975012866E+03  0.00000000000E+00 0.  1.
         23    2    1    2    0    0 -0.47441167492E+03 -0.11286750384E+03  0.11595131140E+04  0.12612661725E+04  0.92283182007E+02 0.  0.
        254    2    1    2    0    0  0.47441167492E+03  0.11286750384E+03  0.34860964155E+03  0.10863568404E+04  0.90600054728E+03 0.  0.
         23    2    4    4    0    0  0.72951249097E+03  0.20923393671E-01  0.28614903549E+03  0.78889230258E+03  0.91001756296E+02 0.  0.
         23    2    4    4    0    0 -0.25510081604E+03  0.11284658044E+03  0.62460606067E+02  0.29746453777E+03  0.82298522817E+02 0.  0.
          3    1    3    3  502    0 -0.33070323744E+03 -0.47035348383E+02  0.86017749880E+03  0.92275797731E+03  0.00000000000E+00 0. -1.
         -3    1    3    3    0  502 -0.14370843749E+03 -0.65832155455E+02  0.29933561517E+03  0.33850819519E+03  0.00000000000E+00 0.  1.
         11    1    5    5    0    0  0.34537473225E+02 -0.18991428619E+02  0.88488141359E+01  0.40395704343E+02  0.00000000000E+00 0.  1.
        -11    1    5    5    0    0  0.69497501774E+03  0.19012352013E+02  0.27730022135E+03  0.74849659824E+03  0.00000000000E+00 0. -1.
          3    1    6    6  503    0 -0.25238404620E+03  0.93665758382E+02  0.67315916911E+02  0.27749308773E+03  0.00000000000E+00 0. -1.
         -3    1    6    6    0  503 -0.27167698455E+01  0.19180822063E+02 -0.48553108441E+01  0.19971450042E+02  0.00000000000E+00 0.  1.
<mgrwt>
<rscale>  0 0.17991386E+04</rscale>
<asrwt>0</asrwt>
<pdfrwt beam="1">  1        1 0.29659582E+00 0.17991386E+04</pdfrwt>
<pdfrwt beam="2">  1       -1 0.64576944E-01 0.17991386E+04</pdfrwt>
<totfact> 0.76540931E+00</totfact>
</mgrwt>
</event>
<event>
12    2  0.3518828E-008  0.2163401E+04  0.7818608E-02  0.8533818E-01
          1   -1    0    0  501    0  0.00000000000E+00  0.00000000000E+00  0.14423893995E+04  0.14423893995E+04  0.00000000000E+00 0. -1.
         -1   -1    0    0    0  501 -0.00000000000E+00 -0.00000000000E+00 -0.81120649626E+03  0.81120649626E+03  0.00000000000E+00 0.  1.
         23    2    1    2    0    0 -0.52566257502E+03  0.49193664597E+03  0.81161346291E+03  0.10885815480E+04  0.89278032516E+02 0.  0.
        254    2    1    2    0    0  0.52566257502E+03 -0.49193664597E+03 -0.18043055964E+03  0.11650143478E+04  0.89798688032E+03 0.  0.
         23    2    4    4    0    0 -0.10245085873E+02 -0.21303392189E+03  0.30641512709E+03  0.38367056055E+03  0.88455950977E+02 0.  0.
         23    2    4    4    0    0  0.53590766089E+03 -0.27890272408E+03 -0.48684568673E+03  0.78134378721E+03  0.92171799552E+02 0.  0.
          4    1    3    3  502    0 -0.14690998293E+03  0.13325794571E+03  0.28611458591E+03  0.34814045937E+03  0.00000000000E+00 0. -1.
         -4    1    3    3    0  502 -0.37875259209E+03  0.35867870026E+03  0.52549887700E+03  0.74044108865E+03  0.00000000000E+00 0.  1.
         11    1    5    5    0    0 -0.28860132951E+02 -0.20397407209E+03  0.29563058647E+03  0.36032731372E+03  0.00000000000E+00 0. -1.
        -11    1    5    5    0    0  0.18615047078E+02 -0.90598498016E+01  0.10784540625E+02  0.23343246832E+02  0.00000000000E+00 0.  1.
          4    1    6    6  503    0  0.36811420482E+02 -0.18825107851E+02 -0.68821994232E+02  0.80286563345E+02  0.00000000000E+00 0.  1.
         -4    1    6    6    0  503  0.49909624041E+03 -0.26007761623E+03 -0.41802369250E+03  0.70105722387E+03  0.00000000000E+00 0. -1.
<mgrwt>
<rscale>  0 0.21634007E+04</rscale>
<asrwt>0</asrwt>
<pdfrwt beam="1">  1        1 0.22190606E+00 0.21634007E+04</pdfrwt>
<pdfrwt beam="2">  1       -1 0.12480100E+00 0.21634007E+04</pdfrwt>
<totfact> 0.36871128E+00</totfact>
</mgrwt>
</event>
<event>
12    2  0.3518828E-008  0.1971404E+04  0.7818608E-02  0.8620108E-01
         -2   -1    0    0    0  501 -0.00000000000E+00  0.00000000000E+00  0.17964969581E+04  0.17964969581E+04  0.00000000000E+00 0.  1.
          2   -1    0    0  501    0  0.00000000000E+00 -0.00000000000E+00 -0.54083501721E+03  0.54083501721E+03  0.00000000000E+00 0. -1.
         23    2    1    2    0    0 -0.69558981872E+03 -0.47966117897E+02  0.89247925608E+02  0.70893571187E+03  0.92079894493E+02 0.  0.
        254    2    1    2    0    0  0.69558981872E+03  0.47966117897E+02  0.11664140153E+04  0.16283962635E+04  0.89722170693E+03 0.  0.
         23    2    4    4    0    0  0.79219093411E+03 -0.11577713842E+03  0.11662470898E+04  0.14176639264E+04  0.93101621183E+02 0.  0.
         23    2    4    4    0    0 -0.96601115395E+02  0.16374325631E+03  0.16692549156E+00  0.21073233705E+03  0.90909078381E+02 0.  0.
          4    1    3    3  502    0 -0.67554614230E+03 -0.50515526564E+02  0.70015770522E+02  0.68104083352E+03  0.00000000000E+00 0. -1.
         -4    1    3    3    0  502 -0.20043676416E+02  0.25494086671E+01  0.19232155086E+02  0.27894878348E+02  0.00000000000E+00 0.  1.
         11    1    5    5    0    0  0.38175500049E+03 -0.98937747754E+02  0.53866200070E+03  0.66759441979E+03  0.00000000000E+00 0.  1.
        -11    1    5    5    0    0  0.41043593362E+03 -0.16839390663E+02  0.62758508912E+03  0.75006950662E+03  0.00000000000E+00 0. -1.
          1    1    6    6  503    0 -0.94720210125E+02  0.14034562281E+03 -0.30571298983E+02  0.17205643368E+03  0.00000000000E+00 0. -1.
         -1    1    6    6    0  503 -0.18809052704E+01  0.23397633504E+02  0.30738224474E+02  0.38675903377E+02  0.00000000000E+00 0.  1.
<mgrwt>
<rscale>  0 0.19714040E+04</rscale>
<asrwt>0</asrwt>
<pdfrwt beam="1">  1        2 0.83205388E-01 0.19714040E+04</pdfrwt>
<pdfrwt beam="2">  1       -2 0.27638414E+00 0.19714040E+04</pdfrwt>
<totfact> 0.23180647E+00</totfact>
</mgrwt>
</event>
<event>
12    2  0.3518828E-008  0.1718050E+04  0.7818608E-02  0.8751136E-01
         -1   -1    0    0    0  501 -0.00000000000E+00  0.00000000000E+00  0.23688008175E+03  0.23688008175E+03  0.00000000000E+00 0.  1.
          1   -1    0    0  501    0  0.00000000000E+00 -0.00000000000E+00 -0.31151792719E+04  0.31151792719E+04  0.00000000000E+00 0. -1.
         23    2    1    2    0    0  0.19216189501E+03 -0.35144900444E+03 -0.12582498715E+03  0.42848480709E+03  0.85584495694E+02 0.  0.
        254    2    1    2    0    0 -0.19216189501E+03  0.35144900444E+03 -0.27524742030E+04  0.29235745465E+04  0.90040618305E+03 0.  0.
         23    2    4    4    0    0 -0.52672377787E+03  0.30255021339E+03 -0.20295717654E+04  0.21204814282E+04  0.91133784590E+02 0.  0.
         23    2    4    4    0    0  0.33456188286E+03  0.48898791051E+02 -0.72290243762E+03  0.80309311837E+03  0.89709961608E+02 0.  0.
          4    1    3    3  502    0 -0.14596321527E+01 -0.94861407257E+01 -0.18943362959E+02  0.21236016389E+02  0.00000000000E+00 0. -1.
         -4    1    3    3    0  502  0.19362152716E+03 -0.34196286371E+03 -0.10688162419E+03  0.40724879070E+03  0.00000000000E+00 0.  1.
         11    1    5    5    0    0 -0.17092003114E+03  0.14466508178E+03 -0.80168862605E+03  0.83237389199E+03  0.00000000000E+00 0. -1.
        -11    1    5    5    0    0 -0.35580374674E+03  0.15788513161E+03 -0.12278831393E+04  0.12881075362E+04  0.00000000000E+00 0.  1.
          1    1    6    6  503    0  0.12003747908E+03 -0.22877090960E+02 -0.22009620522E+03  0.25174331615E+03  0.00000000000E+00 0. -1.
         -1    1    6    6    0  503  0.21452440378E+03  0.71775882011E+02 -0.50280623241E+03  0.55134980222E+03  0.00000000000E+00 0.  1.
<mgrwt>
<rscale>  0 0.17180500E+04</rscale>
<asrwt>0</asrwt>
<pdfrwt beam="1">  1        1 0.47925831E+00 0.17180500E+04</pdfrwt>
<pdfrwt beam="2">  1       -1 0.36443092E-01 0.17180500E+04</pdfrwt>
<totfact> 0.33869468E+00</totfact>
</mgrwt>
</event>
<event>
12    2  0.3518828E-008  0.1368645E+04  0.7818608E-02  0.8976833E-01
          2   -1    0    0  501    0  0.00000000000E+00  0.00000000000E+00  0.15399798161E+04  0.15399798161E+04  0.00000000000E+00 0. -1.
         -2   -1    0    0    0  501 -0.00000000000E+00 -0.00000000000E+00 -0.30409301804E+03  0.30409301804E+03  0.00000000000E+00 0.  1.
         23    2    1    2    0    0  0.95182180557E+02  0.30494189778E+03  0.62309866992E+03  0.70954930261E+03  0.11471291061E+03 0.  0.
        254    2    1    2    0    0 -0.95182180557E+02 -0.30494189778E+03  0.61278812814E+03  0.11345235315E+04  0.89976949552E+03 0.  0.
         23    2    4    4    0    0  0.18503652444E+03 -0.80937668615E+02 -0.16320172416E+03  0.27473827357E+03  0.89760206180E+02 0.  0.
         23    2    4    4    0    0 -0.28021870500E+03 -0.22400422917E+03  0.77598985230E+03  0.85978525796E+03  0.91487822146E+02 0.  0.
          1    1    3    3  502    0  0.10895795288E+03  0.21065373267E+03  0.37411949752E+03  0.44295849581E+03  0.00000000000E+00 0. -1.
         -1    1    3    3    0  502 -0.13775772321E+02  0.94288165114E+02  0.24897917240E+03  0.26659080680E+03  0.00000000000E+00 0.  1.
         11    1    5    5    0    0  0.78261406022E+02 -0.77315369825E+02 -0.10928814820E+03  0.15506906017E+03  0.00000000000E+00 0. -1.
        -11    1    5    5    0    0  0.10677511842E+03 -0.36222987895E+01 -0.53913575958E+02  0.11966921340E+03  0.00000000000E+00 0.  1.
          4    1    6    6  503    0 -0.16308151190E+03 -0.15317397609E+03  0.57123184950E+03  0.61348485912E+03  0.00000000000E+00 0. -1.
         -4    1    6    6    0  503 -0.11713719310E+03 -0.70830253078E+02  0.20475800280E+03  0.24630039884E+03  0.00000000000E+00 0.  1.
<mgrwt>
<rscale>  0 0.13686447E+04</rscale>
<asrwt>0</asrwt>
<pdfrwt beam="1">  1        2 0.23691997E+00 0.13686447E+04</pdfrwt>
<pdfrwt beam="2">  1       -2 0.46783542E-01 0.13686447E+04</pdfrwt>
<totfact> 0.50904873E+01</totfact>
</mgrwt>
</event>
<event>
12    2  0.3518828E-008  0.1228740E+04  0.7818608E-02  0.9088066E-01
         -2   -1    0    0    0  501 -0.00000000000E+00  0.00000000000E+00  0.30501729015E+03  0.30501729015E+03  0.00000000000E+00 0.  1.
          2   -1    0    0  501    0  0.00000000000E+00 -0.00000000000E+00 -0.12374730368E+04  0.12374730368E+04  0.00000000000E+00 0. -1.
         23    2    1    2    0    0 -0.16059380266E+03  0.11416944954E+03 -0.47421540686E+03  0.52154041727E+03  0.91099517440E+02 0.  0.
        254    2    1    2    0    0  0.16059380266E+03 -0.11416944954E+03 -0.45824033977E+03  0.10209499097E+04  0.89080271462E+03 0.  0.
         23    2    4    4    0    0 -0.30586795782E+03  0.91344698213E+02 -0.52754135258E+01  0.33214422625E+03  0.91612747664E+02 0.  0.
         23    2    4    4    0    0  0.46646176047E+03 -0.20551414775E+03 -0.45296492624E+03  0.68880568341E+03  0.97228628377E+02 0.  0.
          1    1    3    3  502    0 -0.11162035828E+03  0.89913158529E+02 -0.42307021345E+03  0.44668992150E+03  0.00000000000E+00 0. -1.
         -1    1    3    3    0  502 -0.48973444378E+02  0.24256291012E+02 -0.51145193415E+02  0.74850495772E+02  0.00000000000E+00 0.  1.
         11    1    5    5    0    0 -0.18137540194E+02 -0.15157371269E+02  0.82557429498E+01  0.25037443154E+02  0.00000000000E+00 0.  1.
        -11    1    5    5    0    0 -0.28773041762E+03  0.10650206948E+03 -0.13531156476E+02  0.30710678310E+03  0.00000000000E+00 0. -1.
          3    1    6    6  503    0  0.36087825711E+03 -0.19265511982E+03 -0.39002180472E+03  0.56521334008E+03  0.00000000000E+00 0. -1.
         -3    1    6    6    0  503  0.10558350336E+03 -0.12859027929E+02 -0.62943121525E+02  0.12359234332E+03  0.00000000000E+00 0.  1.
<mgrwt>
<rscale>  0 0.12287403E+04</rscale>
<asrwt>0</asrwt>
<pdfrwt beam="1">  1        2 0.19038046E+00 0.12287403E+04</pdfrwt>
<pdfrwt beam="2">  1       -2 0.46925738E-01 0.12287403E+04</pdfrwt>
<totfact> 0.76252374E+01</totfact>
</mgrwt>
</event>
<event>
12    2  0.3518828E-008  0.1420123E+04  0.7818608E-02  0.8939380E-01
         -1   -1    0    0    0  501 -0.00000000000E+00  0.00000000000E+00  0.14738003113E+04  0.14738003113E+04  0.00000000000E+00 0.  1.
          1   -1    0    0  501    0  0.00000000000E+00 -0.00000000000E+00 -0.34210020089E+03  0.34210020089E+03  0.00000000000E+00 0. -1.
         23    2    1    2    0    0  0.15898008638E+02 -0.21037838300E+03 -0.15344303978E+03  0.27639506946E+03  0.91310772928E+02 0.  0.
        254    2    1    2    0    0 -0.15898008638E+02  0.21037838300E+03  0.12851431502E+04  0.15395054428E+04  0.82095814815E+03 0.  0.
         23    2    4    4    0    0 -0.13728615793E+03  0.27813052647E+03  0.13281806669E+04  0.13669508607E+04  0.91031273142E+02 0.  0.
         23    2    4    4    0    0  0.12138814929E+03 -0.67752143468E+02 -0.43037516711E+02  0.17255458204E+03  0.92722274596E+02 0.  0.
          4    1    3    3  502    0 -0.15597003567E+02 -0.18344310144E+03 -0.14439803949E+03  0.23397741728E+03  0.00000000000E+00 0. -1.
         -4    1    3    3    0  502  0.31495012204E+02 -0.26935281555E+02 -0.90450002855E+01  0.42417652179E+02  0.00000000000E+00 0.  1.
         11    1    5    5    0    0 -0.10358558610E+03  0.13028666507E+03  0.57244190197E+03  0.59614957844E+03  0.00000000000E+00 0.  1.
        -11    1    5    5    0    0 -0.33700571834E+02  0.14784386140E+03  0.75573876496E+03  0.77080128227E+03  0.00000000000E+00 0. -1.
          2    1    6    6  503    0  0.12040377025E+02  0.22233636958E+02 -0.96114008721E+01  0.27049663917E+02  0.00000000000E+00 0. -1.
         -2    1    6    6    0  503  0.10934777227E+03 -0.89985780427E+02 -0.33426115838E+02  0.14550491813E+03  0.00000000000E+00 0.  1.
<mgrwt>
<rscale>  0 0.14201231E+04</rscale>
<asrwt>0</asrwt>
<pdfrwt beam="1">  1        1 0.52630801E-01 0.14201231E+04</pdfrwt>
<pdfrwt beam="2">  1       -1 0.22673851E+00 0.14201231E+04</pdfrwt>
<totfact> 0.71311710E+00</totfact>
</mgrwt>
</event>
<event>
12    2  0.3518828E-008  0.1640315E+04  0.7818608E-02  0.8796157E-01
          2   -1    0    0  501    0  0.00000000000E+00  0.00000000000E+00  0.21964373971E+04  0.21964373971E+04  0.00000000000E+00 0. -1.
         -2   -1    0    0    0  501 -0.00000000000E+00 -0.00000000000E+00 -0.30624981735E+03  0.30624981735E+03  0.00000000000E+00 0.  1.
         23    2    1    2    0    0 -0.35391773397E+03  0.24821683159E+03  0.12177672600E+04  0.12946206498E+04  0.78842688433E+02 0.  0.
        254    2    1    2    0    0  0.35391773397E+03 -0.24821683159E+03  0.67242031969E+03  0.12080665646E+04  0.90576287194E+03 0.  0.
         23    2    4    4    0    0  0.49669358294E+03 -0.22911594578E+03  0.41808395776E+02  0.55517251918E+03  0.85264014391E+02 0.  0.
         23    2    4    4    0    0 -0.14277584897E+03 -0.19100885806E+02  0.63061192392E+03  0.65289404539E+03  0.88597116370E+02 0.  0.
          3    1    3    3  502    0 -0.10026049919E+03  0.66693187468E+02  0.45196760865E+03  0.46773375784E+03  0.00000000000E+00 0. -1.
         -3    1    3    3    0  502 -0.25365723477E+03  0.18152364412E+03  0.76579965137E+03  0.82688689200E+03  0.00000000000E+00 0.  1.
         11    1    5    5    0    0  0.32040807675E+02 -0.37700516089E+02 -0.82121678286E+01  0.50153583823E+02  0.00000000000E+00 0. -1.
        -11    1    5    5    0    0  0.46465277526E+03 -0.19141542969E+03  0.50020563605E+02  0.50501893536E+03  0.00000000000E+00 0.  1.
          1    1    6    6  503    0 -0.11261000868E+02  0.14261882595E+02  0.21344406452E+03  0.21421619947E+03  0.00000000000E+00 0. -1.
         -1    1    6    6    0  503 -0.13151484810E+03 -0.33362768401E+02  0.41716785939E+03  0.43867784592E+03  0.00000000000E+00 0.  1.
<mgrwt>
<rscale>  0 0.16403153E+04</rscale>
<asrwt>0</asrwt>
<pdfrwt beam="1">  1        2 0.33791344E+00 0.16403153E+04</pdfrwt>
<pdfrwt beam="2">  1       -2 0.47115358E-01 0.16403153E+04</pdfrwt>
<totfact> 0.21189232E+01</totfact>
</mgrwt>
</event>
<event>
12    2  0.3518828E-008  0.2821370E+04  0.7818608E-02  0.8296665E-01
          2   -1    0    0  501    0  0.00000000000E+00  0.00000000000E+00  0.39313211289E+04  0.39313211289E+04  0.00000000000E+00 0.  1.
         -2   -1    0    0    0  501 -0.00000000000E+00 -0.00000000000E+00 -0.50619920388E+03  0.50619920388E+03  0.00000000000E+00 0. -1.
         23    2    1    2    0    0  0.55558326385E+03  0.10729684652E+04  0.96079064816E+03  0.15465308392E+04  0.93299928350E+02 0.  0.
        254    2    1    2    0    0 -0.55558326385E+03 -0.10729684652E+04  0.24643312769E+04  0.28909894936E+04  0.90827172127E+03 0.  0.
         23    2    4    4    0    0  0.54141781311E+02 -0.45462226238E+03  0.15829756376E+04  0.16503984544E+04  0.91599426500E+02 0.  0.
         23    2    4    4    0    0 -0.60972504516E+03 -0.61834620279E+03  0.88135563922E+03  0.12405910392E+04  0.90342164010E+02 0.  0.
          4    1    3    3  502    0  0.14141289370E+03  0.26844804166E+03  0.19107015463E+03  0.35856625826E+03  0.00000000000E+00 0. -1.
         -4    1    3    3    0  502  0.41417037015E+03  0.80452042351E+03  0.76972049353E+03  0.11879645809E+04  0.00000000000E+00 0.  1.
         11    1    5    5    0    0  0.44050489320E+02 -0.80318514368E+02  0.27301691707E+03  0.28797525304E+03  0.00000000000E+00 0.  1.
        -11    1    5    5    0    0  0.10091291991E+02 -0.37430374801E+03  0.13099587206E+04  0.13624232013E+04  0.00000000000E+00 0. -1.
          3    1    6    6  503    0 -0.57595979227E+03 -0.60466924862E+03  0.85811635288E+03  0.11973797466E+04  0.00000000000E+00 0. -1.
         -3    1    6    6    0  503 -0.33765252886E+02 -0.13676954165E+02  0.23239286335E+02  0.43211292587E+02  0.00000000000E+00 0.  1.
<mgrwt>
<rscale>  0 0.28213696E+04</rscale>
<asrwt>0</asrwt>
<pdfrwt beam="1">  1        2 0.60481861E+00 0.28213696E+04</pdfrwt>
<pdfrwt beam="2">  1       -2 0.77876803E-01 0.28213696E+04</pdfrwt>
<totfact> 0.49551819E-01</totfact>
</mgrwt>
</event>
<event>
12    2  0.3518828E-008  0.1864559E+04  0.7818608E-02  0.8672701E-01
         -2   -1    0    0    0  501 -0.00000000000E+00  0.00000000000E+00  0.66550142442E+03  0.66550142442E+03  0.00000000000E+00 0.  1.
          2   -1    0    0  501    0  0.00000000000E+00 -0.00000000000E+00 -0.13060007314E+04  0.13060007314E+04  0.00000000000E+00 0. -1.
         23    2    1    2    0    0  0.75758911502E+02 -0.19598426973E+02  0.49975118466E+03  0.51399510569E+03  0.91193262303E+02 0.  0.
        254    2    1    2    0    0 -0.75758911502E+02  0.19598426973E+02 -0.11402504917E+04  0.14575070501E+04  0.90445127369E+03 0.  0.
         23    2    4    4    0    0 -0.47067935672E+03  0.47563133504E+02 -0.75620946101E+03  0.89648620685E+03  0.89629580206E+02 0.  0.
         23    2    4    4    0    0  0.39492044521E+03 -0.27964706530E+02 -0.38404103066E+03  0.56102084330E+03  0.10253141238E+03 0.  0.
          4    1    3    3  502    0 -0.94261507015E+01 -0.19962856655E+02  0.23132728096E+03  0.23237830983E+03  0.00000000000E+00 0. -1.
         -4    1    3    3    0  502  0.85185062204E+02  0.36442968132E+00  0.26842390370E+03  0.28161679586E+03  0.00000000000E+00 0.  1.
         11    1    5    5    0    0 -0.12986272764E+03  0.53576026422E+02 -0.23069679415E+03  0.27010318301E+03  0.00000000000E+00 0. -1.
        -11    1    5    5    0    0 -0.34081662908E+03 -0.60128929189E+01 -0.52551266685E+03  0.62638302384E+03  0.00000000000E+00 0.  1.
          1    1    6    6  503    0  0.31516191082E+01  0.14344859608E+02 -0.17570561190E+02  0.22900487346E+02  0.00000000000E+00 0. -1.
         -1    1    6    6    0  503  0.39176882611E+03 -0.42309566138E+02 -0.36647046947E+03  0.53812035595E+03  0.00000000000E+00 0.  1.
<mgrwt>
<rscale>  0 0.18645593E+04</rscale>
<asrwt>0</asrwt>
<pdfrwt beam="1">  1        2 0.20092319E+00 0.18645593E+04</pdfrwt>
<pdfrwt beam="2">  1       -2 0.10238484E+00 0.18645593E+04</pdfrwt>
<totfact> 0.12029097E+01</totfact>
</mgrwt>
</event>
<event>
12    2  0.3518828E-008  0.1403076E+04  0.7818608E-02  0.8951595E-01
          2   -1    0    0  501    0  0.00000000000E+00  0.00000000000E+00  0.52936370982E+03  0.52936370982E+03  0.00000000000E+00 0. -1.
         -2   -1    0    0    0  501 -0.00000000000E+00 -0.00000000000E+00 -0.92971155806E+03  0.92971155806E+03  0.00000000000E+00 0.  1.
         23    2    1    2    0    0  0.29192077830E+03  0.17250908219E+03 -0.29590271374E+03  0.46052844674E+03  0.97728757394E+02 0.  0.
        254    2    1    2    0    0 -0.29192077830E+03 -0.17250908219E+03 -0.10444513451E+03  0.99854682113E+03  0.93338622426E+03 0.  0.
         23    2    4    4    0    0 -0.10088633049E+03 -0.87517576607E+02  0.40742862329E+03  0.43835474745E+03  0.91210874577E+02 0.  0.
         23    2    4    4    0    0 -0.19103444780E+03 -0.84991505586E+02 -0.51187375780E+03  0.56019207368E+03  0.89903833186E+02 0.  0.
          4    1    3    3  502    0  0.67757545332E+02  0.30842517215E+02 -0.12360310940E+03  0.14429162994E+03  0.00000000000E+00 0. -1.
         -4    1    3    3    0  502  0.22416323296E+03  0.14166656498E+03 -0.17229960433E+03  0.31623681680E+03  0.00000000000E+00 0.  1.
         11    1    5    5    0    0 -0.12453667976E-01  0.36065504325E+01  0.12359355696E+03  0.12364616728E+03  0.00000000000E+00 0. -1.
        -11    1    5    5    0    0 -0.10087387682E+03 -0.91124127040E+02  0.28383506633E+03  0.31470858017E+03  0.00000000000E+00 0.  1.
          4    1    6    6  503    0 -0.28799862435E+02 -0.35927191063E+02 -0.48892019361E+02  0.67161184408E+02  0.00000000000E+00 0. -1.
         -4    1    6    6    0  503 -0.16223458537E+03 -0.49064314523E+02 -0.46298173844E+03  0.49303088927E+03  0.00000000000E+00 0.  1.
<mgrwt>
<rscale>  0 0.14030760E+04</rscale>
<asrwt>0</asrwt>
<pdfrwt beam="1">  1        2 0.81440571E-01 0.14030760E+04</pdfrwt>
<pdfrwt beam="2">  1       -2 0.14303255E+00 0.14030760E+04</pdfrwt>
<totfact> 0.19021540E+01</totfact>
</mgrwt>
</event>
<event>
12    2  0.3518828E-008  0.2665403E+04  0.7818608E-02  0.8346318E-01
         -2   -1    0    0    0  501 -0.00000000000E+00  0.00000000000E+00  0.12473516191E+04  0.12473516191E+04  0.00000000000E+00 0.  1.
          2   -1    0    0  501    0  0.00000000000E+00 -0.00000000000E+00 -0.14238916174E+04  0.14238916174E+04  0.00000000000E+00 0. -1.
         23    2    1    2    0    0 -0.14393161409E+03  0.11313801501E+04  0.17667136851E+03  0.11576098966E+04  0.90058574413E+02 0.  0.
        254    2    1    2    0    0  0.14393161409E+03 -0.11313801501E+04 -0.35321136682E+03  0.15136333399E+04  0.93037103599E+03 0.  0.
         23    2    4    4    0    0  0.62367360219E+02 -0.11613169255E+04 -0.31420950459E+02  0.11670259162E+04  0.91736163899E+02 0.  0.
         23    2    4    4    0    0  0.81564253875E+02  0.29936775489E+02 -0.32179041637E+03  0.34660742373E+03  0.95072057327E+02 0.  0.
          2    1    3    3  502    0 -0.65337183165E+02  0.22725974235E+03  0.41049821547E+02  0.24000213717E+03  0.00000000000E+00 0. -1.
         -2    1    3    3    0  502 -0.78594430929E+02  0.90412040770E+03  0.13562154696E+03  0.91760775945E+03  0.00000000000E+00 0.  1.
         11    1    5    5    0    0  0.37196503507E+02 -0.10792359820E+04 -0.40896531603E+02  0.10806509200E+04  0.00000000000E+00 0. -1.
        -11    1    5    5    0    0  0.25170856711E+02 -0.82080943591E+02  0.94755811444E+01  0.86374996187E+02  0.00000000000E+00 0.  1.
          1    1    6    6  503    0  0.40299300723E+02  0.61995517071E+02 -0.15331772598E+03  0.17021692887E+03  0.00000000000E+00 0. -1.
         -1    1    6    6    0  503  0.41264953153E+02 -0.32058741582E+02 -0.16847269039E+03  0.17639049486E+03  0.00000000000E+00 0.  1.
<mgrwt>
<rscale>  0 0.26654032E+04</rscale>
<asrwt>0</asrwt>
<pdfrwt beam="1">  1        2 0.21906025E+00 0.26654032E+04</pdfrwt>
<pdfrwt beam="2">  1       -2 0.19190025E+00 0.26654032E+04</pdfrwt>
<totfact> 0.18571655E+00</totfact>
</mgrwt>
</event>
<event>
12    2  0.3518828E-008  0.1287498E+04  0.7818608E-02  0.9039539E-01
          1   -1    0    0  501    0  0.00000000000E+00  0.00000000000E+00  0.19751258975E+04  0.19751258975E+04  0.00000000000E+00 0. -1.
         -1   -1    0    0    0  501 -0.00000000000E+00 -0.00000000000E+00 -0.20981581298E+03  0.20981581298E+03  0.00000000000E+00 0.  1.
         23    2    1    2    0    0 -0.42362286339E+02 -0.25272253461E+03  0.13381564229E+03  0.30114198613E+03  0.84360102443E+02 0.  0.
        254    2    1    2    0    0  0.42362286339E+02  0.25272253461E+03  0.16314944423E+04  0.18837997244E+04  0.90623619641E+03 0.  0.
         23    2    4    4    0    0  0.17363500169E+03  0.52611214831E+03  0.68435958846E+03  0.88525544852E+03  0.91575413682E+02 0.  0.
         23    2    4    4    0    0 -0.13127271535E+03 -0.27338961370E+03  0.94713485379E+03  0.99854427587E+03  0.89732006176E+02 0.  0.
          2    1    3    3  502    0  0.10280988404E+02 -0.15478403093E+02 -0.74860661795E+01  0.20032994577E+02  0.00000000000E+00 0. -1.
         -2    1    3    3    0  502 -0.52643274743E+02 -0.23724413152E+03  0.14130170847E+03  0.28110899155E+03  0.00000000000E+00 0.  1.
         11    1    5    5    0    0  0.75490411494E+02  0.35491032597E+03  0.41344453686E+03  0.55008774461E+03  0.00000000000E+00 0. -1.
        -11    1    5    5    0    0  0.98144590199E+02  0.17120182234E+03  0.27091505160E+03  0.33516770391E+03  0.00000000000E+00 0.  1.
          1    1    6    6  503    0 -0.99380086785E+02 -0.26523739341E+03  0.85620438718E+03  0.90183880441E+03  0.00000000000E+00 0. -1.
         -1    1    6    6    0  503 -0.31892628568E+02 -0.81522202972E+01  0.90930466612E+02  0.96705471464E+02  0.00000000000E+00 0.  1.
<mgrwt>
<rscale>  0 0.12874978E+04</rscale>
<asrwt>0</asrwt>
<pdfrwt beam="1">  1        1 0.30386551E+00 0.12874978E+04</pdfrwt>
<pdfrwt beam="2">  1       -1 0.32279357E-01 0.12874978E+04</pdfrwt>
<totfact> 0.27350417E+01</totfact>
</mgrwt>
</event>
<event>
12    2  0.3518828E-008  0.2007309E+04  0.7818608E-02  0.8603211E-01
         -1   -1    0    0    0  501 -0.00000000000E+00  0.00000000000E+00  0.48857163703E+03  0.48857163703E+03  0.00000000000E+00 0.  1.
          1   -1    0    0  501    0  0.00000000000E+00 -0.00000000000E+00 -0.20617694465E+04  0.20617694465E+04  0.00000000000E+00 0. -1.
         23    2    1    2    0    0  0.18357328590E+03 -0.74618510911E+03 -0.90536809960E+03  0.11909452318E+04  0.90375776949E+02 0.  0.
        254    2    1    2    0    0 -0.18357328590E+03  0.74618510911E+03 -0.66782970984E+03  0.13593958517E+04  0.90081584792E+03 0.  0.
         23    2    4    4    0    0 -0.17978022522E+03  0.47527081929E+03 -0.86887527702E+03  0.10105712186E+04  0.90036990772E+02 0.  0.
         23    2    4    4    0    0 -0.37930606832E+01  0.27091428981E+03  0.20104556718E+03  0.34882463312E+03  0.88602284683E+02 0.  0.
          4    1    3    3  502    0  0.11738918029E+03 -0.61134203841E+03 -0.70455450484E+03  0.94016826041E+03  0.00000000000E+00 0. -1.
         -4    1    3    3    0  502  0.66184105609E+02 -0.13484307069E+03 -0.20081359476E+03  0.25077697140E+03  0.00000000000E+00 0.  1.
         11    1    5    5    0    0 -0.20501608170E+02  0.65246507880E+02 -0.65728427584E+02  0.94855937720E+02  0.00000000000E+00 0. -1.
        -11    1    5    5    0    0 -0.15927861705E+03  0.41002431141E+03 -0.80314684944E+03  0.91571528084E+03  0.00000000000E+00 0.  1.
          3    1    6    6  503    0 -0.13477793093E+02  0.46894915511E+01  0.27205955890E+02  0.30721430200E+02  0.00000000000E+00 0. -1.
         -3    1    6    6    0  503  0.96847324097E+01  0.26622479826E+03  0.17383961130E+03  0.31810320292E+03  0.00000000000E+00 0.  1.
<mgrwt>
<rscale>  0 0.20073087E+04</rscale>
<asrwt>0</asrwt>
<pdfrwt beam="1">  1        1 0.31719530E+00 0.20073087E+04</pdfrwt>
<pdfrwt beam="2">  1       -1 0.75164867E-01 0.20073087E+04</pdfrwt>
<totfact> 0.44637715E+00</totfact>
</mgrwt>
</event>
<event>
12    2  0.3518828E-008  0.1293188E+04  0.7818608E-02  0.9034984E-01
          1   -1    0    0  501    0  0.00000000000E+00  0.00000000000E+00  0.16654989373E+03  0.16654989373E+03  0.00000000000E+00 0. -1.
         -1   -1    0    0    0  501 -0.00000000000E+00 -0.00000000000E+00 -0.25102627578E+04  0.25102627578E+04  0.00000000000E+00 0.  1.
         23    2    1    2    0    0 -0.57726257469E+02 -0.12212907716E+03 -0.12230830185E+04  0.12339341677E+04  0.91725828104E+02 0.  0.
        254    2    1    2    0    0  0.57726257469E+02  0.12212907716E+03 -0.11206298455E+04  0.14428784839E+04  0.89879877407E+03 0.  0.
         23    2    4    4    0    0  0.99436256914E+02 -0.16366685713E+03 -0.11197387825E+04  0.11401893277E+04  0.97684965934E+02 0.  0.
         23    2    4    4    0    0 -0.41709999445E+02  0.28579593430E+03 -0.89106297141E+00  0.30268915617E+03  0.90558771833E+02 0.  0.
          4    1    3    3  502    0 -0.12272289122E+02  0.85763358501E-01 -0.17814102394E+02  0.21632352617E+02  0.00000000000E+00 0. -1.
         -4    1    3    3    0  502 -0.45453968346E+02 -0.12221484052E+03 -0.12052689162E+04  0.12123018150E+04  0.00000000000E+00 0.  1.
         11    1    5    5    0    0  0.72632292761E+02 -0.16917638904E+03 -0.10316083825E+04  0.10479083717E+04  0.00000000000E+00 0. -1.
        -11    1    5    5    0    0  0.26803964153E+02  0.55095319023E+01 -0.88130400020E+02  0.92280956019E+02  0.00000000000E+00 0.  1.
          4    1    6    6  503    0  0.58115168364E+00  0.23926251149E+03  0.66698167559E+01  0.23935616473E+03  0.00000000000E+00 0. -1.
         -4    1    6    6    0  503 -0.42291151129E+02  0.46533422810E+02 -0.75608797273E+01  0.63332991438E+02  0.00000000000E+00 0.  1.
<mgrwt>
<rscale>  0 0.12931883E+04</rscale>
<asrwt>0</asrwt>
<pdfrwt beam="1">  1        1 0.25623061E-01 0.12931883E+04</pdfrwt>
<pdfrwt beam="2">  1       -1 0.38619426E+00 0.12931883E+04</pdfrwt>
<totfact> 0.16699991E+00</totfact>
</mgrwt>
</event>
<event>
12    2  0.3518828E-008  0.1290232E+04  0.7818608E-02  0.9037347E-01
          2   -1    0    0  501    0  0.00000000000E+00  0.00000000000E+00  0.10498464923E+04  0.10498464923E+04  0.00000000000E+00 0. -1.
         -2   -1    0    0    0  501 -0.00000000000E+00 -0.00000000000E+00 -0.39641467269E+03  0.39641467269E+03  0.00000000000E+00 0.  1.
         23    2    1    2    0    0  0.20515738116E+03  0.10113423428E+03  0.28852953365E+03  0.37937520676E+03  0.91425222628E+02 0.  0.
        254    2    1    2    0    0 -0.20515738116E+03 -0.10113423428E+03  0.36490228592E+03  0.10668859582E+04  0.97610157520E+03 0.  0.
         23    2    4    4    0    0 -0.40140121633E+03 -0.26510872006E+03  0.55152367348E+03  0.73883901344E+03  0.10148475480E+03 0.  0.
         23    2    4    4    0    0  0.19624383517E+03  0.16397448578E+03 -0.18662138756E+03  0.32804694474E+03  0.85953364284E+02 0.  0.
          1    1    3    3  502    0  0.25601757496E+02  0.58389058041E+01 -0.20728796331E+00  0.26259965274E+02  0.00000000000E+00 0.  1.
         -1    1    3    3    0  502  0.17955562366E+03  0.95295328479E+02  0.28873682161E+03  0.35311524149E+03  0.00000000000E+00 0. -1.
         11    1    5    5    0    0 -0.36488505852E+03 -0.19815555345E+03  0.45916950322E+03  0.61906652469E+03  0.00000000000E+00 0. -1.
        -11    1    5    5    0    0 -0.36516157809E+02 -0.66953166606E+02  0.92354170252E+02  0.11977248876E+03  0.00000000000E+00 0.  1.
          3    1    6    6  503    0  0.13165907704E+03  0.15041516856E+03 -0.11482534910E+03  0.23052916582E+03  0.00000000000E+00 0. -1.
         -3    1    6    6    0  503  0.64584758138E+02  0.13559317215E+02 -0.71796038460E+02  0.97517778921E+02  0.00000000000E+00 0.  1.
<mgrwt>
<rscale>  0 0.12902318E+04</rscale>
<asrwt>0</asrwt>
<pdfrwt beam="1">  1        2 0.16151484E+00 0.12902318E+04</pdfrwt>
<pdfrwt beam="2">  1       -2 0.60986873E-01 0.12902318E+04</pdfrwt>
<totfact> 0.57460522E+01</totfact>
</mgrwt>
</event>
<event>
12    2  0.3518828E-008  0.1207806E+04  0.7818608E-02  0.9106051E-01
          1   -1    0    0  501    0  0.00000000000E+00  0.00000000000E+00  0.12781008093E+04  0.12781008093E+04  0.00000000000E+00 0. -1.
         -1   -1    0    0    0  501 -0.00000000000E+00 -0.00000000000E+00 -0.28534453843E+03  0.28534453843E+03  0.00000000000E+00 0.  1.
         23    2    1    2    0    0 -0.11992808770E+03  0.24152527045E+03  0.31547999559E+03  0.42488208220E+03  0.90994250767E+02 0.  0.
        254    2    1    2    0    0  0.11992808770E+03 -0.24152527045E+03  0.67727627523E+03  0.11385632655E+04  0.87458902008E+03 0.  0.
         23    2    4    4    0    0 -0.19776866810E+02  0.24704297169E+03 -0.27485992584E+02  0.26461326842E+03  0.88562676735E+02 0.  0.
         23    2    4    4    0    0  0.13970495451E+03 -0.48856824215E+03  0.70476226782E+03  0.87394999707E+03  0.94246176053E+02 0.  0.
          4    1    3    3  502    0 -0.82301960861E+02  0.17579156705E+03  0.15854122796E+03  0.25062244267E+03  0.00000000000E+00 0. -1.
         -4    1    3    3    0  502 -0.37626126836E+02  0.65733703403E+02  0.15693876763E+03  0.17425963953E+03  0.00000000000E+00 0.  1.
         11    1    5    5    0    0 -0.46935238865E+02  0.21172640997E+03 -0.11121237680E+02  0.21715126353E+03  0.00000000000E+00 0. -1.
        -11    1    5    5    0    0  0.27158372056E+02  0.35316561723E+02 -0.16364754903E+02  0.47462004885E+02  0.00000000000E+00 0.  1.
          2    1    6    6  503    0  0.96629638128E+02 -0.18325392069E+03  0.25310465882E+03  0.32707989044E+03  0.00000000000E+00 0. -1.
         -2    1    6    6    0  503  0.43075316379E+02 -0.30531432145E+03  0.45165760899E+03  0.54687010663E+03  0.00000000000E+00 0.  1.
<mgrwt>
<rscale>  0 0.12078064E+04</rscale>
<asrwt>0</asrwt>
<pdfrwt beam="1">  1        1 0.19663089E+00 0.12078064E+04</pdfrwt>
<pdfrwt beam="2">  1       -1 0.43899160E-01 0.12078064E+04</pdfrwt>
<totfact> 0.47565235E+01</totfact>
</mgrwt>
</event>
<event>
12    2  0.3518828E-008  0.1569919E+04  0.7818608E-02  0.8839244E-01
         -2   -1    0    0    0  501 -0.00000000000E+00  0.00000000000E+00  0.43893672567E+03  0.43893672567E+03  0.00000000000E+00 0.  1.
          2   -1    0    0  501    0  0.00000000000E+00 -0.00000000000E+00 -0.14037594141E+04  0.14037594141E+04  0.00000000000E+00 0. -1.
         23    2    1    2    0    0 -0.30883591535E+03 -0.42210927523E+03 -0.38997035798E+03  0.65875077076E+03  0.91213129708E+02 0.  0.
        254    2    1    2    0    0  0.30883591535E+03  0.42210927523E+03 -0.57485233050E+03  0.11839453690E+04  0.89314924406E+03 0.  0.
         23    2    4    4    0    0  0.21663819549E+03  0.40839079963E+03  0.11341293072E+03  0.48346461772E+03  0.84619092234E+02 0.  0.
         23    2    4    4    0    0  0.92197719862E+02  0.13718475606E+02 -0.68826526122E+03  0.70048075133E+03  0.90970308610E+02 0.  0.
          1    1    3    3  502    0 -0.21335385817E+03 -0.24079734662E+03 -0.19680185913E+03  0.37713950031E+03  0.00000000000E+00 0. -1.
         -1    1    3    3    0  502 -0.95482057181E+02 -0.18131192861E+03 -0.19316849884E+03  0.28161127045E+03  0.00000000000E+00 0.  1.
         11    1    5    5    0    0  0.71026565988E+02  0.21827006733E+03  0.70969903716E+02  0.24025678471E+03  0.00000000000E+00 0.  1.
        -11    1    5    5    0    0  0.14561162950E+03  0.19012073230E+03  0.42443027008E+02  0.24320783301E+03  0.00000000000E+00 0. -1.
          2    1    6    6  503    0  0.31924762509E+02  0.34376314838E+02 -0.12312132395E+03  0.13175652505E+03  0.00000000000E+00 0. -1.
         -2    1    6    6    0  503  0.60272957353E+02 -0.20657839232E+02 -0.56514393728E+03  0.56872422627E+03  0.00000000000E+00 0.  1.
<mgrwt>
<rscale>  0 0.15699192E+04</rscale>
<asrwt>0</asrwt>
<pdfrwt beam="1">  1        2 0.21596299E+00 0.15699192E+04</pdfrwt>
<pdfrwt beam="2">  1       -2 0.67528727E-01 0.15699192E+04</pdfrwt>
<totfact> 0.27819938E+01</totfact>
</mgrwt>
</event>
<event>
12    2  0.3518828E-008  0.1301286E+04  0.7818608E-02  0.9028546E-01
          1   -1    0    0  501    0  0.00000000000E+00  0.00000000000E+00  0.16874292613E+04  0.16874292613E+04  0.00000000000E+00 0. -1.
         -1   -1    0    0    0  501 -0.00000000000E+00 -0.00000000000E+00 -0.25087630385E+03  0.25087630385E+03  0.00000000000E+00 0.  1.
         23    2    1    2    0    0  0.28627307896E+03  0.16854508054E+03  0.21475837569E+03  0.40567637628E+03  0.89958003717E+02 0.  0.
        254    2    1    2    0    0 -0.28627307896E+03 -0.16854508054E+03  0.12217945818E+04  0.15326291889E+04  0.86360321369E+03 0.  0.
         23    2    4    4    0    0  0.28573182006E+03 -0.17149556472E+03  0.42558710525E+03  0.54795976631E+03  0.89900609721E+02 0.  0.
         23    2    4    4    0    0 -0.57200489901E+03  0.29504841791E+01  0.79620747654E+03  0.98466942261E+03  0.91810763293E+02 0.  0.
          4    1    3    3  502    0  0.74768024856E+02  0.66840063890E+02  0.23698271167E+02  0.10305076292E+03  0.00000000000E+00 0. -1.
         -4    1    3    3    0  502  0.21150505410E+03  0.10170501665E+03  0.19106010453E+03  0.30262561336E+03  0.00000000000E+00 0.  1.
         11    1    5    5    0    0  0.93754985628E+02 -0.51504308156E+02  0.75051168581E+02  0.13067275536E+03  0.00000000000E+00 0. -1.
        -11    1    5    5    0    0  0.19197683443E+03 -0.11999125657E+03  0.35053593667E+03  0.41728701095E+03  0.00000000000E+00 0.  1.
          1    1    6    6  503    0 -0.21303625019E+03 -0.17219834885E+02  0.36774247070E+03  0.42534161725E+03  0.00000000000E+00 0. -1.
         -1    1    6    6    0  503 -0.35896864883E+03  0.20170319064E+02  0.42846500584E+03  0.55932780535E+03  0.00000000000E+00 0.  1.
<mgrwt>
<rscale>  0 0.13012855E+04</rscale>
<asrwt>0</asrwt>
<pdfrwt beam="1">  1        1 0.25960449E+00 0.13012855E+04</pdfrwt>
<pdfrwt beam="2">  1       -1 0.38596356E-01 0.13012855E+04</pdfrwt>
<totfact> 0.31056255E+01</totfact>
</mgrwt>
</event>
<event>
12    2  0.3518828E-008  0.1174956E+04  0.7818608E-02  0.9135064E-01
         -2   -1    0    0    0  501 -0.00000000000E+00  0.00000000000E+00  0.48810246338E+03  0.48810246338E+03  0.00000000000E+00 0. -1.
          2   -1    0    0  501    0  0.00000000000E+00 -0.00000000000E+00 -0.70708596944E+03  0.70708596944E+03  0.00000000000E+00 0.  1.
         23    2    1    2    0    0 -0.15842770743E+03 -0.87870867588E+02 -0.90835218685E+02  0.22313919776E+03  0.93377924444E+02 0.  0.
        254    2    1    2    0    0  0.15842770743E+03  0.87870867588E+02 -0.12814828737E+03  0.97204923506E+03  0.94638105643E+03 0.  0.
         23    2    4    4    0    0  0.83273490244E+02  0.47286399863E+03 -0.25310384424E+03  0.55058439461E+03  0.92448819615E+02 0.  0.
         23    2    4    4    0    0  0.75154217185E+02 -0.38499313104E+03  0.12495555686E+03  0.42146484045E+03  0.90282075934E+02 0.  0.
          1    1    3    3  502    0 -0.11332402854E+03 -0.30692981578E+02 -0.15614829221E+02  0.11844077615E+03  0.00000000000E+00 0. -1.
         -1    1    3    3    0  502 -0.45103678888E+02 -0.57177886009E+02 -0.75220389464E+02  0.10469842162E+03  0.00000000000E+00 0.  1.
         11    1    5    5    0    0  0.52158986482E+02  0.38257542894E+03 -0.23886969558E+03  0.45403001021E+03  0.00000000000E+00 0.  1.
        -11    1    5    5    0    0  0.31114503762E+02  0.90288569686E+02 -0.14234148657E+02  0.96554384407E+02  0.00000000000E+00 0. -1.
          3    1    6    6  503    0  0.19658093789E+02 -0.14774474609E+03  0.31920599144E+01  0.14908098435E+03  0.00000000000E+00 0. -1.
         -3    1    6    6    0  503  0.55496123396E+02 -0.23724838495E+03  0.12176349695E+03  0.27238385610E+03  0.00000000000E+00 0.  1.
<mgrwt>
<rscale>  0 0.11749560E+04</rscale>
<asrwt>0</asrwt>
<pdfrwt beam="1">  1        2 0.10878246E+00 0.11749560E+04</pdfrwt>
<pdfrwt beam="2">  1       -2 0.75092687E-01 0.11749560E+04</pdfrwt>
<totfact> 0.63699428E+01</totfact>
</mgrwt>
</event>
<event>
12    2  0.3518828E-008  0.1044747E+04  0.7818608E-02  0.9260784E-01
          1   -1    0    0  501    0  0.00000000000E+00  0.00000000000E+00  0.20370132566E+03  0.20370132566E+03  0.00000000000E+00 0. -1.
         -1   -1    0    0    0  501 -0.00000000000E+00 -0.00000000000E+00 -0.13395797801E+04  0.13395797801E+04  0.00000000000E+00 0.  1.
         23    2    1    2    0    0  0.11207578860E+03 -0.96430536820E+01 -0.15991617426E+03  0.21541296017E+03  0.90418967843E+02 0.  0.
        254    2    1    2    0    0 -0.11207578860E+03  0.96430536820E+01 -0.97596228019E+03  0.13278681456E+04  0.89335181696E+03 0.  0.
         23    2    4    4    0    0 -0.46359898038E+03 -0.15591677851E+03 -0.48453583958E+03  0.69466380390E+03  0.92459527246E+02 0.  0.
         23    2    4    4    0    0  0.35152319178E+03  0.16555983219E+03 -0.49142644061E+03  0.63320434170E+03  0.92028144709E+02 0.  0.
          3    1    3    3  502    0  0.64883742710E+02 -0.40402409957E+02 -0.48381344522E+02  0.90459987266E+02  0.00000000000E+00 0. -1.
         -3    1    3    3    0  502  0.47192045893E+02  0.30759356275E+02 -0.11153482974E+03  0.12495297291E+03  0.00000000000E+00 0.  1.
         11    1    5    5    0    0 -0.35952969016E+03 -0.97724988896E+02 -0.41025448426E+03  0.55418454816E+03  0.00000000000E+00 0. -1.
        -11    1    5    5    0    0 -0.10406929023E+03 -0.58191789610E+02 -0.74281355322E+02  0.14047925575E+03  0.00000000000E+00 0.  1.
          4    1    6    6  503    0  0.28150421279E+03  0.15644006021E+03 -0.44254770680E+03  0.54732676442E+03  0.00000000000E+00 0.  1.
         -4    1    6    6    0  503  0.70018978992E+02  0.91197719758E+01 -0.48878733811E+02  0.85877577277E+02  0.00000000000E+00 0. -1.
<mgrwt>
<rscale>  0 0.10447472E+04</rscale>
<asrwt>0</asrwt>
<pdfrwt beam="1">  1        1 0.31338665E-01 0.10447472E+04</pdfrwt>
<pdfrwt beam="2">  1       -1 0.20608920E+00 0.10447472E+04</pdfrwt>
<totfact> 0.19887277E+01</totfact>
</mgrwt>
</event>
<event>
12    2  0.3518828E-008  0.1236176E+04  0.7818608E-02  0.9081768E-01
         -1   -1    0    0    0  501 -0.00000000000E+00  0.00000000000E+00  0.33917017233E+03  0.33917017233E+03  0.00000000000E+00 0. -1.
          1   -1    0    0  501    0  0.00000000000E+00 -0.00000000000E+00 -0.11263745675E+04  0.11263745675E+04  0.00000000000E+00 0.  1.
         23    2    1    2    0    0 -0.12161292640E+03  0.16017964137E+03  0.58201816412E+02  0.23013750261E+03  0.95543693138E+02 0.  0.
        254    2    1    2    0    0  0.12161292640E+03 -0.16017964137E+03 -0.84540621157E+03  0.12354072372E+04  0.87810714484E+03 0.  0.
         23    2    4    4    0    0  0.41925731565E+03  0.28977016870E+02 -0.15958445782E+03  0.45884328862E+03  0.91943461465E+02 0.  0.
         23    2    4    4    0    0 -0.29764438924E+03 -0.18915665824E+03 -0.68582175375E+03  0.77656394859E+03  0.91256038318E+02 0.  0.
          1    1    3    3  502    0 -0.87234461898E+02  0.38824361446E+02  0.36125164751E+02  0.10208922525E+03  0.00000000000E+00 0. -1.
         -1    1    3    3    0  502 -0.34378464506E+02  0.12135527992E+03  0.22076651660E+02  0.12804827736E+03  0.00000000000E+00 0.  1.
         11    1    5    5    0    0  0.25947900917E+03  0.43854795845E+02 -0.13733344222E+03  0.29683846393E+03  0.00000000000E+00 0.  1.
        -11    1    5    5    0    0  0.15977830648E+03 -0.14877778974E+02 -0.22251015606E+02  0.16200482469E+03  0.00000000000E+00 0. -1.
          1    1    6    6  503    0 -0.26894089581E+02  0.57869300135E+01 -0.84812339815E+02  0.89162287983E+02  0.00000000000E+00 0. -1.
         -1    1    6    6    0  503 -0.27075029966E+03 -0.19494358825E+03 -0.60100941393E+03  0.68740166060E+03  0.00000000000E+00 0.  1.
<mgrwt>
<rscale>  0 0.12361758E+04</rscale>
<asrwt>0</asrwt>
<pdfrwt beam="1">  1        1 0.17328840E+00 0.12361758E+04</pdfrwt>
<pdfrwt beam="2">  1       -1 0.52180026E-01 0.12361758E+04</pdfrwt>
<totfact> 0.44221880E+01</totfact>
</mgrwt>
</event>
<event>
12    2  0.3518828E-008  0.1436687E+04  0.7818608E-02  0.8927683E-01
         -1   -1    0    0    0  501 -0.00000000000E+00  0.00000000000E+00  0.73447219981E+03  0.73447219981E+03  0.00000000000E+00 0. -1.
          1   -1    0    0  501    0  0.00000000000E+00 -0.00000000000E+00 -0.70256868801E+03  0.70256868801E+03  0.00000000000E+00 0.  1.
         23    2    1    2    0    0 -0.26968101028E+03 -0.32317800398E+03 -0.44186961247E+02  0.43286803606E+03  0.90831599893E+02 0.  0.
        254    2    1    2    0    0  0.26968101028E+03  0.32317800398E+03  0.76090473056E+02  0.10041728518E+04  0.90851609042E+03 0.  0.
         23    2    4    4    0    0  0.79750623620E+02  0.57449826503E+03  0.24370230450E+03  0.63584938489E+03  0.92223687631E+02 0.  0.
         23    2    4    4    0    0  0.18993038666E+03 -0.25132026104E+03 -0.16761183145E+03  0.36832346686E+03  0.91285403074E+02 0.  0.
          1    1    3    3  502    0 -0.33184359071E+02 -0.40950178995E+01 -0.34338920537E+01  0.33611939444E+02  0.00000000000E+00 0. -1.
         -1    1    3    3    0  502 -0.23649665121E+03 -0.31908298608E+03 -0.40753069194E+02  0.39925609662E+03  0.00000000000E+00 0.  1.
         11    1    5    5    0    0  0.17550338024E+01  0.13861311204E+02 -0.82995322340E+01  0.16251102339E+02  0.00000000000E+00 0. -1.
        -11    1    5    5    0    0  0.77995589818E+02  0.56063695382E+03  0.25200183674E+03  0.61959828255E+03  0.00000000000E+00 0.  1.
          3    1    6    6  503    0  0.65211990160E+02 -0.14833759618E+03 -0.11324666386E+03  0.19769029560E+03  0.00000000000E+00 0. -1.
         -3    1    6    6    0  503  0.12471839650E+03 -0.10298266487E+03 -0.54365167592E+02  0.17063317126E+03  0.00000000000E+00 0.  1.
<mgrwt>
<rscale>  0 0.14366867E+04</rscale>
<asrwt>0</asrwt>
<pdfrwt beam="1">  1        1 0.10808749E+00 0.14366867E+04</pdfrwt>
<pdfrwt beam="2">  1       -1 0.11299572E+00 0.14366867E+04</pdfrwt>
<totfact> 0.18865545E+01</totfact>
</mgrwt>
</event>
<event>
12    2  0.3518828E-008  0.2961361E+04  0.7818608E-02  0.8254851E-01
          2   -1    0    0  501    0  0.00000000000E+00  0.00000000000E+00  0.31135367645E+04  0.31135367645E+04  0.00000000000E+00 0. -1.
         -2   -1    0    0    0  501 -0.00000000000E+00 -0.00000000000E+00 -0.70415560055E+03  0.70415560055E+03  0.00000000000E+00 0.  1.
         23    2    1    2    0    0 -0.45839179854E+03 -0.10957220377E+04  0.19092480263E+04  0.22504397231E+04  0.92309784473E+02 0.  0.
        254    2    1    2    0    0  0.45839179854E+03  0.10957220377E+04  0.50013313765E+03  0.15672526420E+04  0.89186202058E+03 0.  0.
         23    2    4    4    0    0 -0.97840583517E+02  0.51404118682E+03 -0.12301223912E+03  0.54513420418E+03  0.90709250186E+02 0.  0.
         23    2    4    4    0    0  0.55623238206E+03  0.58168085084E+03  0.62314537677E+03  0.10221184378E+04  0.93106741322E+02 0.  0.
          1    1    3    3  502    0 -0.42760395330E+03 -0.96668656403E+03  0.16572326192E+04  0.19656418820E+04  0.00000000000E+00 0. -1.
         -1    1    3    3    0  502 -0.30787845242E+02 -0.12903547363E+03  0.25201540710E+03  0.28479784108E+03  0.00000000000E+00 0.  1.
         11    1    5    5    0    0 -0.11306019868E+03  0.38936943250E+03 -0.96145847737E+02  0.41669555737E+03  0.00000000000E+00 0.  1.
        -11    1    5    5    0    0  0.15219615165E+02  0.12467175431E+03 -0.26866391388E+02  0.12843864681E+03  0.00000000000E+00 0. -1.
          2    1    6    6  503    0  0.25580133699E+02  0.51156777945E+02  0.24552669222E+02  0.62243013549E+02  0.00000000000E+00 0. -1.
         -2    1    6    6    0  503  0.53065224836E+03  0.53052407290E+03  0.59859270755E+03  0.95987542429E+03  0.00000000000E+00 0.  1.
<mgrwt>
<rscale>  0 0.29613607E+04</rscale>
<asrwt>0</asrwt>
<pdfrwt beam="1">  1        2 0.47900565E+00 0.29613607E+04</pdfrwt>
<pdfrwt beam="2">  1       -2 0.10833163E+00 0.29613607E+04</pdfrwt>
<totfact> 0.86307599E-01</totfact>
</mgrwt>
</event>
<event>
12    2  0.3518828E-008  0.2782700E+04  0.7818608E-02  0.8308659E-01
          2   -1    0    0  501    0  0.00000000000E+00  0.00000000000E+00  0.14714108898E+04  0.14714108898E+04  0.00000000000E+00 0. -1.
         -2   -1    0    0    0  501 -0.00000000000E+00 -0.00000000000E+00 -0.13156456296E+04  0.13156456296E+04  0.00000000000E+00 0.  1.
         23    2    1    2    0    0  0.63508158237E+03 -0.26538243738E+03 -0.97180458508E+03  0.11940604815E+04  0.87291623495E+02 0.  0.
        254    2    1    2    0    0 -0.63508158237E+03  0.26538243738E+03  0.11275698453E+04  0.15929960379E+04  0.89020568766E+03 0.  0.
         23    2    4    4    0    0 -0.59998085799E+03 -0.15846211367E+03  0.39630835055E+03  0.74200033241E+03  0.91743736399E+02 0.  0.
         23    2    4    4    0    0 -0.35100724384E+02  0.42384455105E+03  0.73126149473E+03  0.85099570546E+03  0.92596180937E+02 0.  0.
          1    1    3    3  502    0  0.16963167170E+03 -0.61795374155E+02 -0.19366308561E+03  0.26476208762E+03  0.00000000000E+00 0. -1.
         -1    1    3    3    0  502  0.46544991067E+03 -0.20358706323E+03 -0.77814149947E+03  0.92929839387E+03  0.00000000000E+00 0.  1.
         11    1    5    5    0    0 -0.48250216304E+03 -0.89315681350E+02  0.31923295995E+03  0.58540183719E+03  0.00000000000E+00 0.  1.
        -11    1    5    5    0    0 -0.11747869495E+03 -0.69146432318E+02  0.77075390595E+02  0.15659849522E+03  0.00000000000E+00 0. -1.
          4    1    6    6  503    0  0.26229105607E+02  0.12642361964E+03  0.26124474201E+03  0.29140987082E+03  0.00000000000E+00 0.  1.
         -4    1    6    6    0  503 -0.61329829991E+02  0.29742093141E+03  0.47001675272E+03  0.55958583464E+03  0.00000000000E+00 0. -1.
<mgrwt>
<rscale>  0 0.27827003E+04</rscale>
<asrwt>0</asrwt>
<pdfrwt beam="1">  1        2 0.22637090E+00 0.27827003E+04</pdfrwt>
<pdfrwt beam="2">  1       -2 0.20240702E+00 0.27827003E+04</pdfrwt>
<totfact> 0.14726826E+00</totfact>
</mgrwt>
</event>
<event>
12    2  0.3518828E-008  0.1179871E+04  0.7818608E-02  0.9130660E-01
         -4   -1    0    0    0  501 -0.00000000000E+00  0.00000000000E+00  0.11099181974E+04  0.11099181974E+04  0.00000000000E+00 0.  1.
          4   -1    0    0  501    0  0.00000000000E+00 -0.00000000000E+00 -0.31355834711E+03  0.31355834711E+03  0.00000000000E+00 0. -1.
         23    2    1    2    0    0  0.64664029625E+02  0.43836895718E+02  0.41848571381E+03  0.43621001222E+03  0.95109263170E+02 0.  0.
        254    2    1    2    0    0 -0.64664029625E+02 -0.43836895718E+02  0.37787413645E+03  0.98726653227E+03  0.90873716364E+03 0.  0.
         23    2    4    4    0    0  0.25494725986E+03 -0.48030562889E+02  0.54955440854E+03  0.61281044397E+03  0.78876815450E+02 0.  0.
         23    2    4    4    0    0 -0.31961128948E+03  0.41936671712E+01 -0.17168027209E+03  0.37445608830E+03  0.92597424536E+02 0.  0.
          3    1    3    3  502    0  0.16192711321E+02 -0.25454002341E+02  0.52205851371E+02  0.60295613874E+02  0.00000000000E+00 0. -1.
         -3    1    3    3    0  502  0.48471318304E+02  0.69290898059E+02  0.36627986244E+03  0.37591439834E+03  0.00000000000E+00 0.  1.
         11    1    5    5    0    0  0.19910203694E+03 -0.70126671920E+02  0.42992520018E+03  0.47895203202E+03  0.00000000000E+00 0. -1.
        -11    1    5    5    0    0  0.55845222912E+02  0.22096109031E+02  0.11962920835E+03  0.13385841194E+03  0.00000000000E+00 0.  1.
          3    1    6    6  503    0 -0.28741520881E+03 -0.11896891326E+02 -0.12048478356E+03  0.31187436790E+03  0.00000000000E+00 0. -1.
         -3    1    6    6    0  503 -0.32196080668E+02  0.16090558497E+02 -0.51195488524E+02  0.62581720401E+02  0.00000000000E+00 0.  1.
<mgrwt>
<rscale>  0 0.11798714E+04</rscale>
<asrwt>0</asrwt>
<pdfrwt beam="1">  1        4 0.48239746E-01 0.11798714E+04</pdfrwt>
<pdfrwt beam="2">  1       -4 0.17075664E+00 0.11798714E+04</pdfrwt>
<totfact> 0.17118668E+00</totfact>
</mgrwt>
</event>
<event>
12    2  0.3518828E-008  0.1622006E+04  0.7818608E-02  0.8807142E-01
          1   -1    0    0  501    0  0.00000000000E+00  0.00000000000E+00  0.51300308727E+03  0.51300308727E+03  0.00000000000E+00 0. -1.
         -1   -1    0    0    0  501 -0.00000000000E+00 -0.00000000000E+00 -0.12821094505E+04  0.12821094505E+04  0.00000000000E+00 0.  1.
         23    2    1    2    0    0  0.47499399394E+03  0.20069260547E+03 -0.38564690534E+02  0.52495707871E+03  0.90531116011E+02 0.  0.
        254    2    1    2    0    0 -0.47499399394E+03 -0.20069260547E+03 -0.73054167269E+03  0.12701554590E+04  0.90205705942E+03 0.  0.
         23    2    4    4    0    0 -0.52888623321E+03 -0.39044870879E+03 -0.80158820149E+03  0.10408066123E+04  0.92541437238E+02 0.  0.
         23    2    4    4    0    0  0.53892239267E+02  0.18975610331E+03  0.71046528799E+02  0.22934884673E+03  0.92959841035E+02 0.  0.
          3    1    3    3  502    0  0.12258473779E+02 -0.28215151790E+01  0.11407607091E+02  0.16981302271E+02  0.00000000000E+00 0. -1.
         -3    1    3    3    0  502  0.46273552016E+03  0.20351412065E+03 -0.49972297624E+02  0.50797577644E+03  0.00000000000E+00 0.  1.
         11    1    5    5    0    0 -0.40783720384E+03 -0.34335956133E+03 -0.66500181324E+03  0.85232293458E+03  0.00000000000E+00 0.  1.
        -11    1    5    5    0    0 -0.12104902937E+03 -0.47089147454E+02 -0.13658638824E+03  0.18848367774E+03  0.00000000000E+00 0. -1.
          1    1    6    6  503    0  0.57801577089E+02  0.17370128179E+03  0.90176092236E+02  0.20407078483E+03  0.00000000000E+00 0. -1.
         -1    1    6    6    0  503 -0.39093378216E+01  0.16054821526E+02 -0.19129563437E+02  0.25278061906E+02  0.00000000000E+00 0.  1.
<mgrwt>
<rscale>  0 0.16220063E+04</rscale>
<asrwt>0</asrwt>
<pdfrwt beam="1">  1        1 0.78923553E-01 0.16220063E+04</pdfrwt>
<pdfrwt beam="2">  1       -1 0.19724761E+00 0.16220063E+04</pdfrwt>
<totfact> 0.64409141E+00</totfact>
</mgrwt>
</event>
<event>
12    2  0.3518828E-008  0.2313879E+04  0.7818608E-02  0.8472469E-01
          2   -1    0    0  501    0  0.00000000000E+00  0.00000000000E+00  0.32089415885E+04  0.32089415885E+04  0.00000000000E+00 0. -1.
         -2   -1    0    0    0  501 -0.00000000000E+00 -0.00000000000E+00 -0.41711866968E+03  0.41711866968E+03  0.00000000000E+00 0.  1.
         23    2    1    2    0    0 -0.29816515990E+02  0.97975582560E+03  0.12174730269E+04  0.15658014886E+04  0.93183839607E+02 0.  0.
        254    2    1    2    0    0  0.29816515990E+02 -0.97975582560E+03  0.15743498920E+04  0.20602587696E+04  0.89737289529E+03 0.  0.
         23    2    4    4    0    0  0.18111684556E+03 -0.92361932150E+03  0.16150669703E+04  0.18715108893E+04  0.90750908098E+02 0.  0.
         23    2    4    4    0    0 -0.15130032957E+03 -0.56136504099E+02 -0.40717078389E+02  0.18874788034E+03  0.89021261717E+02 0.  0.
          4    1    3    3  502    0 -0.16922408930E+02  0.28588577998E+02  0.46240982983E+02  0.56937713540E+02  0.00000000000E+00 0.  1.
         -4    1    3    3    0  502 -0.12894107060E+02  0.95116724760E+03  0.11712320439E+04  0.15088637750E+04  0.00000000000E+00 0. -1.
         11    1    5    5    0    0  0.59249122870E+02 -0.15039170136E+03  0.31267427479E+03  0.35198483564E+03  0.00000000000E+00 0. -1.
        -11    1    5    5    0    0  0.12186772269E+03 -0.77322762013E+03  0.13023926955E+04  0.15195260537E+04  0.00000000000E+00 0.  1.
          3    1    6    6  503    0 -0.11622566864E+02 -0.30997773846E+02  0.14917536601E+02  0.36310865346E+02  0.00000000000E+00 0. -1.
         -3    1    6    6    0  503 -0.13967776271E+03 -0.25138730253E+02 -0.55634614991E+02  0.15243701499E+03  0.00000000000E+00 0.  1.
<mgrwt>
<rscale>  0 0.23138794E+04</rscale>
<asrwt>0</asrwt>
<pdfrwt beam="1">  1        2 0.49368330E+00 0.23138794E+04</pdfrwt>
<pdfrwt beam="2">  1       -2 0.64172105E-01 0.23138794E+04</pdfrwt>
<totfact> 0.26037446E+00</totfact>
</mgrwt>
</event>
<event>
12    2  0.3518828E-008  0.2342141E+04  0.7818608E-02  0.8461489E-01
         -1   -1    0    0    0  501 -0.00000000000E+00  0.00000000000E+00  0.60275268445E+03  0.60275268445E+03  0.00000000000E+00 0.  1.
          1   -1    0    0  501    0  0.00000000000E+00 -0.00000000000E+00 -0.22752379069E+04  0.22752379069E+04  0.00000000000E+00 0. -1.
         23    2    1    2    0    0 -0.39666316756E+03 -0.77301936552E+02  0.40047374525E+03  0.57574799595E+03  0.88256876895E+02 0.  0.
        254    2    1    2    0    0  0.39666316756E+03  0.77301936552E+02 -0.20729589677E+04  0.23022425954E+04  0.91643048206E+03 0.  0.
         23    2    4    4    0    0  0.65017928016E+03 -0.10372156378E+03 -0.15537601140E+04  0.16900968286E+04  0.93624456716E+02 0.  0.
         23    2    4    4    0    0 -0.25351611260E+03  0.18102350033E+03 -0.51919885369E+03  0.61214576684E+03  0.90083645372E+02 0.  0.
          2    1    3    3  502    0 -0.19313385618E+02  0.73460228111E+01  0.24840925271E+01  0.20812054940E+02  0.00000000000E+00 0. -1.
         -2    1    3    3    0  502 -0.37734978194E+03 -0.84647959363E+02  0.39798965272E+03  0.55493594101E+03  0.00000000000E+00 0.  1.
         11    1    5    5    0    0  0.58086423282E+03 -0.70638371935E+02 -0.13156404315E+04  0.14398967955E+04  0.00000000000E+00 0. -1.
        -11    1    5    5    0    0  0.69315047338E+02 -0.33083191846E+02 -0.23811968251E+03  0.25020003311E+03  0.00000000000E+00 0.  1.
          2    1    6    6  503    0 -0.24935074807E+03  0.14591593695E+03 -0.46071867535E+03  0.54380966711E+03  0.00000000000E+00 0. -1.
         -2    1    6    6    0  503 -0.41653645334E+01  0.35107563382E+02 -0.58480178343E+02  0.68336099738E+02  0.00000000000E+00 0.  1.
<mgrwt>
<rscale>  0 0.23421407E+04</rscale>
<asrwt>0</asrwt>
<pdfrwt beam="1">  1        1 0.35003660E+00 0.23421407E+04</pdfrwt>
<pdfrwt beam="2">  1       -1 0.92731183E-01 0.23421407E+04</pdfrwt>
<totfact> 0.19696776E+00</totfact>
</mgrwt>
</event>
<event>
12    2  0.3518828E-008  0.1558796E+04  0.7818608E-02  0.8846269E-01
          2   -1    0    0  501    0  0.00000000000E+00  0.00000000000E+00  0.87790322968E+03  0.87790322968E+03  0.00000000000E+00 0. -1.
         -2   -1    0    0    0  501 -0.00000000000E+00 -0.00000000000E+00 -0.69194547793E+03  0.69194547793E+03  0.00000000000E+00 0.  1.
         23    2    1    2    0    0 -0.60135947830E+02  0.34634808848E+03  0.44918601061E+03  0.57763774571E+03  0.91235752495E+02 0.  0.
        254    2    1    2    0    0  0.60135947830E+02 -0.34634808848E+03 -0.26322825887E+03  0.99221096190E+03  0.88973037828E+03 0.  0.
         23    2    4    4    0    0 -0.39791483453E+03 -0.24404366781E+03 -0.16895681581E+03  0.50433504921E+03  0.88960153556E+02 0.  0.
         23    2    4    4    0    0  0.45805078236E+03 -0.10230442067E+03 -0.94271443059E+02  0.48787591269E+03  0.94122725728E+02 0.  0.
          3    1    3    3  502    0 -0.53259299093E+01  0.14640227707E+03  0.25216087781E+03  0.29162836034E+03  0.00000000000E+00 0. -1.
         -3    1    3    3    0  502 -0.54810017920E+02  0.19994581141E+03  0.19702513281E+03  0.28600938537E+03  0.00000000000E+00 0.  1.
         11    1    5    5    0    0 -0.37585162904E+03 -0.22064486440E+03 -0.17822804735E+03  0.47086499137E+03  0.00000000000E+00 0. -1.
        -11    1    5    5    0    0 -0.22063205492E+02 -0.23398803406E+02  0.92712315462E+01  0.33470057839E+02  0.00000000000E+00 0.  1.
          2    1    6    6  503    0  0.28932060530E+03 -0.68512224313E+02 -0.13097399232E+02  0.29761028107E+03  0.00000000000E+00 0. -1.
         -2    1    6    6    0  503  0.16873017706E+03 -0.33792196356E+02 -0.81174043827E+02  0.19026563162E+03  0.00000000000E+00 0.  1.
<mgrwt>
<rscale>  0 0.15587959E+04</rscale>
<asrwt>0</asrwt>
<pdfrwt beam="1">  1        2 0.13506204E+00 0.15587959E+04</pdfrwt>
<pdfrwt beam="2">  1       -2 0.10645315E+00 0.15587959E+04</pdfrwt>
<totfact> 0.20770469E+01</totfact>
</mgrwt>
</event>
<event>
12    2  0.3518828E-008  0.1937895E+04  0.7818608E-02  0.8636220E-01
          2   -1    0    0  501    0  0.00000000000E+00  0.00000000000E+00  0.26430446357E+04  0.26430446357E+04  0.00000000000E+00 0. -1.
         -2   -1    0    0    0  501 -0.00000000000E+00 -0.00000000000E+00 -0.35521885960E+03  0.35521885960E+03  0.00000000000E+00 0.  1.
         23    2    1    2    0    0 -0.52717777312E+03 -0.29491162113E+03  0.16143467039E+04  0.17260992786E+04  0.91728786931E+02 0.  0.
        254    2    1    2    0    0  0.52717777312E+03  0.29491162113E+03  0.67347907218E+03  0.12721642167E+04  0.89439279115E+03 0.  0.
         23    2    4    4    0    0 -0.24292068677E+03  0.10797236627E+03  0.15282041470E+03  0.31967714185E+03  0.90393052465E+02 0.  0.
         23    2    4    4    0    0  0.77009845990E+03  0.18693925486E+03  0.52065865748E+03  0.95248707486E+03  0.90267752960E+02 0.  0.
          2    1    3    3  502    0 -0.44167573642E+03 -0.27627383217E+03  0.13223735328E+04  0.14212939339E+04  0.00000000000E+00 0. -1.
         -2    1    3    3    0  502 -0.85502036706E+02 -0.18637788955E+02  0.29197317115E+03  0.30480534465E+03  0.00000000000E+00 0.  1.
         11    1    5    5    0    0 -0.54395535323E+02  0.34047933783E+02  0.84197797276E+02  0.10586503258E+03  0.00000000000E+00 0.  1.
        -11    1    5    5    0    0 -0.18852515145E+03  0.73924432484E+02  0.68622617423E+02  0.21381210927E+03  0.00000000000E+00 0. -1.
          4    1    6    6  503    0  0.19120749683E+03  0.25090507333E+02  0.88590767732E+02  0.21222196995E+03  0.00000000000E+00 0.  1.
         -4    1    6    6    0  503  0.57889096307E+03  0.16184874753E+03  0.43206788975E+03  0.74026510491E+03  0.00000000000E+00 0. -1.
<mgrwt>
<rscale>  0 0.19378950E+04</rscale>
<asrwt>0</asrwt>
<pdfrwt beam="1">  1        2 0.40662224E+00 0.19378950E+04</pdfrwt>
<pdfrwt beam="2">  1       -2 0.54649057E-01 0.19378950E+04</pdfrwt>
<totfact> 0.84546103E+00</totfact>
</mgrwt>
</event>
<event>
12    2  0.3518828E-008  0.1818426E+04  0.7818608E-02  0.8696562E-01
          1   -1    0    0  501    0  0.00000000000E+00  0.00000000000E+00  0.31351938624E+04  0.31351938624E+04  0.00000000000E+00 0. -1.
         -1   -1    0    0    0  501 -0.00000000000E+00 -0.00000000000E+00 -0.26367377906E+03  0.26367377906E+03  0.00000000000E+00 0.  1.
         23    2    1    2    0    0 -0.57751523666E+03 -0.34791544085E+03  0.86271885239E+03  0.10986460412E+04  0.90389728371E+02 0.  0.
        254    2    1    2    0    0  0.57751523666E+03  0.34791544085E+03  0.20088012309E+04  0.23002216002E+04  0.89507989715E+03 0.  0.
         23    2    4    4    0    0  0.11299690507E+03 -0.16711418050E+03  0.12447469238E+04  0.12643470479E+04  0.92103764479E+02 0.  0.
         23    2    4    4    0    0  0.46451833160E+03  0.51502962135E+03  0.76405430714E+03  0.10358745523E+04  0.90687996092E+02 0.  0.
          1    1    3    3  502    0 -0.12666202073E+02 -0.78832996730E+01  0.49753563836E+02  0.51942239103E+02  0.00000000000E+00 0. -1.
         -1    1    3    3    0  502 -0.56484903459E+03 -0.34003214118E+03  0.81296528855E+03  0.10467038021E+04  0.00000000000E+00 0.  1.
         11    1    5    5    0    0  0.90743974466E+02 -0.17310343424E+03  0.10310339275E+04  0.10493951722E+04  0.00000000000E+00 0. -1.
        -11    1    5    5    0    0  0.22252930601E+02  0.59892537377E+01  0.21371299627E+03  0.21495187567E+03  0.00000000000E+00 0.  1.
          3    1    6    6  503    0  0.17663760104E+03  0.20291311102E+03  0.23266895132E+03  0.35568161835E+03  0.00000000000E+00 0. -1.
         -3    1    6    6    0  503  0.28788073055E+03  0.31211651034E+03  0.53138535582E+03  0.68019293397E+03  0.00000000000E+00 0.  1.
<mgrwt>
<rscale>  0 0.18184261E+04</rscale>
<asrwt>0</asrwt>
<pdfrwt beam="1">  1        1 0.48233749E+00 0.18184261E+04</pdfrwt>
<pdfrwt beam="2">  1       -1 0.40565199E-01 0.18184261E+04</pdfrwt>
<totfact> 0.26676548E+00</totfact>
</mgrwt>
</event>
<event>
12    2  0.3518828E-008  0.1352555E+04  0.7818608E-02  0.8988896E-01
         -2   -1    0    0    0  501 -0.00000000000E+00  0.00000000000E+00  0.64642177821E+03  0.64642177821E+03  0.00000000000E+00 0.  1.
          2   -1    0    0  501    0  0.00000000000E+00 -0.00000000000E+00 -0.70751230517E+03  0.70751230517E+03  0.00000000000E+00 0. -1.
         23    2    1    2    0    0  0.33980911259E+03  0.11457975528E+03  0.59846887842E+02  0.37480647400E+03  0.91101534857E+02 0.  0.
        254    2    1    2    0    0 -0.33980911259E+03 -0.11457975528E+03 -0.12093741480E+03  0.97912760938E+03  0.90303170700E+03 0.  0.
         23    2    4    4    0    0  0.11373317875E+03  0.16308876795E+02 -0.39808095637E+03  0.42411304083E+03  0.90566043140E+02 0.  0.
         23    2    4    4    0    0 -0.45354229133E+03 -0.13088863207E+03  0.27714354157E+03  0.55501456855E+03  0.91652521158E+02 0.  0.
          2    1    3    3  502    0  0.16431768251E+03  0.43439204475E+02 -0.16224601615E+02  0.17073518375E+03  0.00000000000E+00 0. -1.
         -2    1    3    3    0  502  0.17549143007E+03  0.71140550801E+02  0.76071489457E+02  0.20407129025E+03  0.00000000000E+00 0.  1.
         11    1    5    5    0    0  0.71772015104E+02 -0.29580731324E+01 -0.35060016377E+03  0.35788328710E+03  0.00000000000E+00 0.  1.
        -11    1    5    5    0    0  0.41961163642E+02  0.19266949927E+02 -0.47480792598E+02  0.66229753732E+02  0.00000000000E+00 0. -1.
          3    1    6    6  503    0 -0.26391741271E+03 -0.10267909645E+03  0.12181990163E+03  0.30827826069E+03  0.00000000000E+00 0. -1.
         -3    1    6    6    0  503 -0.18962487862E+03 -0.28209535617E+02  0.15532363994E+03  0.24673630786E+03  0.00000000000E+00 0.  1.
<mgrwt>
<rscale>  0 0.13525552E+04</rscale>
<asrwt>0</asrwt>
<pdfrwt beam="1">  1        2 0.10884805E+00 0.13525552E+04</pdfrwt>
<pdfrwt beam="2">  1       -2 0.99449505E-01 0.13525552E+04</pdfrwt>
<totfact> 0.33043943E+01</totfact>
</mgrwt>
</event>
<event>
12    2  0.3518828E-008  0.1446183E+04  0.7818608E-02  0.8921051E-01
          2   -1    0    0  501    0  0.00000000000E+00  0.00000000000E+00  0.16165513696E+04  0.16165513696E+04  0.00000000000E+00 0.  1.
         -2   -1    0    0    0  501 -0.00000000000E+00 -0.00000000000E+00 -0.32344255443E+03  0.32344255443E+03  0.00000000000E+00 0. -1.
         23    2    1    2    0    0 -0.31743917002E+02  0.18855114671E+03 -0.12430604637E+03  0.24561146582E+03  0.91179974703E+02 0.  0.
        254    2    1    2    0    0  0.31743917002E+02 -0.18855114671E+03  0.14174148615E+04  0.16943824582E+04  0.90846453635E+03 0.  0.
         23    2    4    4    0    0  0.58458697957E+02 -0.34980475039E+03  0.12235731488E+03  0.38590681932E+03  0.90398992971E+02 0.  0.
         23    2    4    4    0    0 -0.26714780955E+02  0.16125360368E+03  0.12950575467E+04  0.13084756389E+04  0.90653429085E+02 0.  0.
          3    1    3    3  502    0  0.40615000938E+01  0.17189722773E+03 -0.95069370104E+02  0.19647732138E+03  0.00000000000E+00 0. -1.
         -3    1    3    3    0  502 -0.35805417096E+02  0.16653918973E+02 -0.29236676264E+02  0.49134144437E+02  0.00000000000E+00 0.  1.
         11    1    5    5    0    0  0.62461524087E+02 -0.15116459978E+03  0.82806946077E+02  0.18332803532E+03  0.00000000000E+00 0.  1.
        -11    1    5    5    0    0 -0.40028261305E+01 -0.19864015061E+03  0.39550368802E+02  0.20257878399E+03  0.00000000000E+00 0. -1.
          3    1    6    6  503    0 -0.24763840403E+02  0.12302783620E+03  0.11911503633E+04  0.11977429959E+04  0.00000000000E+00 0. -1.
         -3    1    6    6    0  503 -0.19509405513E+01  0.38225767484E+02  0.10390718340E+03  0.11073264302E+03  0.00000000000E+00 0.  1.
<mgrwt>
<rscale>  0 0.14461833E+04</rscale>
<asrwt>0</asrwt>
<pdfrwt beam="1">  1        2 0.24870021E+00 0.14461833E+04</pdfrwt>
<pdfrwt beam="2">  1       -2 0.49760394E-01 0.14461833E+04</pdfrwt>
<totfact> 0.40461654E+01</totfact>
</mgrwt>
</event>
<event>
12    2  0.3518828E-008  0.2060545E+04  0.7818608E-02  0.8578826E-01
         -1   -1    0    0    0  501 -0.00000000000E+00  0.00000000000E+00  0.33052439651E+03  0.33052439651E+03  0.00000000000E+00 0.  1.
          1   -1    0    0  501    0  0.00000000000E+00 -0.00000000000E+00 -0.32114458891E+04  0.32114458891E+04  0.00000000000E+00 0. -1.
         23    2    1    2    0    0 -0.65278197115E+03  0.17801893216E+03 -0.20122840968E+04  0.21248209138E+04  0.88099873673E+02 0.  0.
        254    2    1    2    0    0  0.65278197115E+03 -0.17801893216E+03 -0.86863739586E+03  0.14171493718E+04  0.89216947631E+03 0.  0.
         23    2    4    4    0    0  0.61929441539E+03 -0.48024320685E+03 -0.51739429092E+03  0.94360959482E+03  0.92428915937E+02 0.  0.
         23    2    4    4    0    0  0.33487555768E+02  0.30222427468E+03 -0.35124310494E+03  0.47353977699E+03  0.91691182930E+02 0.  0.
          3    1    3    3  502    0 -0.35142495756E+03  0.12068652106E+03 -0.12154801489E+04  0.12710061878E+04  0.00000000000E+00 0. -1.
         -3    1    3    3    0  502 -0.30135701360E+03  0.57332411108E+02 -0.79680394788E+03  0.85381472602E+03  0.00000000000E+00 0.  1.
         11    1    5    5    0    0  0.21888323286E+03 -0.19641043452E+03 -0.14734692041E+03  0.32893470989E+03  0.00000000000E+00 0.  1.
        -11    1    5    5    0    0  0.40041118253E+03 -0.28383277233E+03 -0.37004737051E+03  0.61467488493E+03  0.00000000000E+00 0. -1.
          4    1    6    6  503    0  0.23024528978E+02  0.12693243531E+02 -0.17480445684E+02  0.31572350994E+02  0.00000000000E+00 0. -1.
         -4    1    6    6    0  503  0.10463026790E+02  0.28953103115E+03 -0.33376265925E+03  0.44196742599E+03  0.00000000000E+00 0.  1.
<mgrwt>
<rscale>  0 0.20605448E+04</rscale>
<asrwt>0</asrwt>
<pdfrwt beam="1">  1        1 0.49406859E+00 0.20605448E+04</pdfrwt>
<pdfrwt beam="2">  1       -1 0.50849908E-01 0.20605448E+04</pdfrwt>
<totfact> 0.14983594E+00</totfact>
</mgrwt>
</event>
<event>
12    2  0.3518828E-008  0.3711172E+04  0.7818608E-02  0.8065491E-01
         -1   -1    0    0    0  501 -0.00000000000E+00  0.00000000000E+00  0.16333172292E+04  0.16333172292E+04  0.00000000000E+00 0.  1.
          1   -1    0    0  501    0  0.00000000000E+00 -0.00000000000E+00 -0.21081017422E+04  0.21081017422E+04  0.00000000000E+00 0. -1.
         23    2    1    2    0    0 -0.20323426276E+03 -0.14212121251E+04 -0.12135895008E+04  0.18838259178E+04  0.12187100582E+03 0.  0.
        254    2    1    2    0    0  0.20323426276E+03  0.14212121251E+04  0.73880498788E+03  0.18575930535E+04  0.91851568971E+03 0.  0.
         23    2    4    4    0    0  0.43860614861E+03  0.54819673079E+03  0.36003314118E+02  0.70867795309E+03  0.89628083321E+02 0.  0.
         23    2    4    4    0    0 -0.23537188585E+03  0.87301539435E+03  0.70280167377E+03  0.11489151005E+04  0.92303369292E+02 0.  0.
          2    1    3    3  502    0 -0.21111189300E+03 -0.12391994220E+04 -0.10884878860E+04  0.16628257024E+04  0.00000000000E+00 0. -1.
         -2    1    3    3    0  502  0.78776302366E+01 -0.18201270319E+03 -0.12510161481E+03  0.22100021540E+03  0.00000000000E+00 0.  1.
         11    1    5    5    0    0  0.34350195237E+02  0.81634173767E+02  0.21653598640E+02  0.91175394562E+02  0.00000000000E+00 0. -1.
        -11    1    5    5    0    0  0.40425595338E+03  0.46656255702E+03  0.14349715477E+02  0.61750255853E+03  0.00000000000E+00 0.  1.
          3    1    6    6  503    0 -0.60132152316E+02  0.12488443034E+03  0.13518319230E+03  0.19361428709E+03  0.00000000000E+00 0. -1.
         -3    1    6    6    0  503 -0.17523973353E+03  0.74813096401E+03  0.56761848147E+03  0.95530081337E+03  0.00000000000E+00 0.  1.
<mgrwt>
<rscale>  0 0.37111717E+04</rscale>
<asrwt>0</asrwt>
<pdfrwt beam="1">  1        1 0.32432334E+00 0.37111717E+04</pdfrwt>
<pdfrwt beam="2">  1       -1 0.25127957E+00 0.37111717E+04</pdfrwt>
<totfact> 0.13795498E-01</totfact>
</mgrwt>
</event>
<event>
12    2  0.3518828E-008  0.2532790E+04  0.7818608E-02  0.8391396E-01
         -1   -1    0    0    0  501 -0.00000000000E+00  0.00000000000E+00  0.11253299891E+04  0.11253299891E+04  0.00000000000E+00 0.  1.
          1   -1    0    0  501    0  0.00000000000E+00 -0.00000000000E+00 -0.14251426660E+04  0.14251426660E+04  0.00000000000E+00 0. -1.
         23    2    1    2    0    0  0.46875092016E+03  0.10367908453E+01 -0.11411799232E+04  0.12370744850E+04  0.91286166874E+02 0.  0.
        254    2    1    2    0    0 -0.46875092016E+03 -0.10367908453E+01  0.84136724627E+03  0.13133981702E+04  0.89296551461E+03 0.  0.
         23    2    4    4    0    0  0.22581242491E+03 -0.22875680639E+02  0.44673345183E+03  0.50928506145E+03  0.91027187285E+02 0.  0.
         23    2    4    4    0    0 -0.69456334506E+03  0.21838889794E+02  0.39463379444E+03  0.80411310874E+03  0.89257394768E+02 0.  0.
          3    1    3    3  502    0  0.42120136086E+03  0.29073612951E+02 -0.99887756101E+03  0.10844409819E+04  0.00000000000E+00 0. -1.
         -3    1    3    3    0  502  0.47549559302E+02 -0.28036822106E+02 -0.14230236216E+03  0.15263350307E+03  0.00000000000E+00 0.  1.
         11    1    5    5    0    0  0.13865771182E+03 -0.51905179192E+02  0.22575203504E+03  0.26997053543E+03  0.00000000000E+00 0.  1.
        -11    1    5    5    0    0  0.87154713090E+02  0.29029498552E+02  0.22098141678E+03  0.23931452602E+03  0.00000000000E+00 0. -1.
          4    1    6    6  503    0 -0.67092151856E+03  0.86694475382E+01  0.36442459112E+03  0.76355492665E+03  0.00000000000E+00 0. -1.
         -4    1    6    6    0  503 -0.23641826500E+02  0.13169442256E+02  0.30209203319E+02  0.40558182094E+02  0.00000000000E+00 0.  1.
<mgrwt>
<rscale>  0 0.25327896E+04</rscale>
<asrwt>0</asrwt>
<pdfrwt beam="1">  1        1 0.21925272E+00 0.25327896E+04</pdfrwt>
<pdfrwt beam="2">  1       -1 0.17312769E+00 0.25327896E+04</pdfrwt>
<totfact> 0.15254815E+00</totfact>
</mgrwt>
</event>
<event>
12    2  0.3518828E-008  0.1537697E+04  0.7818608E-02  0.8859765E-01
          1   -1    0    0  501    0  0.00000000000E+00  0.00000000000E+00  0.77054148500E+03  0.77054148500E+03  0.00000000000E+00 0. -1.
         -1   -1    0    0    0  501 -0.00000000000E+00 -0.00000000000E+00 -0.76715926065E+03  0.76715926065E+03  0.00000000000E+00 0.  1.
         23    2    1    2    0    0  0.46850840795E+03  0.31789433000E+02 -0.16392728664E+03  0.50569027529E+03  0.91322521057E+02 0.  0.
        254    2    1    2    0    0 -0.46850840795E+03 -0.31789433000E+02  0.16730951099E+03  0.10320104704E+04  0.90362738011E+03 0.  0.
         23    2    4    4    0    0  0.79196996872E+01 -0.34532043276E+03 -0.13290707917E+03  0.38127005585E+03  0.91616815432E+02 0.  0.
         23    2    4    4    0    0 -0.47642810764E+03  0.31353099976E+03  0.30021659016E+03  0.65074041451E+03  0.89708731483E+02 0.  0.
          3    1    3    3  502    0  0.49137470657E+02 -0.14778984101E+02 -0.42472753098E+02  0.66609640063E+02  0.00000000000E+00 0. -1.
         -3    1    3    3    0  502  0.41937093729E+03  0.46568417101E+02 -0.12145453354E+03  0.43908063523E+03  0.00000000000E+00 0.  1.
         11    1    5    5    0    0 -0.12119477541E+02 -0.15977733143E+03 -0.10743041288E+03  0.19291700543E+03  0.00000000000E+00 0. -1.
        -11    1    5    5    0    0  0.20039177228E+02 -0.18554310134E+03 -0.25476666292E+02  0.18835305042E+03  0.00000000000E+00 0.  1.
          2    1    6    6  503    0 -0.10592997009E+02  0.30298595688E+02  0.19073024915E+02  0.37336266092E+02  0.00000000000E+00 0. -1.
         -2    1    6    6    0  503 -0.46583511063E+03  0.28323240407E+03  0.28114356525E+03  0.61340414841E+03  0.00000000000E+00 0.  1.
<mgrwt>
<rscale>  0 0.15376970E+04</rscale>
<asrwt>0</asrwt>
<pdfrwt beam="1">  1        1 0.11854484E+00 0.15376970E+04</pdfrwt>
<pdfrwt beam="2">  1       -1 0.11802450E+00 0.15376970E+04</pdfrwt>
<totfact> 0.14599521E+01</totfact>
</mgrwt>
</event>
<event>
12    2  0.3518828E-008  0.3466540E+04  0.7818608E-02  0.8121766E-01
          2   -1    0    0  501    0  0.00000000000E+00  0.00000000000E+00  0.24699059834E+04  0.24699059834E+04  0.00000000000E+00 0. -1.
         -2   -1    0    0    0  501 -0.00000000000E+00 -0.00000000000E+00 -0.12163319707E+04  0.12163319707E+04  0.00000000000E+00 0.  1.
         23    2    1    2    0    0  0.97363280364E+02  0.13745409887E+04 -0.33504277700E+03  0.14213066069E+04  0.94954044298E+02 0.  0.
        254    2    1    2    0    0 -0.97363280364E+02 -0.13745409887E+04  0.15886167897E+04  0.22649313471E+04  0.84105182058E+03 0.  0.
         23    2    4    4    0    0 -0.33232917174E+03 -0.13054084459E+04  0.12702463815E+04  0.18534579540E+04  0.85127132297E+02 0.  0.
         23    2    4    4    0    0  0.23496589138E+03 -0.69132542797E+02  0.31837040814E+03  0.41147339309E+03  0.89232045018E+02 0.  0.
          3    1    3    3  502    0  0.18906511635E+02  0.37357550053E+03 -0.13406921570E+03  0.39735458394E+03  0.00000000000E+00 0. -1.
         -3    1    3    3    0  502  0.78456768729E+02  0.10009654882E+04 -0.20097356131E+03  0.10239520230E+04  0.00000000000E+00 0.  1.
         11    1    5    5    0    0 -0.12415477487E+03 -0.62504679809E+03  0.56499625812E+03  0.85165643285E+03  0.00000000000E+00 0.  1.
        -11    1    5    5    0    0 -0.20817439687E+03 -0.68036164780E+03  0.70525012341E+03  0.10018015212E+04  0.00000000000E+00 0. -1.
          3    1    6    6  503    0  0.19167453814E+03 -0.87709418535E+02  0.23477189618E+03  0.31551531486E+03  0.00000000000E+00 0. -1.
         -3    1    6    6    0  503  0.43291353237E+02  0.18576875739E+02  0.83598511951E+02  0.95958078230E+02  0.00000000000E+00 0.  1.
<mgrwt>
<rscale>  0 0.34665404E+04</rscale>
<asrwt>0</asrwt>
<pdfrwt beam="1">  1        2 0.37998554E+00 0.34665404E+04</pdfrwt>
<pdfrwt beam="2">  1       -2 0.18712800E+00 0.34665404E+04</pdfrwt>
<totfact> 0.48384281E-01</totfact>
</mgrwt>
</event>
<event>
12    2  0.3518828E-008  0.1621980E+04  0.7818608E-02  0.8807158E-01
          2   -1    0    0  501    0  0.00000000000E+00  0.00000000000E+00  0.70850557794E+03  0.70850557794E+03  0.00000000000E+00 0. -1.
         -2   -1    0    0    0  501 -0.00000000000E+00 -0.00000000000E+00 -0.92829824269E+03  0.92829824269E+03  0.00000000000E+00 0.  1.
         23    2    1    2    0    0  0.20882716543E+03  0.32728489134E+03  0.33386862734E+03  0.51968041404E+03  0.88742815468E+02 0.  0.
        254    2    1    2    0    0 -0.20882716543E+03 -0.32728489134E+03 -0.55366129209E+03  0.11171234066E+04  0.88921296328E+03 0.  0.
         23    2    4    4    0    0  0.61257508352E+02 -0.38153837224E+03  0.93910336806E+02  0.40772956261E+03  0.90001294676E+02 0.  0.
         23    2    4    4    0    0 -0.27008467378E+03  0.54253480909E+02 -0.64757162890E+03  0.70939384397E+03  0.89450769179E+02 0.  0.
          4    1    3    3  502    0  0.16133668386E+03  0.30294077506E+03  0.30415853314E+03  0.45860119062E+03  0.00000000000E+00 0. -1.
         -4    1    3    3    0  502  0.47490481565E+02  0.24344116274E+02  0.29710094204E+02  0.61079223424E+02  0.00000000000E+00 0.  1.
         11    1    5    5    0    0 -0.56077649683E+01 -0.98848973428E+00 -0.63746966913E+01  0.85475667766E+01  0.00000000000E+00 0.  1.
        -11    1    5    5    0    0  0.66865273321E+02 -0.38054988251E+03  0.10028503350E+03  0.39918199583E+03  0.00000000000E+00 0. -1.
          1    1    6    6  503    0 -0.14723830624E+03 -0.15966782173E+02 -0.32544193926E+03  0.35755630715E+03  0.00000000000E+00 0. -1.
         -1    1    6    6    0  503 -0.12284636754E+03  0.70220263082E+02 -0.32212968964E+03  0.35183753682E+03  0.00000000000E+00 0.  1.
<mgrwt>
<rscale>  0 0.16219796E+04</rscale>
<asrwt>0</asrwt>
<pdfrwt beam="1">  1        2 0.10900086E+00 0.16219796E+04</pdfrwt>
<pdfrwt beam="2">  1       -2 0.14281511E+00 0.16219796E+04</pdfrwt>
<totfact> 0.13164957E+01</totfact>
</mgrwt>
</event>
<event>
12    2  0.3518828E-008  0.2401261E+04  0.7818608E-02  0.8439032E-01
         -2   -1    0    0    0  501 -0.00000000000E+00  0.00000000000E+00  0.93382926009E+03  0.93382926009E+03  0.00000000000E+00 0.  1.
          2   -1    0    0  501    0  0.00000000000E+00 -0.00000000000E+00 -0.15436588897E+04  0.15436588897E+04  0.00000000000E+00 0. -1.
         23    2    1    2    0    0 -0.23849858538E+03 -0.44988138986E+03  0.65876289458E+03  0.83996642046E+03  0.11090624893E+03 0.  0.
        254    2    1    2    0    0  0.23849858538E+03  0.44988138986E+03 -0.12685925242E+04  0.16375217294E+04  0.90159612989E+03 0.  0.
         23    2    4    4    0    0  0.23510202833E+03 -0.14017898468E+03 -0.87799598957E+03  0.92409213585E+03  0.90256336955E+02 0.  0.
         23    2    4    4    0    0  0.33965570532E+01  0.59006037454E+03 -0.39059653465E+03  0.71342959351E+03  0.90737808054E+02 0.  0.
          1    1    3    3  502    0  0.77674769112E+00 -0.15873261628E+02  0.63207882260E+02  0.65175149801E+02  0.00000000000E+00 0. -1.
         -1    1    3    3    0  502 -0.23927533308E+03 -0.43400812824E+03  0.59555501232E+03  0.77479127066E+03  0.00000000000E+00 0.  1.
         11    1    5    5    0    0  0.10158770604E+03 -0.16230712570E+02 -0.38515416118E+03  0.39865677710E+03  0.00000000000E+00 0. -1.
        -11    1    5    5    0    0  0.13351432229E+03 -0.12394827211E+03 -0.49284182839E+03  0.52543535875E+03  0.00000000000E+00 0.  1.
          3    1    6    6  503    0  0.17895414069E+02  0.46363874537E+03 -0.26352928389E+03  0.53359986462E+03  0.00000000000E+00 0. -1.
         -3    1    6    6    0  503 -0.14498857015E+02  0.12642162917E+03 -0.12706725077E+03  0.17982972890E+03  0.00000000000E+00 0.  1.
<mgrwt>
<rscale>  0 0.24012612E+04</rscale>
<asrwt>0</asrwt>
<pdfrwt beam="1">  1        2 0.23748598E+00 0.24012612E+04</pdfrwt>
<pdfrwt beam="2">  1       -2 0.14366604E+00 0.24012612E+04</pdfrwt>
<totfact> 0.36211958E+00</totfact>
</mgrwt>
</event>
<event>
12    2  0.3518828E-008  0.1833356E+04  0.7818608E-02  0.8688759E-01
         -2   -1    0    0    0  501 -0.00000000000E+00  0.00000000000E+00  0.30892402717E+03  0.30892402717E+03  0.00000000000E+00 0.  1.
          2   -1    0    0  501    0  0.00000000000E+00 -0.00000000000E+00 -0.27200824538E+04  0.27200824538E+04  0.00000000000E+00 0. -1.
         23    2    1    2    0    0 -0.12248869008E+03  0.27903565091E+03  0.10866464674E+03  0.33624423356E+03  0.91584963152E+02 0.  0.
        254    2    1    2    0    0  0.12248869008E+03 -0.27903565091E+03 -0.25198230734E+04  0.26927622475E+04  0.89921956515E+03 0.  0.
         23    2    4    4    0    0 -0.28120371481E+03 -0.18907314757E+03 -0.40462893379E+03  0.53555676877E+03  0.90952153112E+02 0.  0.
         23    2    4    4    0    0  0.40369240489E+03 -0.89962503335E+02 -0.21151941396E+04  0.21572054787E+04  0.91806422547E+02 0.  0.
          4    1    3    3  502    0 -0.89880770610E+02  0.26720372778E+03  0.10692725056E+03  0.30151255692E+03  0.00000000000E+00 0.  1.
         -4    1    3    3    0  502 -0.32607919468E+02  0.11831923123E+02  0.17373961855E+01  0.34731676641E+02  0.00000000000E+00 0. -1.
         11    1    5    5    0    0 -0.27230951246E+03 -0.19348006928E+03 -0.36535009365E+03  0.49504312814E+03  0.00000000000E+00 0.  1.
        -11    1    5    5    0    0 -0.88942023521E+01  0.44069217115E+01 -0.39278840135E+02  0.40513640626E+02  0.00000000000E+00 0. -1.
          1    1    6    6  503    0  0.26390795287E+03 -0.30995028002E+02 -0.11605681181E+04  0.11905992004E+04  0.00000000000E+00 0. -1.
         -1    1    6    6    0  503  0.13978445202E+03 -0.58967475333E+02 -0.95462602152E+03  0.96660627824E+03  0.00000000000E+00 0.  1.
<mgrwt>
<rscale>  0 0.18333563E+04</rscale>
<asrwt>0</asrwt>
<pdfrwt beam="1">  1        2 0.41847423E+00 0.18333563E+04</pdfrwt>
<pdfrwt beam="2">  1       -2 0.47526773E-01 0.18333563E+04</pdfrwt>
<totfact> 0.10224297E+01</totfact>
</mgrwt>
</event>
<event>
12    2  0.3518828E-008  0.1529736E+04  0.7818608E-02  0.8864916E-01
          1   -1    0    0  501    0  0.00000000000E+00  0.00000000000E+00  0.71640737897E+03  0.71640737897E+03  0.00000000000E+00 0. -1.
         -1   -1    0    0    0  501 -0.00000000000E+00 -0.00000000000E+00 -0.81660719794E+03  0.81660719794E+03  0.00000000000E+00 0.  1.
         23    2    1    2    0    0  0.17018754718E+03  0.33232120991E+03 -0.35378310054E+03  0.52224135995E+03  0.90401150619E+02 0.  0.
        254    2    1    2    0    0 -0.17018754718E+03 -0.33232120991E+03  0.25358328157E+03  0.10107732170E+04  0.90440965699E+03 0.  0.
         23    2    4    4    0    0 -0.40395516652E+02 -0.32291116822E+03 -0.28866114104E+03  0.44441743956E+03  0.90984536650E+02 0.  0.
         23    2    4    4    0    0 -0.12979203053E+03 -0.94100416983E+01  0.54224442261E+03  0.56635577741E+03  0.98971373011E+02 0.  0.
          1    1    3    3  502    0  0.68689085869E+01 -0.53657822152E+01 -0.50738906971E+01  0.10085528780E+02  0.00000000000E+00 0. -1.
         -1    1    3    3    0  502  0.16331863859E+03  0.33768699213E+03 -0.34870920985E+03  0.51215583117E+03  0.00000000000E+00 0.  1.
         11    1    5    5    0    0 -0.24830364769E+02 -0.11952759789E+03 -0.53984825304E+02  0.13348316387E+03  0.00000000000E+00 0.  1.
        -11    1    5    5    0    0 -0.15565151882E+02 -0.20338357032E+03 -0.23467631574E+03  0.31093427569E+03  0.00000000000E+00 0. -1.
          1    1    6    6  503    0 -0.10319420836E+03 -0.13824210226E+02  0.52291945838E+03  0.53318375199E+03  0.00000000000E+00 0. -1.
         -1    1    6    6    0  503 -0.26597822172E+02  0.44141685281E+01  0.19324964229E+02  0.33172025421E+02  0.00000000000E+00 0.  1.
<mgrwt>
<rscale>  0 0.15297365E+04</rscale>
<asrwt>0</asrwt>
<pdfrwt beam="1">  1        1 0.11021652E+00 0.15297365E+04</pdfrwt>
<pdfrwt beam="2">  1       -1 0.12563188E+00 0.15297365E+04</pdfrwt>
<totfact> 0.14027224E+01</totfact>
</mgrwt>
</event>
<event>
12    2  0.3518828E-008  0.2579864E+04  0.7818608E-02  0.8375073E-01
         -1   -1    0    0    0  501 -0.00000000000E+00  0.00000000000E+00  0.58157547517E+03  0.58157547517E+03  0.00000000000E+00 0.  1.
          1   -1    0    0  501    0  0.00000000000E+00 -0.00000000000E+00 -0.28610641494E+04  0.28610641494E+04  0.00000000000E+00 0. -1.
         23    2    1    2    0    0  0.21720314020E+03 -0.21816666801E+03  0.45275931415E+03  0.55473746043E+03  0.89267879462E+02 0.  0.
        254    2    1    2    0    0 -0.21720314020E+03  0.21816666801E+03 -0.27322479884E+04  0.28879021641E+04  0.88319077243E+03 0.  0.
         23    2    4    4    0    0  0.60267797794E+02 -0.31138061751E+03 -0.10529280358E+04  0.11032364851E+04  0.88787369752E+02 0.  0.
         23    2    4    4    0    0 -0.27747093799E+03  0.52954728552E+03 -0.16793199526E+04  0.17846656791E+04  0.86635061356E+02 0.  0.
          2    1    3    3  502    0 -0.18543453222E+01  0.41495398655E+01 -0.32791276314E+00  0.45568414993E+01  0.00000000000E+00 0. -1.
         -2    1    3    3    0  502  0.21905748552E+03 -0.22231620788E+03  0.45308722692E+03  0.55018061893E+03  0.00000000000E+00 0.  1.
         11    1    5    5    0    0 -0.23250986538E+02 -0.65865484825E+02 -0.20915914043E+03  0.22051398253E+03  0.00000000000E+00 0.  1.
        -11    1    5    5    0    0  0.83518784332E+02 -0.24551513268E+03 -0.84376889538E+03  0.88272250256E+03  0.00000000000E+00 0. -1.
          1    1    6    6  503    0 -0.15011819350E+03  0.29992296486E+03 -0.81415124654E+03  0.88052910748E+03  0.00000000000E+00 0. -1.
         -1    1    6    6    0  503 -0.12735274449E+03  0.22962432066E+03 -0.86516870603E+03  0.90413657157E+03  0.00000000000E+00 0.  1.
<mgrwt>
<rscale>  0 0.25798641E+04</rscale>
<asrwt>0</asrwt>
<pdfrwt beam="1">  1        1 0.44016373E+00 0.25798641E+04</pdfrwt>
<pdfrwt beam="2">  1       -1 0.89473148E-01 0.25798641E+04</pdfrwt>
<totfact> 0.81335739E-01</totfact>
</mgrwt>
</event>
<event>
12    2  0.3518828E-008  0.2405605E+04  0.7818608E-02  0.8437408E-01
          2   -1    0    0  501    0  0.00000000000E+00  0.00000000000E+00  0.23380433323E+04  0.23380433323E+04  0.00000000000E+00 0.  1.
         -2   -1    0    0    0  501 -0.00000000000E+00 -0.00000000000E+00 -0.61877958633E+03  0.61877958633E+03  0.00000000000E+00 0. -1.
         23    2    1    2    0    0  0.70413447475E+03  0.56812319883E+03  0.13039700276E+03  0.91866977616E+03  0.91550268854E+02 0.  0.
        254    2    1    2    0    0 -0.70413447475E+03 -0.56812319883E+03  0.15888667432E+04  0.20381531424E+04  0.90055614866E+03 0.  0.
         23    2    4    4    0    0 -0.38446246651E+03 -0.53616382191E+03  0.15680765666E+04  0.17036276090E+04  0.90553184749E+02 0.  0.
         23    2    4    4    0    0 -0.31967200824E+03 -0.31959376919E+02  0.20790176538E+02  0.33452553343E+03  0.90903830787E+02 0.  0.
          3    1    3    3  502    0  0.69467003127E+03  0.57120961871E+03  0.12791670106E+03  0.90841045969E+03  0.00000000000E+00 0. -1.
         -3    1    3    3    0  502  0.94644434738E+01 -0.30864198847E+01  0.24803016964E+01  0.10259316472E+02  0.00000000000E+00 0.  1.
         11    1    5    5    0    0 -0.18775414400E+03 -0.24235870160E+03  0.61735759458E+03  0.68928931402E+03  0.00000000000E+00 0. -1.
        -11    1    5    5    0    0 -0.19670832251E+03 -0.29380512031E+03  0.95071897205E+03  0.10143382950E+04  0.00000000000E+00 0.  1.
          2    1    6    6  503    0 -0.25266831921E+03 -0.82354504795E+01 -0.18195413544E+02  0.25345645632E+03  0.00000000000E+00 0.  1.
         -2    1    6    6    0  503 -0.67003689026E+02 -0.23723926439E+02  0.38985590082E+02  0.81069077106E+02  0.00000000000E+00 0. -1.
<mgrwt>
<rscale>  0 0.24056047E+04</rscale>
<asrwt>0</asrwt>
<pdfrwt beam="1">  1        2 0.35969897E+00 0.24056047E+04</pdfrwt>
<pdfrwt beam="2">  1       -2 0.95196861E-01 0.24056047E+04</pdfrwt>
<totfact> 0.35952548E+00</totfact>
</mgrwt>
</event>
<event>
12    2  0.3518828E-008  0.1736047E+04  0.7818608E-02  0.8741068E-01
         -1   -1    0    0    0  501 -0.00000000000E+00  0.00000000000E+00  0.30002866949E+03  0.30002866949E+03  0.00000000000E+00 0.  1.
          1   -1    0    0  501    0  0.00000000000E+00 -0.00000000000E+00 -0.25113105276E+04  0.25113105276E+04  0.00000000000E+00 0. -1.
         23    2    1    2    0    0 -0.48496565803E+03 -0.27265692865E+03 -0.12957858915E+04  0.14131542508E+04  0.91708068401E+02 0.  0.
        254    2    1    2    0    0  0.48496565803E+03  0.27265692865E+03 -0.91549596661E+03  0.13981849463E+04  0.89847358831E+03 0.  0.
         23    2    4    4    0    0  0.69172446704E+03  0.56590377553E+01 -0.52019290634E+03  0.87055029469E+03  0.93500763494E+02 0.  0.
         23    2    4    4    0    0 -0.20675880901E+03  0.26699789089E+03 -0.39530306027E+03  0.52763465158E+03  0.89981871746E+02 0.  0.
          4    1    3    3  502    0 -0.46764121388E+03 -0.25286770944E+03 -0.12677768992E+04  0.13747322101E+04  0.00000000000E+00 0. -1.
         -4    1    3    3    0  502 -0.17324444145E+02 -0.19789219209E+02 -0.28008992271E+02  0.38422040678E+02  0.00000000000E+00 0.  1.
         11    1    5    5    0    0  0.64196276721E+03  0.45934275335E+01 -0.50962519344E+03  0.81966769599E+03  0.00000000000E+00 0.  1.
        -11    1    5    5    0    0  0.49761699825E+02  0.10656102217E+01 -0.10567712904E+02  0.50882598702E+02  0.00000000000E+00 0. -1.
          2    1    6    6  503    0 -0.57105255307E+02  0.12528285107E+03 -0.20606958787E+03  0.24783356916E+03  0.00000000000E+00 0. -1.
         -2    1    6    6    0  503 -0.14965355370E+03  0.14171503982E+03 -0.18923347240E+03  0.27980108242E+03  0.00000000000E+00 0.  1.
<mgrwt>
<rscale>  0 0.17360474E+04</rscale>
<asrwt>0</asrwt>
<pdfrwt beam="1">  1        1 0.38635546E+00 0.17360474E+04</pdfrwt>
<pdfrwt beam="2">  1       -1 0.46158258E-01 0.17360474E+04</pdfrwt>
<totfact> 0.59024893E+00</totfact>
</mgrwt>
</event>
<event>
12    2  0.3518828E-008  0.2433137E+04  0.7818608E-02  0.8427201E-01
          1   -1    0    0  501    0  0.00000000000E+00  0.00000000000E+00  0.97437065658E+03  0.97437065658E+03  0.00000000000E+00 0. -1.
         -1   -1    0    0    0  501 -0.00000000000E+00 -0.00000000000E+00 -0.15189693978E+04  0.15189693978E+04  0.00000000000E+00 0.  1.
         23    2    1    2    0    0 -0.53575066554E+02  0.82930975748E+03 -0.89031204325E+03  0.12214386459E+04  0.92907855795E+02 0.  0.
        254    2    1    2    0    0  0.53575066554E+02 -0.82930975748E+03  0.34571330203E+03  0.12719014085E+04  0.89866041648E+03 0.  0.
         23    2    4    4    0    0  0.52599059118E+01 -0.17513707696E+03 -0.29178783756E+03  0.35271368031E+03  0.92553421322E+02 0.  0.
         23    2    4    4    0    0  0.48315160642E+02 -0.65417268052E+03  0.63750113959E+03  0.91918772820E+03  0.90675939486E+02 0.  0.
          1    1    3    3  502    0 -0.13973567034E+02  0.65917320823E+03 -0.66631002630E+03  0.93737592788E+03  0.00000000000E+00 0. -1.
         -1    1    3    3    0  502 -0.39601499520E+02  0.17013654925E+03 -0.22400201695E+03  0.28406271800E+03  0.00000000000E+00 0.  1.
         11    1    5    5    0    0 -0.31652768358E+02 -0.14598413994E+03 -0.20057625669E+03  0.25008818766E+03  0.00000000000E+00 0. -1.
        -11    1    5    5    0    0  0.36912674269E+02 -0.29152937020E+02 -0.91211580863E+02  0.10262549265E+03  0.00000000000E+00 0.  1.
          4    1    6    6  503    0  0.19296852212E+02 -0.60323782794E+03  0.57878837064E+03  0.83622020039E+03  0.00000000000E+00 0. -1.
         -4    1    6    6    0  503  0.29018308431E+02 -0.50934852585E+02  0.58712768951E+02  0.82967527804E+02  0.00000000000E+00 0.  1.
<mgrwt>
<rscale>  0 0.24331372E+04</rscale>
<asrwt>0</asrwt>
<pdfrwt beam="1">  1        1 0.14990318E+00 0.24331372E+04</pdfrwt>
<pdfrwt beam="2">  1       -1 0.23368760E+00 0.24331372E+04</pdfrwt>
<totfact> 0.12637136E+00</totfact>
</mgrwt>
</event>
<event>
12    2  0.3518828E-008  0.2274551E+04  0.7818608E-02  0.8488023E-01
          2   -1    0    0  501    0  0.00000000000E+00  0.00000000000E+00  0.17792971935E+04  0.17792971935E+04  0.00000000000E+00 0. -1.
         -2   -1    0    0    0  501 -0.00000000000E+00 -0.00000000000E+00 -0.72691399265E+03  0.72691399265E+03  0.00000000000E+00 0.  1.
         23    2    1    2    0    0  0.27612466707E+03 -0.21613812945E+03  0.14256110585E+04  0.14708976467E+04  0.90622702904E+02 0.  0.
        254    2    1    2    0    0 -0.27612466707E+03  0.21613812945E+03 -0.37322785765E+03  0.10353135394E+04  0.89978584587E+03 0.  0.
         23    2    4    4    0    0  0.20434358222E+03  0.23203774009E+03  0.11719543023E+03  0.34245223561E+03  0.89112021553E+02 0.  0.
         23    2    4    4    0    0 -0.48046824929E+03 -0.15899610638E+02 -0.49042328788E+03  0.69286130382E+03  0.91865384346E+02 0.  0.
          4    1    3    3  502    0  0.28061460885E+03 -0.19936731920E+03  0.13369873192E+04  0.13805893591E+04  0.00000000000E+00 0. -1.
         -4    1    3    3    0  502 -0.44899417845E+01 -0.16770810255E+02  0.88623739310E+02  0.90308287676E+02  0.00000000000E+00 0.  1.
         11    1    5    5    0    0  0.15592873553E+03  0.16244254730E+03  0.41839424472E+02  0.22902377426E+03  0.00000000000E+00 0.  1.
        -11    1    5    5    0    0  0.48414846696E+02  0.69595192786E+02  0.75356005759E+02  0.11342846135E+03  0.00000000000E+00 0. -1.
          3    1    6    6  503    0 -0.13167586537E+03  0.35913477496E+02 -0.12567716911E+03  0.18553453108E+03  0.00000000000E+00 0. -1.
         -3    1    6    6    0  503 -0.34879238392E+03 -0.51813088134E+02 -0.36474611877E+03  0.50732677274E+03  0.00000000000E+00 0.  1.
<mgrwt>
<rscale>  0 0.22745514E+04</rscale>
<asrwt>0</asrwt>
<pdfrwt beam="1">  1        2 0.27373803E+00 0.22745514E+04</pdfrwt>
<pdfrwt beam="2">  1       -2 0.11183292E+00 0.22745514E+04</pdfrwt>
<totfact> 0.50810081E+00</totfact>
</mgrwt>
</event>
<event>
12    2  0.3518828E-008  0.1612945E+04  0.7818608E-02  0.8812635E-01
         -1   -1    0    0    0  501 -0.00000000000E+00  0.00000000000E+00  0.46160551559E+03  0.46160551559E+03  0.00000000000E+00 0.  1.
          1   -1    0    0  501    0  0.00000000000E+00 -0.00000000000E+00 -0.14089902308E+04  0.14089902308E+04  0.00000000000E+00 0. -1.
         23    2    1    2    0    0  0.15060268312E+03 -0.20992010842E+03 -0.91309282945E+03  0.95298061153E+03  0.87669325840E+02 0.  0.
        254    2    1    2    0    0 -0.15060268312E+03  0.20992010842E+03 -0.34291885774E+02  0.91761513486E+03  0.87982610908E+03 0.  0.
         23    2    4    4    0    0 -0.83427776240E+02  0.51178087627E+03  0.14881719312E+03  0.54646336724E+03  0.87153861648E+02 0.  0.
         23    2    4    4    0    0 -0.67174906877E+02 -0.30186076786E+03 -0.18310907890E+03  0.37115176762E+03  0.92694706149E+02 0.  0.
          2    1    3    3  502    0  0.15813593198E+03 -0.18474997489E+03 -0.76979643544E+03  0.80729553339E+03  0.00000000000E+00 0. -1.
         -2    1    3    3    0  502 -0.75332488668E+01 -0.25170133528E+02 -0.14329639400E+03  0.14568507815E+03  0.00000000000E+00 0.  1.
         11    1    5    5    0    0 -0.68007745805E+02  0.46762527041E+03  0.15903688744E+03  0.49858918819E+03  0.00000000000E+00 0.  1.
        -11    1    5    5    0    0 -0.15420030435E+02  0.44155605866E+02 -0.10219694315E+02  0.47874179052E+02  0.00000000000E+00 0. -1.
          3    1    6    6  503    0 -0.52594252036E+02 -0.59955680450E+02 -0.34705648456E+02  0.86978853753E+02  0.00000000000E+00 0. -1.
         -3    1    6    6    0  503 -0.14580654841E+02 -0.24190508741E+03 -0.14840343044E+03  0.28417291387E+03  0.00000000000E+00 0.  1.
<mgrwt>
<rscale>  0 0.16129447E+04</rscale>
<asrwt>0</asrwt>
<pdfrwt beam="1">  1        1 0.21676772E+00 0.16129447E+04</pdfrwt>
<pdfrwt beam="2">  1       -1 0.71016234E-01 0.16129447E+04</pdfrwt>
<totfact> 0.14535765E+01</totfact>
</mgrwt>
</event>
<event>
12    2  0.3518828E-008  0.1739222E+04  0.7818608E-02  0.8739305E-01
          3   -1    0    0  501    0  0.00000000000E+00  0.00000000000E+00  0.32532225023E+03  0.32532225023E+03  0.00000000000E+00 0. -1.
         -3   -1    0    0    0  501 -0.00000000000E+00 -0.00000000000E+00 -0.23245361681E+04  0.23245361681E+04  0.00000000000E+00 0.  1.
         23    2    1    2    0    0 -0.49581098010E+03 -0.15312635659E+03 -0.17965606381E+03  0.55652478946E+03  0.90373286672E+02 0.  0.
        254    2    1    2    0    0  0.49581098010E+03  0.15312635659E+03 -0.18195578540E+04  0.20933336288E+04  0.89553262833E+03 0.  0.
         23    2    4    4    0    0  0.23306008223E+02  0.26907359449E+03 -0.94812323934E+02  0.29885435628E+03  0.85911467385E+02 0.  0.
         23    2    4    4    0    0  0.47250497188E+03 -0.11594723790E+03 -0.17247455301E+04  0.17944792725E+04  0.93295260545E+02 0.  0.
          3    1    3    3  502    0 -0.30740938702E+03 -0.53680653351E+02 -0.85170270642E+02  0.32347506669E+03  0.00000000000E+00 0. -1.
         -3    1    3    3    0  502 -0.18840159309E+03 -0.99445703241E+02 -0.94485793171E+02  0.23304972277E+03  0.00000000000E+00 0.  1.
         11    1    5    5    0    0 -0.11119293235E+02 -0.57663117754E+00 -0.71419836239E+01  0.13227967178E+02  0.00000000000E+00 0. -1.
        -11    1    5    5    0    0  0.34425301459E+02  0.26965022567E+03 -0.87670340310E+02  0.28562638910E+03  0.00000000000E+00 0.  1.
          1    1    6    6  503    0 -0.11223767282E+01  0.29663499804E+01 -0.47128496015E+02  0.47235093928E+02  0.00000000000E+00 0. -1.
         -1    1    6    6    0  503  0.47362734861E+03 -0.11891358788E+03 -0.16776170341E+04  0.17472441786E+04  0.00000000000E+00 0.  1.
<mgrwt>
<rscale>  0 0.17392221E+04</rscale>
<asrwt>0</asrwt>
<pdfrwt beam="1">  1        3 0.50049576E-01 0.17392221E+04</pdfrwt>
<pdfrwt beam="2">  1       -3 0.35762096E+00 0.17392221E+04</pdfrwt>
<totfact> 0.17929095E-01</totfact>
</mgrwt>
</event>
<event>
12    2  0.3518828E-008  0.1246499E+04  0.7818608E-02  0.9073102E-01
         -2   -1    0    0    0  501 -0.00000000000E+00  0.00000000000E+00  0.12959095380E+03  0.12959095380E+03  0.00000000000E+00 0.  1.
          2   -1    0    0  501    0  0.00000000000E+00 -0.00000000000E+00 -0.29974301442E+04  0.29974301442E+04  0.00000000000E+00 0. -1.
         23    2    1    2    0    0 -0.19127094116E+03 -0.82819429622E+02 -0.12687829439E+04  0.12890725640E+04  0.91947190373E+02 0.  0.
        254    2    1    2    0    0  0.19127094116E+03  0.82819429622E+02 -0.15990562466E+04  0.18379485340E+04  0.88183348944E+03 0.  0.
         23    2    4    4    0    0 -0.16952223896E+03  0.29525279280E+03 -0.12083720666E+04  0.12588077013E+04  0.92313467580E+02 0.  0.
         23    2    4    4    0    0  0.36079318012E+03 -0.21243336317E+03 -0.39068417999E+03  0.57914083274E+03  0.86431030607E+02 0.  0.
          3    1    3    3  502    0 -0.74144775293E+02 -0.17208549373E+02 -0.72406624317E+03  0.72805597750E+03  0.00000000000E+00 0. -1.
         -3    1    3    3    0  502 -0.11712616587E+03 -0.65610880249E+02 -0.54471670071E+03  0.56101658653E+03  0.00000000000E+00 0.  1.
         11    1    5    5    0    0 -0.79677588205E+02  0.19180175135E+03 -0.59157490872E+03  0.62697472238E+03  0.00000000000E+00 0. -1.
        -11    1    5    5    0    0 -0.89844650751E+02  0.10345104145E+03 -0.61679715787E+03  0.63183297888E+03  0.00000000000E+00 0.  1.
          1    1    6    6  503    0  0.32496603215E+03 -0.17064028935E+03 -0.30465380152E+03  0.47700625696E+03  0.00000000000E+00 0.  1.
         -1    1    6    6    0  503  0.35827147965E+02 -0.41793073824E+02 -0.86030378463E+02  0.10213457578E+03  0.00000000000E+00 0. -1.
<mgrwt>
<rscale>  0 0.12464988E+04</rscale>
<asrwt>0</asrwt>
<pdfrwt beam="1">  1        2 0.46114306E+00 0.12464988E+04</pdfrwt>
<pdfrwt beam="2">  1       -2 0.19937071E-01 0.12464988E+04</pdfrwt>
<totfact> 0.37431828E+01</totfact>
</mgrwt>
</event>
<event>
12    2  0.3518828E-008  0.2441240E+04  0.7818608E-02  0.8424223E-01
         -2   -1    0    0    0  501 -0.00000000000E+00  0.00000000000E+00  0.59547377126E+03  0.59547377126E+03  0.00000000000E+00 0.  1.
          2   -1    0    0  501    0  0.00000000000E+00 -0.00000000000E+00 -0.25020630692E+04  0.25020630692E+04  0.00000000000E+00 0. -1.
         23    2    1    2    0    0  0.31071247226E+03  0.68100409025E+02  0.44945488557E+03  0.55795202063E+03  0.90115797942E+02 0.  0.
        254    2    1    2    0    0 -0.31071247226E+03 -0.68100409025E+02 -0.23560441835E+04  0.25395848198E+04  0.89295406167E+03 0.  0.
         23    2    4    4    0    0  0.15613875684E+01  0.37813922335E+03 -0.81707351034E+03  0.90459278259E+03  0.87677082748E+02 0.  0.
         23    2    4    4    0    0 -0.31227385983E+03 -0.44623963238E+03 -0.15389706731E+04  0.16349920372E+04  0.90130216312E+02 0.  0.
          3    1    3    3  502    0  0.12918645043E+03  0.32498652832E+02  0.11607018056E+03  0.17668499717E+03  0.00000000000E+00 0. -1.
         -3    1    3    3    0  502  0.18152602184E+03  0.35601756193E+02  0.33338470501E+03  0.38126702346E+03  0.00000000000E+00 0.  1.
         11    1    5    5    0    0 -0.29835190214E+02  0.30386065203E+03 -0.60435078642E+03  0.67709770895E+03  0.00000000000E+00 0.  1.
        -11    1    5    5    0    0  0.31396577782E+02  0.74278571325E+02 -0.21272272392E+03  0.22749507364E+03  0.00000000000E+00 0. -1.
          1    1    6    6  503    0 -0.20587402864E+03 -0.21810421131E+03 -0.86792234054E+03  0.91828250112E+03  0.00000000000E+00 0. -1.
         -1    1    6    6    0  503 -0.10639983119E+03 -0.22813542106E+03 -0.67104833259E+03  0.71670953607E+03  0.00000000000E+00 0.  1.
<mgrwt>
<rscale>  0 0.24412398E+04</rscale>
<asrwt>0</asrwt>
<pdfrwt beam="1">  1        2 0.38493278E+00 0.24412398E+04</pdfrwt>
<pdfrwt beam="2">  1       -2 0.91611350E-01 0.24412398E+04</pdfrwt>
<totfact> 0.31551828E+00</totfact>
</mgrwt>
</event>
<event>
12    2  0.3518828E-008  0.2363396E+04  0.7818608E-02  0.8453336E-01
          2   -1    0    0  501    0  0.00000000000E+00  0.00000000000E+00  0.16753427703E+04  0.16753427703E+04  0.00000000000E+00 0. -1.
         -2   -1    0    0    0  501 -0.00000000000E+00 -0.00000000000E+00 -0.83350725620E+03  0.83350725620E+03  0.00000000000E+00 0.  1.
         23    2    1    2    0    0  0.71124607065E+03  0.28516330176E+03  0.10141608313E+04  0.12742806642E+04  0.89888474050E+02 0.  0.
        254    2    1    2    0    0 -0.71124607065E+03 -0.28516330176E+03 -0.17232531722E+03  0.12345693623E+04  0.95251058450E+03 0.  0.
         23    2    4    4    0    0 -0.32433849814E+03 -0.55809688590E+03 -0.32502019558E+03  0.72828570693E+03  0.89968594300E+02 0.  0.
         23    2    4    4    0    0 -0.38690757251E+03  0.27293358414E+03  0.15269487836E+03  0.50628365533E+03  0.93899961425E+02 0.  0.
          3    1    3    3  502    0  0.42284306308E+03  0.21652628783E+03  0.62903612729E+03  0.78826793589E+03  0.00000000000E+00 0. -1.
         -3    1    3    3    0  502  0.28840300757E+03  0.68637013932E+02  0.38512470403E+03  0.48601272834E+03  0.00000000000E+00 0.  1.
         11    1    5    5    0    0 -0.17885131475E+02 -0.47951982643E+01 -0.15325593189E+02  0.24036340421E+02  0.00000000000E+00 0. -1.
        -11    1    5    5    0    0 -0.30645336666E+03 -0.55330168764E+03 -0.30969460239E+03  0.70424936651E+03  0.00000000000E+00 0.  1.
          1    1    6    6  503    0 -0.13860663621E+03  0.15158014663E+03  0.80771687726E+02  0.22070887158E+03  0.00000000000E+00 0. -1.
         -1    1    6    6    0  503 -0.24830093630E+03  0.12135343751E+03  0.71923190634E+02  0.28557478375E+03  0.00000000000E+00 0.  1.
<mgrwt>
<rscale>  0 0.23633962E+04</rscale>
<asrwt>0</asrwt>
<pdfrwt beam="1">  1        2 0.25774504E+00 0.23633962E+04</pdfrwt>
<pdfrwt beam="2">  1       -2 0.12823189E+00 0.23633962E+04</pdfrwt>
<totfact> 0.41052689E+00</totfact>
</mgrwt>
</event>
<event>
12    2  0.3518828E-008  0.1433176E+04  0.7818608E-02  0.8930148E-01
          2   -1    0    0  501    0  0.00000000000E+00  0.00000000000E+00  0.73167163855E+03  0.73167163855E+03  0.00000000000E+00 0.  1.
         -2   -1    0    0    0  501 -0.00000000000E+00 -0.00000000000E+00 -0.70181514552E+03  0.70181514552E+03  0.00000000000E+00 0. -1.
         23    2    1    2    0    0  0.92806827884E+02 -0.29789554132E+03 -0.28662786068E+03  0.43406359820E+03  0.94344135608E+02 0.  0.
        254    2    1    2    0    0 -0.92806827884E+02  0.29789554132E+03  0.31648435370E+03  0.99942318587E+03  0.89517009416E+03 0.  0.
         23    2    4    4    0    0 -0.13463946112E+03  0.55182528988E+03  0.41814659530E+03  0.71087781850E+03  0.88666581222E+02 0.  0.
         23    2    4    4    0    0  0.41832633232E+02 -0.25392974856E+03 -0.10166224160E+03  0.28854536737E+03  0.81810337107E+02 0.  0.
          3    1    3    3  502    0  0.10386774871E+03 -0.27716165164E+03 -0.23709002983E+03  0.37923445598E+03  0.00000000000E+00 0. -1.
         -3    1    3    3    0  502 -0.11060920827E+02 -0.20733889683E+02 -0.49537830846E+02  0.54829142213E+02  0.00000000000E+00 0.  1.
         11    1    5    5    0    0 -0.14125885055E+03  0.52411483354E+03  0.41266022591E+03  0.68186427069E+03  0.00000000000E+00 0.  1.
        -11    1    5    5    0    0  0.66193894366E+01  0.27710456342E+02  0.54863693906E+01  0.29013547806E+02  0.00000000000E+00 0. -1.
          4    1    6    6  503    0 -0.12426311049E+02 -0.69939313764E+02 -0.58265054649E+02  0.91873485888E+02  0.00000000000E+00 0. -1.
         -4    1    6    6    0  503  0.54258944281E+02 -0.18399043480E+03 -0.43397186953E+02  0.19667188149E+03  0.00000000000E+00 0.  1.
<mgrwt>
<rscale>  0 0.14331758E+04</rscale>
<asrwt>0</asrwt>
<pdfrwt beam="1">  1        2 0.11256487E+00 0.14331758E+04</pdfrwt>
<pdfrwt beam="2">  1       -2 0.10797156E+00 0.14331758E+04</pdfrwt>
<totfact> 0.25841814E+01</totfact>
</mgrwt>
</event>
<event>
12    2  0.3518828E-008  0.1722988E+04  0.7818608E-02  0.8748361E-01
         -1   -1    0    0    0  501 -0.00000000000E+00  0.00000000000E+00  0.14195728225E+04  0.14195728225E+04  0.00000000000E+00 0.  1.
          1   -1    0    0  501    0  0.00000000000E+00 -0.00000000000E+00 -0.52281365259E+03  0.52281365259E+03  0.00000000000E+00 0. -1.
         23    2    1    2    0    0  0.60605012169E+03 -0.12880636421E+03  0.56839862874E+03  0.84533768615E+03  0.87355440618E+02 0.  0.
        254    2    1    2    0    0 -0.60605012169E+03  0.12880636421E+03  0.32836054119E+03  0.10970487890E+04  0.84368689150E+03 0.  0.
         23    2    4    4    0    0  0.17185267101E+02 -0.26487111609E+03 -0.93794877238E+01  0.28120582028E+03  0.92394247791E+02 0.  0.
         23    2    4    4    0    0 -0.62323538879E+03  0.39367748030E+03  0.33774002891E+03  0.81584296868E+03  0.90150507901E+02 0.  0.
          1    1    3    3  502    0  0.22682082424E+03 -0.63944429882E+02  0.16366725077E+03  0.28692079987E+03  0.00000000000E+00 0.  1.
         -1    1    3    3    0  502  0.37922929745E+03 -0.64861934333E+02  0.40473137797E+03  0.55841688628E+03  0.00000000000E+00 0. -1.
         11    1    5    5    0    0  0.16713419061E+02 -0.24233501853E+02  0.24365009752E+02  0.38213278961E+02  0.00000000000E+00 0. -1.
        -11    1    5    5    0    0  0.47184803975E+00 -0.24063761424E+03 -0.33744497476E+02  0.24299254132E+03  0.00000000000E+00 0.  1.
          2    1    6    6  503    0 -0.33314774586E+03  0.16745482445E+03  0.14071010401E+03  0.39853214697E+03  0.00000000000E+00 0. -1.
         -2    1    6    6    0  503 -0.29008764293E+03  0.22622265586E+03  0.19702992491E+03  0.41731082171E+03  0.00000000000E+00 0.  1.
<mgrwt>
<rscale>  0 0.17229882E+04</rscale>
<asrwt>0</asrwt>
<pdfrwt beam="1">  1        1 0.80432870E-01 0.17229882E+04</pdfrwt>
<pdfrwt beam="2">  1       -1 0.21839582E+00 0.17229882E+04</pdfrwt>
<totfact> 0.44627514E+00</totfact>
</mgrwt>
</event>
<event>
12    2  0.3518828E-008  0.1913100E+04  0.7818608E-02  0.8648363E-01
          2   -1    0    0  501    0  0.00000000000E+00  0.00000000000E+00  0.23302900017E+04  0.23302900017E+04  0.00000000000E+00 0. -1.
         -2   -1    0    0    0  501 -0.00000000000E+00 -0.00000000000E+00 -0.39264963185E+03  0.39264963185E+03  0.00000000000E+00 0.  1.
         23    2    1    2    0    0  0.53153372809E+03  0.20096141614E+01  0.38752757612E+02  0.54104837960E+03  0.93270736041E+02 0.  0.
        254    2    1    2    0    0 -0.53153372809E+03 -0.20096141614E+01  0.18988876123E+04  0.21818912540E+04  0.93399311427E+03 0.  0.
         23    2    4    4    0    0 -0.69057475840E+03 -0.19140963473E+03  0.92818628756E+03  0.11761548893E+04  0.90991175143E+02 0.  0.
         23    2    4    4    0    0  0.15904103030E+03  0.18940002057E+03  0.97070132469E+03  0.10057363647E+04  0.89878564630E+02 0.  0.
          3    1    3    3  502    0  0.53410911788E+03  0.68375413111E+01  0.38966691790E+02  0.53557231524E+03  0.00000000000E+00 0. -1.
         -3    1    3    3    0  502 -0.25753897916E+01 -0.48279271497E+01 -0.21393417766E+00  0.54760643690E+01  0.00000000000E+00 0.  1.
         11    1    5    5    0    0 -0.15545119330E+03 -0.44287124557E+01  0.20011333087E+03  0.25343644604E+03  0.00000000000E+00 0. -1.
        -11    1    5    5    0    0 -0.53512356510E+03 -0.18698092227E+03  0.72807295669E+03  0.92271844323E+03  0.00000000000E+00 0.  1.
          4    1    6    6  503    0  0.23194351782E+02 -0.64402947371E+01  0.11293205988E+03  0.11546906729E+03  0.00000000000E+00 0. -1.
         -4    1    6    6    0  503  0.13584667852E+03  0.19584031530E+03  0.85776926481E+03  0.89026729739E+03  0.00000000000E+00 0.  1.
<mgrwt>
<rscale>  0 0.19130996E+04</rscale>
<asrwt>0</asrwt>
<pdfrwt beam="1">  1        2 0.35850615E+00 0.19130996E+04</pdfrwt>
<pdfrwt beam="2">  1       -2 0.60407637E-01 0.19130996E+04</pdfrwt>
<totfact> 0.10411601E+01</totfact>
</mgrwt>
</event>
<event>
12    2  0.3518828E-008  0.1686679E+04  0.7818608E-02  0.8768999E-01
          1   -1    0    0  501    0  0.00000000000E+00  0.00000000000E+00  0.16997735447E+04  0.16997735447E+04  0.00000000000E+00 0. -1.
         -1   -1    0    0    0  501 -0.00000000000E+00 -0.00000000000E+00 -0.41842116980E+03  0.41842116980E+03  0.00000000000E+00 0.  1.
         23    2    1    2    0    0  0.55258732333E+03 -0.17771184057E+03  0.63309144121E+03  0.86367291077E+03  0.90508981275E+02 0.  0.
        254    2    1    2    0    0 -0.55258732333E+03  0.17771184057E+03  0.64826093370E+03  0.12545218037E+04  0.90368604599E+03 0.  0.
         23    2    4    4    0    0 -0.24334647065E+03  0.17063867277E+03 -0.18415436124E+03  0.36113653421E+03  0.90397489755E+02 0.  0.
         23    2    4    4    0    0 -0.30924085268E+03  0.70731678012E+01  0.83241529494E+03  0.89338526953E+03  0.97683580458E+02 0.  0.
          3    1    3    3  502    0  0.82999658604E+02 -0.28004782914E+02  0.52647300661E+02  0.10220053552E+03  0.00000000000E+00 0. -1.
         -3    1    3    3    0  502  0.46958766472E+03 -0.14970705766E+03  0.58044414055E+03  0.76147237525E+03  0.00000000000E+00 0.  1.
         11    1    5    5    0    0 -0.69240418491E+01  0.37404414570E+02 -0.12569005537E+02  0.40062607067E+02  0.00000000000E+00 0.  1.
        -11    1    5    5    0    0 -0.23642242880E+03  0.13323425820E+03 -0.17158535571E+03  0.32107392714E+03  0.00000000000E+00 0. -1.
          4    1    6    6  503    0 -0.33897344050E+02 -0.51420089125E+01  0.20856781233E+03  0.21136698543E+03  0.00000000000E+00 0. -1.
         -4    1    6    6    0  503 -0.27534350863E+03  0.12215176714E+02  0.62384748261E+03  0.68201828410E+03  0.00000000000E+00 0.  1.
<mgrwt>
<rscale>  0 0.16866787E+04</rscale>
<asrwt>0</asrwt>
<pdfrwt beam="1">  1        1 0.26150362E+00 0.16866787E+04</pdfrwt>
<pdfrwt beam="2">  1       -1 0.64372489E-01 0.16866787E+04</pdfrwt>
<totfact> 0.11114729E+01</totfact>
</mgrwt>
</event>
<event>
12    2  0.3518828E-008  0.2080340E+04  0.7818608E-02  0.8569954E-01
         -1   -1    0    0    0  501 -0.00000000000E+00  0.00000000000E+00  0.91252442661E+03  0.91252442661E+03  0.00000000000E+00 0.  1.
          1   -1    0    0  501    0  0.00000000000E+00 -0.00000000000E+00 -0.11856709239E+04  0.11856709239E+04  0.00000000000E+00 0. -1.
         23    2    1    2    0    0  0.36276740665E+03  0.42846628164E+03  0.49569385855E+03  0.75438067090E+03  0.90522093382E+02 0.  0.
        254    2    1    2    0    0 -0.36276740665E+03 -0.42846628164E+03 -0.76884035587E+03  0.13438146796E+04  0.94844022194E+03 0.  0.
         23    2    4    4    0    0  0.28483021162E+01 -0.23868187050E+03 -0.87315740590E+03  0.90910669248E+03  0.84225736582E+02 0.  0.
         23    2    4    4    0    0 -0.36561570876E+03 -0.18978441114E+03  0.10431705003E+03  0.43470798717E+03  0.91629787585E+02 0.  0.
          2    1    3    3  502    0  0.19802687777E+03  0.24717462762E+03  0.22027340387E+03  0.38578532024E+03  0.00000000000E+00 0. -1.
         -2    1    3    3    0  502  0.16474052888E+03  0.18129165402E+03  0.27542045468E+03  0.36859535066E+03  0.00000000000E+00 0.  1.
         11    1    5    5    0    0  0.22813286529E+01 -0.12077672563E+03 -0.29007110597E+03  0.31421882253E+03  0.00000000000E+00 0. -1.
        -11    1    5    5    0    0  0.56697346325E+00 -0.11790514487E+03 -0.58308629992E+03  0.59488786994E+03  0.00000000000E+00 0.  1.
          3    1    6    6  503    0 -0.11377675511E+03 -0.13781975245E+02  0.23165985194E+02  0.11692628326E+03  0.00000000000E+00 0. -1.
         -3    1    6    6    0  503 -0.25183895365E+03 -0.17600243590E+03  0.81151064837E+02  0.31778170391E+03  0.00000000000E+00 0.  1.
<mgrwt>
<rscale>  0 0.20803400E+04</rscale>
<asrwt>0</asrwt>
<pdfrwt beam="1">  1        1 0.18241091E+00 0.20803400E+04</pdfrwt>
<pdfrwt beam="2">  1       -1 0.14038837E+00 0.20803400E+04</pdfrwt>
<totfact> 0.41971584E+00</totfact>
</mgrwt>
</event>
<event>
12    2  0.3518828E-008  0.1927602E+04  0.7818608E-02  0.8641238E-01
          1   -1    0    0  501    0  0.00000000000E+00  0.00000000000E+00  0.43532345338E+03  0.43532345338E+03  0.00000000000E+00 0. -1.
         -1   -1    0    0    0  501 -0.00000000000E+00 -0.00000000000E+00 -0.21338450397E+04  0.21338450397E+04  0.00000000000E+00 0.  1.
         23    2    1    2    0    0  0.44503539291E+03  0.58261126916E+03 -0.87416900541E+03  0.11442958483E+04  0.88029236315E+02 0.  0.
        254    2    1    2    0    0 -0.44503539291E+03 -0.58261126916E+03 -0.82435258090E+03  0.14248726448E+04  0.90178294748E+03 0.  0.
         23    2    4    4    0    0 -0.60467745401E+03 -0.48626368094E+03 -0.26046181599E+03  0.82354784914E+03  0.91123605310E+02 0.  0.
         23    2    4    4    0    0  0.15964206110E+03 -0.96347588220E+02 -0.56389076490E+03  0.60132479566E+03  0.94075872070E+02 0.  0.
          3    1    3    3  502    0  0.39396679575E+02  0.54555042604E+02 -0.45442692430E+02  0.81199687994E+02  0.00000000000E+00 0. -1.
         -3    1    3    3    0  502  0.40563871334E+03  0.52805622655E+03 -0.82872631298E+03  0.10630961603E+04  0.00000000000E+00 0.  1.
         11    1    5    5    0    0 -0.53163649424E+03 -0.40136801837E+03 -0.24826591534E+03  0.71089353134E+03  0.00000000000E+00 0. -1.
        -11    1    5    5    0    0 -0.73040959765E+02 -0.84895662564E+02 -0.12195900656E+02  0.11265431780E+03  0.00000000000E+00 0.  1.
          3    1    6    6  503    0  0.15834269838E+03 -0.10326901822E+03 -0.46185135487E+03  0.49904265774E+03  0.00000000000E+00 0. -1.
         -3    1    6    6    0  503  0.12993627187E+01  0.69214299980E+01 -0.10203941003E+03  0.10228213792E+03  0.00000000000E+00 0.  1.
<mgrwt>
<rscale>  0 0.19276024E+04</rscale>
<asrwt>0</asrwt>
<pdfrwt beam="1">  1        1 0.66972838E-01 0.19276024E+04</pdfrwt>
<pdfrwt beam="2">  1       -1 0.32828386E+00 0.19276024E+04</pdfrwt>
<totfact> 0.10814954E+00</totfact>
</mgrwt>
</event>
<event>
12    2  0.3518828E-008  0.2126938E+04  0.7818608E-02  0.8549469E-01
         -2   -1    0    0    0  501 -0.00000000000E+00  0.00000000000E+00  0.67866381581E+03  0.67866381581E+03  0.00000000000E+00 0.  1.
          2   -1    0    0  501    0  0.00000000000E+00 -0.00000000000E+00 -0.16664599573E+04  0.16664599573E+04  0.00000000000E+00 0. -1.
         23    2    1    2    0    0 -0.50034026050E+02  0.31098337230E+03  0.48691312989E+03  0.58674842719E+03  0.89304306432E+02 0.  0.
        254    2    1    2    0    0  0.50034026050E+02 -0.31098337230E+03 -0.14747092714E+04  0.17583753459E+04  0.90437954445E+03 0.  0.
         23    2    4    4    0    0 -0.29191349397E+03 -0.36120232959E+03 -0.38104219986E+03  0.60755689214E+03  0.90838363297E+02 0.  0.
         23    2    4    4    0    0  0.34194752002E+03  0.50218957298E+02 -0.10936670715E+04  0.11508184538E+04  0.93943600614E+02 0.  0.
          1    1    3    3  502    0 -0.73848986171E+02  0.18547076058E+03  0.29430893579E+03  0.35562736885E+03  0.00000000000E+00 0. -1.
         -1    1    3    3    0  502  0.23814960121E+02  0.12551261172E+03  0.19260419410E+03  0.23112105834E+03  0.00000000000E+00 0.  1.
         11    1    5    5    0    0 -0.52240849224E+02 -0.10793330007E+03 -0.13632899539E+03  0.18156072972E+03  0.00000000000E+00 0. -1.
        -11    1    5    5    0    0 -0.23967264475E+03 -0.25326902953E+03 -0.24471320447E+03  0.42599616242E+03  0.00000000000E+00 0.  1.
          3    1    6    6  503    0  0.25721012941E+03  0.75971230542E+02 -0.77611225265E+03  0.82114487592E+03  0.00000000000E+00 0. -1.
         -3    1    6    6    0  503  0.84737390611E+02 -0.25752273244E+02 -0.31755481886E+03  0.32967357784E+03  0.00000000000E+00 0.  1.
<mgrwt>
<rscale>  0 0.21269378E+04</rscale>
<asrwt>0</asrwt>
<pdfrwt beam="1">  1        2 0.25637845E+00 0.21269378E+04</pdfrwt>
<pdfrwt beam="2">  1       -2 0.10440982E+00 0.21269378E+04</pdfrwt>
<totfact> 0.70150201E+00</totfact>
</mgrwt>
</event>
<event>
12    2  0.3518828E-008  0.2286727E+04  0.7818608E-02  0.8483173E-01
          2   -1    0    0  501    0  0.00000000000E+00  0.00000000000E+00  0.24310898405E+04  0.24310898405E+04  0.00000000000E+00 0. -1.
         -2   -1    0    0    0  501 -0.00000000000E+00 -0.00000000000E+00 -0.53773399488E+03  0.53773399488E+03  0.00000000000E+00 0.  1.
         23    2    1    2    0    0 -0.43660849637E+03  0.73905010717E+03  0.13659939665E+04  0.16158878467E+04  0.91279661862E+02 0.  0.
        254    2    1    2    0    0  0.43660849637E+03 -0.73905010717E+03  0.52736187921E+03  0.13529359887E+04  0.90305215683E+03 0.  0.
         23    2    4    4    0    0  0.12284999509E+02 -0.31500620734E+03 -0.21710332412E+03  0.39264376694E+03  0.87495385574E+02 0.  0.
         23    2    4    4    0    0  0.42432349686E+03 -0.42404389983E+03  0.74446520333E+03  0.96029222179E+03  0.89827909333E+02 0.  0.
          3    1    3    3  502    0 -0.26445190833E+03  0.40219595781E+03  0.83715090118E+03  0.96566973218E+03  0.00000000000E+00 0. -1.
         -3    1    3    3    0  502 -0.17215658804E+03  0.33685414936E+03  0.52884306527E+03  0.65021811451E+03  0.00000000000E+00 0.  1.
         11    1    5    5    0    0  0.31500563934E+02 -0.82751776854E+02 -0.29059438339E+02  0.93191164051E+02  0.00000000000E+00 0. -1.
        -11    1    5    5    0    0 -0.19215564425E+02 -0.23225443048E+03 -0.18804388578E+03  0.29945260289E+03  0.00000000000E+00 0.  1.
          3    1    6    6  503    0  0.21189778648E+03 -0.16097699733E+03  0.37004154144E+03  0.45579053081E+03  0.00000000000E+00 0. -1.
         -3    1    6    6    0  503  0.21242571038E+03 -0.26306690250E+03  0.37442366189E+03  0.50450169099E+03  0.00000000000E+00 0.  1.
<mgrwt>
<rscale>  0 0.22867266E+04</rscale>
<asrwt>0</asrwt>
<pdfrwt beam="1">  1        2 0.37401382E+00 0.22867266E+04</pdfrwt>
<pdfrwt beam="2">  1       -2 0.82728308E-01 0.22867266E+04</pdfrwt>
<totfact> 0.44370057E+00</totfact>
</mgrwt>
</event>
<event>
12    2  0.3518828E-008  0.3592486E+04  0.7818608E-02  0.8092215E-01
          2   -1    0    0  501    0  0.00000000000E+00  0.00000000000E+00  0.16306094773E+04  0.16306094773E+04  0.00000000000E+00 0. -1.
         -2   -1    0    0    0  501 -0.00000000000E+00 -0.00000000000E+00 -0.19787014612E+04  0.19787014612E+04  0.00000000000E+00 0.  1.
         23    2    1    2    0    0 -0.11739266468E+04 -0.11508022194E+04 -0.51739942278E+03  0.17258776690E+04  0.92206536157E+02 0.  0.
        254    2    1    2    0    0  0.11739266468E+04  0.11508022194E+04  0.16930743886E+03  0.18834332695E+04  0.90344139360E+03 0.  0.
         23    2    4    4    0    0  0.94186749499E+03  0.10478701550E+04 -0.20019510760E+03  0.14261227387E+04  0.92745591315E+02 0.  0.
         23    2    4    4    0    0  0.23205915177E+03  0.10293206441E+03  0.36950254646E+03  0.45731053086E+03  0.90301328860E+02 0.  0.
          2    1    3    3  502    0 -0.77326146727E+03 -0.79077949422E+03 -0.30957567070E+03  0.11485219202E+04  0.00000000000E+00 0. -1.
         -2    1    3    3    0  502 -0.40066517949E+03 -0.36002272521E+03 -0.20782375208E+03  0.57735574878E+03  0.00000000000E+00 0.  1.
         11    1    5    5    0    0  0.83803061390E+03  0.97183816030E+03 -0.17881751759E+03  0.12956621567E+04  0.00000000000E+00 0. -1.
        -11    1    5    5    0    0  0.10383688109E+03  0.76031994715E+02 -0.21377590011E+02  0.13046058198E+03  0.00000000000E+00 0.  1.
          3    1    6    6  503    0  0.11053171085E+03  0.69674446817E+02  0.25739859120E+03  0.28866212497E+03  0.00000000000E+00 0. -1.
         -3    1    6    6    0  503  0.12152744092E+03  0.33257617594E+02  0.11210395526E+03  0.16864840589E+03  0.00000000000E+00 0.  1.
<mgrwt>
<rscale>  0 0.35924862E+04</rscale>
<asrwt>0</asrwt>
<pdfrwt beam="1">  1        2 0.25086300E+00 0.35924862E+04</pdfrwt>
<pdfrwt beam="2">  1       -2 0.30441561E+00 0.35924862E+04</pdfrwt>
<totfact> 0.26107476E-01</totfact>
</mgrwt>
</event>
<event>
12    2  0.3518828E-008  0.1521979E+04  0.7818608E-02  0.8869967E-01
          4   -1    0    0  501    0  0.00000000000E+00  0.00000000000E+00  0.24397393721E+04  0.24397393721E+04  0.00000000000E+00 0.  1.
         -4   -1    0    0    0  501 -0.00000000000E+00 -0.00000000000E+00 -0.23736347462E+03  0.23736347462E+03  0.00000000000E+00 0. -1.
         23    2    1    2    0    0  0.15414653764E+03  0.21040122717E+02 -0.10415226337E+03  0.19928342046E+03  0.68281372816E+02 0.  0.
        254    2    1    2    0    0 -0.15414653764E+03 -0.21040122717E+02  0.23065281608E+04  0.24778194263E+04  0.89180329138E+03 0.  0.
         23    2    4    4    0    0  0.23649461413E+02  0.13723991783E+03  0.21933231923E+04  0.21998108941E+04  0.95431923747E+02 0.  0.
         23    2    4    4    0    0 -0.17779599906E+03 -0.15828004055E+03  0.11320496858E+03  0.27800853213E+03  0.88370755976E+02 0.  0.
          4    1    3    3  502    0  0.11117265612E+03  0.15033247436E+02 -0.10799927415E+03  0.15572155026E+03  0.00000000000E+00 0. -1.
         -4    1    3    3    0  502  0.42973881525E+02  0.60068752812E+01  0.38470107770E+01  0.43561870206E+02  0.00000000000E+00 0.  1.
         11    1    5    5    0    0  0.44967332743E+02  0.34805895212E+02  0.11073562366E+04  0.11088152895E+04  0.00000000000E+00 0. -1.
        -11    1    5    5    0    0 -0.21317871330E+02  0.10243402262E+03  0.10859669556E+04  0.10909956047E+04  0.00000000000E+00 0.  1.
          3    1    6    6  503    0 -0.13462559756E+03 -0.16114424212E+03  0.10128497036E+03  0.23313121522E+03  0.00000000000E+00 0. -1.
         -3    1    6    6    0  503 -0.43170401502E+02  0.28642015715E+01  0.11919998213E+02  0.44877316919E+02  0.00000000000E+00 0.  1.
<mgrwt>
<rscale>  0 0.15219790E+04</rscale>
<asrwt>0</asrwt>
<pdfrwt beam="1">  1        4 0.37534450E+00 0.15219790E+04</pdfrwt>
<pdfrwt beam="2">  1       -4 0.36517459E-01 0.15219790E+04</pdfrwt>
<totfact> 0.14400497E-01</totfact>
</mgrwt>
</event>
<event>
12    2  0.3518828E-008  0.1785835E+04  0.7818608E-02  0.8713869E-01
         -2   -1    0    0    0  501 -0.00000000000E+00  0.00000000000E+00  0.27704096054E+03  0.27704096054E+03  0.00000000000E+00 0.  1.
          2   -1    0    0  501    0  0.00000000000E+00 -0.00000000000E+00 -0.28779192512E+04  0.28779192512E+04  0.00000000000E+00 0. -1.
         23    2    1    2    0    0 -0.96677854891E+02  0.45369582263E+02  0.18029117073E+03  0.23164621316E+03  0.98742367841E+02 0.  0.
        254    2    1    2    0    0  0.96677854891E+02 -0.45369582263E+02 -0.27811694614E+04  0.29233139986E+04  0.89412312055E+03 0.  0.
         23    2    4    4    0    0  0.38513083937E+03 -0.12884339676E+03 -0.23742295115E+04  0.24103613944E+04  0.89162178011E+02 0.  0.
         23    2    4    4    0    0 -0.28845298448E+03  0.83473814493E+02 -0.40693994986E+03  0.51295260416E+03  0.85716097435E+02 0.  0.
          4    1    3    3  502    0  0.34374911517E+01 -0.20334330941E+02  0.86582891765E+01  0.22366656695E+02  0.00000000000E+00 0. -1.
         -4    1    3    3    0  502 -0.10011534604E+03  0.65703913204E+02  0.17163288155E+03  0.20927955646E+03  0.00000000000E+00 0.  1.
         11    1    5    5    0    0  0.16717287058E+03 -0.65047161939E+02 -0.13057017576E+04  0.13179662294E+04  0.00000000000E+00 0.  1.
        -11    1    5    5    0    0  0.21795796878E+03 -0.63796234817E+02 -0.10685277539E+04  0.10923951650E+04  0.00000000000E+00 0. -1.
          3    1    6    6  503    0 -0.49638796585E+01  0.17654389955E+02 -0.10419960247E+02  0.21092490547E+02  0.00000000000E+00 0. -1.
         -3    1    6    6    0  503 -0.28348910482E+03  0.65819424539E+02 -0.39651998961E+03  0.49186011361E+03  0.00000000000E+00 0.  1.
<mgrwt>
<rscale>  0 0.17858348E+04</rscale>
<asrwt>0</asrwt>
<pdfrwt beam="1">  1        2 0.44275681E+00 0.17858348E+04</pdfrwt>
<pdfrwt beam="2">  1       -2 0.42621686E-01 0.17858348E+04</pdfrwt>
<totfact> 0.10256009E+01</totfact>
</mgrwt>
</event>
<event>
12    2  0.3518828E-008  0.1388132E+04  0.7818608E-02  0.8962454E-01
          2   -1    0    0  501    0  0.00000000000E+00  0.00000000000E+00  0.74929203539E+03  0.74929203539E+03  0.00000000000E+00 0. -1.
         -2   -1    0    0    0  501 -0.00000000000E+00 -0.00000000000E+00 -0.64291044124E+03  0.64291044124E+03  0.00000000000E+00 0.  1.
         23    2    1    2    0    0 -0.76164201039E+02 -0.12479126282E+03 -0.33167235130E+03  0.37385662826E+03  0.91588127396E+02 0.  0.
        254    2    1    2    0    0  0.76164201039E+02  0.12479126282E+03  0.43805394545E+03  0.10183458484E+04  0.90761399448E+03 0.  0.
         23    2    4    4    0    0  0.37571079447E+03 -0.22174667831E+03  0.15322258656E+03  0.47130664175E+03  0.91228280151E+02 0.  0.
         23    2    4    4    0    0 -0.29954659344E+03  0.34653794113E+03  0.28483135889E+03  0.54703920662E+03  0.91138818761E+02 0.  0.
          1    1    3    3  502    0 -0.69437016125E+02 -0.32849083926E+02 -0.11397132274E+03  0.13744098344E+03  0.00000000000E+00 0. -1.
         -1    1    3    3    0  502 -0.67271849143E+01 -0.91942178895E+02 -0.21770102857E+03  0.23641564482E+03  0.00000000000E+00 0.  1.
         11    1    5    5    0    0  0.37069725834E+03 -0.19969137214E+03  0.13473252581E+03  0.44209269951E+03  0.00000000000E+00 0. -1.
        -11    1    5    5    0    0  0.50135361369E+01 -0.22055306176E+02  0.18490060744E+02  0.29213942244E+02  0.00000000000E+00 0.  1.
          3    1    6    6  503    0 -0.17840358280E+03  0.25917587501E+03  0.16336776995E+03  0.35452644584E+03  0.00000000000E+00 0. -1.
         -3    1    6    6    0  503 -0.12114301063E+03  0.87362066126E+02  0.12146358894E+03  0.19251276078E+03  0.00000000000E+00 0.  1.
<mgrwt>
<rscale>  0 0.13881321E+04</rscale>
<asrwt>0</asrwt>
<pdfrwt beam="1">  1        2 0.11527570E+00 0.13881321E+04</pdfrwt>
<pdfrwt beam="2">  1       -2 0.98909299E-01 0.13881321E+04</pdfrwt>
<totfact> 0.31013008E+01</totfact>
</mgrwt>
</event>
<event>
12    2  0.3518828E-008  0.1928942E+04  0.7818608E-02  0.8640583E-01
         -2   -1    0    0    0  501 -0.00000000000E+00  0.00000000000E+00  0.48356773569E+03  0.48356773569E+03  0.00000000000E+00 0. -1.
          2   -1    0    0  501    0  0.00000000000E+00 -0.00000000000E+00 -0.19236281874E+04  0.19236281874E+04  0.00000000000E+00 0.  1.
         23    2    1    2    0    0 -0.12630712973E+03 -0.56932933479E+03 -0.11366186415E+04  0.12806867815E+04  0.90373190362E+02 0.  0.
        254    2    1    2    0    0  0.12630712973E+03  0.56932933479E+03 -0.30344181020E+03  0.11265091416E+04  0.91479862894E+03 0.  0.
         23    2    4    4    0    0  0.50594309367E+02 -0.10660170163E+03  0.21822198043E+03  0.26442218204E+03  0.91512571168E+02 0.  0.
         23    2    4    4    0    0  0.75712820366E+02  0.67593103642E+03 -0.52166379063E+03  0.86208695958E+03  0.91900044956E+02 0.  0.
          2    1    3    3  502    0 -0.10578374212E+02 -0.75930036687E+02 -0.22455338902E+03  0.23727936487E+03  0.00000000000E+00 0. -1.
         -2    1    3    3    0  502 -0.11572875552E+03 -0.49339929811E+03 -0.91206525250E+03  0.10434074166E+04  0.00000000000E+00 0.  1.
         11    1    5    5    0    0  0.48598417302E+02 -0.10684102791E+03  0.22692855810E+03  0.25548655912E+03  0.00000000000E+00 0.  1.
        -11    1    5    5    0    0  0.19958920651E+01  0.23932628320E+00 -0.87065776714E+01  0.89356229192E+01  0.00000000000E+00 0. -1.
          1    1    6    6  503    0  0.27187756778E+02  0.43695794232E+02 -0.28802117770E+02  0.58975067107E+02  0.00000000000E+00 0. -1.
         -1    1    6    6    0  503  0.48525063587E+02  0.63223524219E+03 -0.49286167286E+03  0.80311189247E+03  0.00000000000E+00 0.  1.
<mgrwt>
<rscale>  0 0.19289422E+04</rscale>
<asrwt>0</asrwt>
<pdfrwt beam="1">  1        2 0.29594279E+00 0.19289422E+04</pdfrwt>
<pdfrwt beam="2">  1       -2 0.74395038E-01 0.19289422E+04</pdfrwt>
<totfact> 0.11190790E+01</totfact>
</mgrwt>
</event>
<event>
12    2  0.3518828E-008  0.1686513E+04  0.7818608E-02  0.8769094E-01
         -2   -1    0    0    0  501 -0.00000000000E+00  0.00000000000E+00  0.62027384099E+03  0.62027384099E+03  0.00000000000E+00 0.  1.
          2   -1    0    0  501    0  0.00000000000E+00 -0.00000000000E+00 -0.11463988465E+04  0.11463988465E+04  0.00000000000E+00 0. -1.
         23    2    1    2    0    0 -0.74938254790E+01 -0.20038319734E+03 -0.78322879102E+03  0.81359772439E+03  0.91018321523E+02 0.  0.
        254    2    1    2    0    0  0.74938254790E+01  0.20038319734E+03  0.25710378554E+03  0.95307496307E+03  0.89556682917E+03 0.  0.
         23    2    4    4    0    0 -0.24415077785E+02  0.26029275130E+03  0.56279013005E+03  0.62712004386E+03  0.90545052501E+02 0.  0.
         23    2    4    4    0    0  0.31908903263E+02 -0.59909553959E+02 -0.30568634451E+03  0.32595491921E+03  0.90526987015E+02 0.  0.
          3    1    3    3  502    0 -0.38429853538E+02 -0.35060440991E+02 -0.18604542223E+03  0.19318122915E+03  0.00000000000E+00 0.  1.
         -3    1    3    3    0  502  0.30936028059E+02 -0.16532275635E+03 -0.59718336879E+03  0.62041649523E+03  0.00000000000E+00 0. -1.
         11    1    5    5    0    0  0.15714156904E+02  0.38016488755E+02  0.16122912772E+03  0.16639416988E+03  0.00000000000E+00 0.  1.
        -11    1    5    5    0    0 -0.40129234688E+02  0.22227626254E+03  0.40156100233E+03  0.46072587399E+03  0.00000000000E+00 0. -1.
          2    1    6    6  503    0  0.63263461229E+02 -0.48027368217E+02 -0.22334517130E+03  0.23704843211E+03  0.00000000000E+00 0. -1.
         -2    1    6    6    0  503 -0.31354557966E+02 -0.11882185742E+02 -0.82341173208E+02  0.88906487100E+02  0.00000000000E+00 0.  1.
<mgrwt>
<rscale>  0 0.16865126E+04</rscale>
<asrwt>0</asrwt>
<pdfrwt beam="1">  1        2 0.17636905E+00 0.16865126E+04</pdfrwt>
<pdfrwt beam="2">  1       -2 0.95426745E-01 0.16865126E+04</pdfrwt>
<totfact> 0.17929485E+01</totfact>
</mgrwt>
</event>
<event>
12    2  0.3518828E-008  0.1559999E+04  0.7818608E-02  0.8845506E-01
         -2   -1    0    0    0  501 -0.00000000000E+00  0.00000000000E+00  0.25469899829E+03  0.25469899829E+03  0.00000000000E+00 0.  1.
          2   -1    0    0  501    0  0.00000000000E+00 -0.00000000000E+00 -0.23886996973E+04  0.23886996973E+04  0.00000000000E+00 0. -1.
         23    2    1    2    0    0  0.19667853953E+03  0.47037320122E+03 -0.58749071463E+03  0.78338680825E+03  0.92823247187E+02 0.  0.
        254    2    1    2    0    0 -0.19667853953E+03 -0.47037320122E+03 -0.15465099844E+04  0.18600118874E+04  0.89889804368E+03 0.  0.
         23    2    4    4    0    0 -0.47084116432E+03 -0.53102504254E+03 -0.90056980636E+03  0.11498854888E+04  0.86785157159E+02 0.  0.
         23    2    4    4    0    0  0.27416262479E+03  0.60651841312E+02 -0.64594017804E+03  0.71012639852E+03  0.90537271781E+02 0.  0.
          4    1    3    3  502    0  0.52386792019E+02  0.18063433048E+03 -0.27734611125E+03  0.33510297335E+03  0.00000000000E+00 0. -1.
         -4    1    3    3    0  502  0.14429174751E+03  0.28973887075E+03 -0.31014460338E+03  0.44828383490E+03  0.00000000000E+00 0.  1.
         11    1    5    5    0    0 -0.23294192635E+03 -0.32268453126E+03 -0.47503314089E+03  0.61971262107E+03  0.00000000000E+00 0. -1.
        -11    1    5    5    0    0 -0.23789923797E+03 -0.20834051128E+03 -0.42553666547E+03  0.53017286777E+03  0.00000000000E+00 0.  1.
          4    1    6    6  503    0  0.99125864539E+02 -0.86681395849E+01 -0.30284718012E+03  0.31877498047E+03  0.00000000000E+00 0.  1.
         -4    1    6    6    0  503  0.17503676025E+03  0.69319980897E+02 -0.34309299792E+03  0.39135141805E+03  0.00000000000E+00 0. -1.
<mgrwt>
<rscale>  0 0.15599993E+04</rscale>
<asrwt>0</asrwt>
<pdfrwt beam="1">  1        2 0.36749224E+00 0.15599993E+04</pdfrwt>
<pdfrwt beam="2">  1       -2 0.39184464E-01 0.15599993E+04</pdfrwt>
<totfact> 0.23940833E+01</totfact>
</mgrwt>
</event>
<event>
12    2  0.3518828E-008  0.2654066E+04  0.7818608E-02  0.8350065E-01
          2   -1    0    0  501    0  0.00000000000E+00  0.00000000000E+00  0.22957283426E+04  0.22957283426E+04  0.00000000000E+00 0. -1.
         -2   -1    0    0    0  501 -0.00000000000E+00 -0.00000000000E+00 -0.76708397770E+03  0.76708397770E+03  0.00000000000E+00 0.  1.
         23    2    1    2    0    0  0.20323096455E+03  0.31912669461E+03  0.19604785322E+04  0.19987936362E+04  0.92494607118E+02 0.  0.
        254    2    1    2    0    0 -0.20323096455E+03 -0.31912669461E+03 -0.43183416735E+03  0.10640186841E+04  0.89582941454E+03 0.  0.
         23    2    4    4    0    0 -0.91908196308E+01 -0.50033428250E+03  0.44931498595E+02  0.51029961604E+03  0.89263616092E+02 0.  0.
         23    2    4    4    0    0 -0.19404014492E+03  0.18120758789E+03 -0.47676566594E+03  0.55371906811E+03  0.93869795008E+02 0.  0.
          4    1    3    3  502    0  0.19472246756E+03  0.30740137145E+03  0.17297469608E+04  0.17676077028E+04  0.00000000000E+00 0. -1.
         -4    1    3    3    0  502  0.85084969930E+01  0.11725323162E+02  0.23073157145E+03  0.23118593337E+03  0.00000000000E+00 0.  1.
         11    1    5    5    0    0  0.24591251025E+02 -0.20593772604E+03  0.52248719202E+02  0.21388082030E+03  0.00000000000E+00 0.  1.
        -11    1    5    5    0    0 -0.33782070656E+02 -0.29439655646E+03 -0.73172206064E+01  0.29641879574E+03  0.00000000000E+00 0. -1.
          3    1    6    6  503    0 -0.50971628352E+02  0.10978733553E+03 -0.18688452301E+03  0.22265936064E+03  0.00000000000E+00 0. -1.
         -3    1    6    6    0  503 -0.14306851657E+03  0.71420252352E+02 -0.28988114293E+03  0.33105970746E+03  0.00000000000E+00 0.  1.
<mgrwt>
<rscale>  0 0.26540659E+04</rscale>
<asrwt>0</asrwt>
<pdfrwt beam="1">  1        2 0.35318897E+00 0.26540659E+04</pdfrwt>
<pdfrwt beam="2">  1       -2 0.11801292E+00 0.26540659E+04</pdfrwt>
<totfact> 0.22216247E+00</totfact>
</mgrwt>
</event>
<event>
12    2  0.3518828E-008  0.2212678E+04  0.7818608E-02  0.8513170E-01
         -1   -1    0    0    0  501 -0.00000000000E+00  0.00000000000E+00  0.68004451822E+03  0.68004451822E+03  0.00000000000E+00 0.  1.
          1   -1    0    0  501    0  0.00000000000E+00 -0.00000000000E+00 -0.17998607626E+04  0.17998607626E+04  0.00000000000E+00 0. -1.
         23    2    1    2    0    0 -0.68367106602E+03 -0.11039427234E+03 -0.11512184198E+04  0.13465711516E+04  0.91416597339E+02 0.  0.
        254    2    1    2    0    0  0.68367106602E+03  0.11039427234E+03  0.31402175426E+02  0.11333341293E+04  0.89658637622E+03 0.  0.
         23    2    4    4    0    0  0.38092959158E+03  0.16961298169E+03  0.44019079789E+03  0.61314288052E+03  0.91106180246E+02 0.  0.
         23    2    4    4    0    0  0.30274147444E+03 -0.59218709346E+02 -0.40878862247E+03  0.52019124874E+03  0.91277278219E+02 0.  0.
          1    1    3    3  502    0 -0.32317614908E+03 -0.46120562322E+02 -0.45593839537E+03  0.56075819207E+03  0.00000000000E+00 0. -1.
         -1    1    3    3    0  502 -0.36049491694E+03 -0.64273710019E+02 -0.69528002445E+03  0.78581295951E+03  0.00000000000E+00 0.  1.
         11    1    5    5    0    0  0.20909773778E+03  0.46960657500E+02  0.19693196113E+03  0.29104873237E+03  0.00000000000E+00 0.  1.
        -11    1    5    5    0    0  0.17183185380E+03  0.12265232419E+03  0.24325883676E+03  0.32209414815E+03  0.00000000000E+00 0. -1.
          3    1    6    6  503    0  0.21633493402E+03 -0.69508316824E+02 -0.24130766436E+03  0.33145376550E+03  0.00000000000E+00 0. -1.
         -3    1    6    6    0  503  0.86406540418E+02  0.10289607478E+02 -0.16748095811E+03  0.18873748323E+03  0.00000000000E+00 0.  1.
<mgrwt>
<rscale>  0 0.22126775E+04</rscale>
<asrwt>0</asrwt>
<pdfrwt beam="1">  1        1 0.27690166E+00 0.22126775E+04</pdfrwt>
<pdfrwt beam="2">  1       -1 0.10462223E+00 0.22126775E+04</pdfrwt>
<totfact> 0.31857089E+00</totfact>
</mgrwt>
</event>
<event>
12    2  0.3518828E-008  0.1051778E+04  0.7818608E-02  0.9253511E-01
         -1   -1    0    0    0  501 -0.00000000000E+00  0.00000000000E+00  0.16206713125E+03  0.16206713125E+03  0.00000000000E+00 0.  1.
          1   -1    0    0  501    0  0.00000000000E+00 -0.00000000000E+00 -0.17064478712E+04  0.17064478712E+04  0.00000000000E+00 0. -1.
         23    2    1    2    0    0  0.32238423220E+02 -0.10038875860E+03 -0.17573777122E+03  0.22446074542E+03  0.91551314667E+02 0.  0.
        254    2    1    2    0    0 -0.32238423220E+02  0.10038875860E+03 -0.13686429688E+04  0.16440542571E+04  0.90477268161E+03 0.  0.
         23    2    4    4    0    0  0.40438994591E+03  0.12004641087E+02 -0.90468450198E+03  0.99449781108E+03  0.83045218730E+02 0.  0.
         23    2    4    4    0    0 -0.43662836913E+03  0.88384117516E+02 -0.46395846679E+03  0.64955644597E+03  0.90609230461E+02 0.  0.
          2    1    3    3  502    0  0.91124396616E+01 -0.42370940332E+02 -0.15131347268E+03  0.15739790391E+03  0.00000000000E+00 0. -1.
         -2    1    3    3    0  502  0.23125983558E+02 -0.58017818271E+02 -0.24424298538E+02  0.67062841511E+02  0.00000000000E+00 0.  1.
         11    1    5    5    0    0  0.22565505940E+03  0.45412345931E+02 -0.53940952075E+03  0.58646834362E+03  0.00000000000E+00 0. -1.
        -11    1    5    5    0    0  0.17873488651E+03 -0.33407704844E+02 -0.36527498124E+03  0.40802946746E+03  0.00000000000E+00 0.  1.
          1    1    6    6  503    0 -0.36398297599E+03  0.42345514353E+02 -0.39930161409E+03  0.54195805042E+03  0.00000000000E+00 0. -1.
         -1    1    6    6    0  503 -0.72645393142E+02  0.46038603164E+02 -0.64656852692E+02  0.10759839556E+03  0.00000000000E+00 0.  1.
<mgrwt>
<rscale>  0 0.10517778E+04</rscale>
<asrwt>0</asrwt>
<pdfrwt beam="1">  1        1 0.26253044E+00 0.10517778E+04</pdfrwt>
<pdfrwt beam="2">  1       -1 0.24933405E-01 0.10517778E+04</pdfrwt>
<totfact> 0.66423453E+01</totfact>
</mgrwt>
</event>
<event>
12    2  0.3518828E-008  0.2367854E+04  0.7818608E-02  0.8451637E-01
          2   -1    0    0  501    0  0.00000000000E+00  0.00000000000E+00  0.39885976185E+04  0.39885976185E+04  0.00000000000E+00 0. -1.
         -2   -1    0    0    0  501 -0.00000000000E+00 -0.00000000000E+00 -0.35142259586E+03  0.35142259586E+03  0.00000000000E+00 0.  1.
         23    2    1    2    0    0  0.60771531040E+03 -0.54760980652E+03  0.23839309893E+04  0.25220241550E+04  0.91019107836E+02 0.  0.
        254    2    1    2    0    0 -0.60771531040E+03  0.54760980652E+03  0.12532440333E+04  0.18179960593E+04  0.10321311283E+04 0.  0.
         23    2    4    4    0    0 -0.57398145908E+03  0.79505833707E+03  0.71379745783E+03  0.12163381808E+04  0.91647610786E+02 0.  0.
         23    2    4    4    0    0 -0.33733851321E+02 -0.24744853055E+03  0.53944657547E+03  0.60165787852E+03  0.92848516390E+02 0.  0.
          3    1    3    3  502    0  0.46922313898E+03 -0.47086847373E+03  0.19306793280E+04  0.20419133531E+04  0.00000000000E+00 0. -1.
         -3    1    3    3    0  502  0.13849217142E+03 -0.76741332781E+02  0.45325166129E+03  0.48011080196E+03  0.00000000000E+00 0.  1.
         11    1    5    5    0    0 -0.25412106559E+03  0.41586412156E+03  0.38646930302E+03  0.62199598532E+03  0.00000000000E+00 0.  1.
        -11    1    5    5    0    0 -0.31986039349E+03  0.37919421551E+03  0.32732815481E+03  0.59434219548E+03  0.00000000000E+00 0. -1.
          2    1    6    6  503    0 -0.81364407770E+01 -0.99752323932E+02  0.32466245179E+03  0.33973877524E+03  0.00000000000E+00 0. -1.
         -2    1    6    6    0  503 -0.25597410544E+02 -0.14769620662E+03  0.21478412368E+03  0.26191910328E+03  0.00000000000E+00 0.  1.
<mgrwt>
<rscale>  0 0.23678542E+04</rscale>
<asrwt>0</asrwt>
<pdfrwt beam="1">  1        2 0.61363037E+00 0.23678542E+04</pdfrwt>
<pdfrwt beam="2">  1       -2 0.54065018E-01 0.23678542E+04</pdfrwt>
<totfact> 0.10200868E+00</totfact>
</mgrwt>
</event>
<event>
12    2  0.3518828E-008  0.1432195E+04  0.7818608E-02  0.8930838E-01
         -1   -1    0    0    0  501 -0.00000000000E+00  0.00000000000E+00  0.48835418021E+03  0.48835418021E+03  0.00000000000E+00 0.  1.
          1   -1    0    0  501    0  0.00000000000E+00 -0.00000000000E+00 -0.10500492036E+04  0.10500492036E+04  0.00000000000E+00 0. -1.
         23    2    1    2    0    0 -0.23452243543E+03  0.26664313116E+03  0.82524486431E+02  0.37550060417E+03  0.89950435029E+02 0.  0.
        254    2    1    2    0    0  0.23452243543E+03 -0.26664313116E+03 -0.64421950985E+03  0.11629027797E+04  0.90068016853E+03 0.  0.
         23    2    4    4    0    0 -0.18191817427E+03 -0.24182080370E+03 -0.66320095645E+03  0.73485775861E+03  0.92784123238E+02 0.  0.
         23    2    4    4    0    0  0.41644060970E+03 -0.24822327461E+02  0.18981446599E+02  0.42804502106E+03  0.93932504440E+02 0.  0.
          2    1    3    3  502    0 -0.37369050504E+02  0.65178371980E+01  0.20993604798E+02  0.43355040996E+02  0.00000000000E+00 0. -1.
         -2    1    3    3    0  502 -0.19715338492E+03  0.26012529396E+03  0.61530881634E+02  0.33214556318E+03  0.00000000000E+00 0.  1.
         11    1    5    5    0    0 -0.19145078143E+03 -0.22048215454E+03 -0.59555722270E+03  0.66329042484E+03  0.00000000000E+00 0.  1.
        -11    1    5    5    0    0  0.95326071549E+01 -0.21338649158E+02 -0.67643733750E+02  0.71567333769E+02  0.00000000000E+00 0. -1.
          2    1    6    6  503    0  0.23291855018E+03  0.30984842088E+02  0.23737271741E+02  0.23616640219E+03  0.00000000000E+00 0. -1.
         -2    1    6    6    0  503  0.18352205952E+03 -0.55807169548E+02 -0.47558251414E+01  0.19187861886E+03  0.00000000000E+00 0.  1.
<mgrwt>
<rscale>  0 0.14321954E+04</rscale>
<asrwt>0</asrwt>
<pdfrwt beam="1">  1        1 0.16154603E+00 0.14321954E+04</pdfrwt>
<pdfrwt beam="2">  1       -1 0.75131413E-01 0.14321954E+04</pdfrwt>
<totfact> 0.23979235E+01</totfact>
</mgrwt>
</event>
<event>
12    2  0.3518828E-008  0.1893947E+04  0.7818608E-02  0.8657875E-01
          2   -1    0    0  501    0  0.00000000000E+00  0.00000000000E+00  0.18225001236E+04  0.18225001236E+04  0.00000000000E+00 0. -1.
         -2   -1    0    0    0  501 -0.00000000000E+00 -0.00000000000E+00 -0.49204848856E+03  0.49204848856E+03  0.00000000000E+00 0.  1.
         23    2    1    2    0    0  0.15375814784E+03 -0.80500571135E+02 -0.34931955164E+03  0.40122550008E+03  0.93999163681E+02 0.  0.
        254    2    1    2    0    0 -0.15375814784E+03  0.80500571135E+02  0.16797711867E+04  0.19133231121E+04  0.89947328012E+03 0.  0.
         23    2    4    4    0    0  0.26626588689E+03 -0.20347435575E+03  0.37477884957E+03  0.51024467079E+03  0.87126930470E+02 0.  0.
         23    2    4    4    0    0 -0.42002403473E+03  0.28397492689E+03  0.13049923371E+04  0.14030784413E+04  0.92531960172E+02 0.  0.
          4    1    3    3  502    0  0.58843417443E+01  0.18242275183E+02 -0.26981384604E+02  0.33096845722E+02  0.00000000000E+00 0. -1.
         -4    1    3    3    0  502  0.14787380610E+03 -0.98742846318E+02 -0.32233816704E+03  0.36812865436E+03  0.00000000000E+00 0.  1.
         11    1    5    5    0    0  0.19097200915E+03 -0.19063447638E+03  0.29506381906E+03  0.39984305569E+03  0.00000000000E+00 0.  1.
        -11    1    5    5    0    0  0.75293877739E+02 -0.12839879369E+02  0.79715030512E+02  0.11040161510E+03  0.00000000000E+00 0. -1.
          2    1    6    6  503    0 -0.39811658845E+03  0.24482703752E+03  0.12285125853E+04  0.13144125184E+04  0.00000000000E+00 0. -1.
         -2    1    6    6    0  503 -0.21907446278E+02  0.39147889374E+02  0.76479751822E+02  0.88665922899E+02  0.00000000000E+00 0.  1.
<mgrwt>
<rscale>  0 0.18939466E+04</rscale>
<asrwt>0</asrwt>
<pdfrwt beam="1">  1        2 0.28038463E+00 0.18939466E+04</pdfrwt>
<pdfrwt beam="2">  1       -2 0.75699768E-01 0.18939466E+04</pdfrwt>
<totfact> 0.12287310E+01</totfact>
</mgrwt>
</event>
<event>
12    2  0.3518828E-008  0.2029031E+04  0.7818608E-02  0.8593167E-01
         -1   -1    0    0    0  501 -0.00000000000E+00  0.00000000000E+00  0.26910655712E+04  0.26910655712E+04  0.00000000000E+00 0.  1.
          1   -1    0    0  501    0  0.00000000000E+00 -0.00000000000E+00 -0.38246620513E+03  0.38246620513E+03  0.00000000000E+00 0. -1.
         23    2    1    2    0    0  0.39504101818E+03  0.15298061101E+03  0.19762965725E+04  0.20247425611E+04  0.11989087950E+03 0.  0.
        254    2    1    2    0    0 -0.39504101818E+03 -0.15298061101E+03  0.33230279354E+03  0.10487892152E+04  0.90004066456E+03 0.  0.
         23    2    4    4    0    0 -0.49661395943E+03  0.24805382251E+03  0.25716026591E+03  0.61905271421E+03  0.94544894352E+02 0.  0.
         23    2    4    4    0    0  0.10157294125E+03 -0.40103443352E+03  0.75142527631E+02  0.42973650096E+03  0.88777145368E+02 0.  0.
          1    1    3    3  502    0  0.25690769409E+02  0.32656679963E+02  0.93896866645E+02  0.10267957901E+03  0.00000000000E+00 0. -1.
         -1    1    3    3    0  502  0.36935024877E+03  0.12032393105E+03  0.18823997059E+04  0.19220629821E+04  0.00000000000E+00 0.  1.
         11    1    5    5    0    0 -0.16806373535E+02  0.32242799686E+02  0.95775315217E+01  0.37600285012E+02  0.00000000000E+00 0. -1.
        -11    1    5    5    0    0 -0.47980758589E+03  0.21581102282E+03  0.24758273439E+03  0.58145242920E+03  0.00000000000E+00 0.  1.
          2    1    6    6  503    0 -0.15493186117E+02 -0.28320288672E+02  0.25405417003E+01  0.32381042581E+02  0.00000000000E+00 0. -1.
         -2    1    6    6    0  503  0.11706612736E+03 -0.37271414484E+03  0.72601985931E+02  0.39735545838E+03  0.00000000000E+00 0.  1.
<mgrwt>
<rscale>  0 0.20290309E+04</rscale>
<asrwt>0</asrwt>
<pdfrwt beam="1">  1        1 0.58840956E-01 0.20290309E+04</pdfrwt>
<pdfrwt beam="2">  1       -1 0.41401008E+00 0.20290309E+04</pdfrwt>
<totfact> 0.33841352E-01</totfact>
</mgrwt>
</event>
<event>
12    2  0.3518828E-008  0.2026916E+04  0.7818608E-02  0.8594139E-01
         -3   -1    0    0    0  501 -0.00000000000E+00  0.00000000000E+00  0.18818307129E+04  0.18818307129E+04  0.00000000000E+00 0.  1.
          3   -1    0    0  501    0  0.00000000000E+00 -0.00000000000E+00 -0.54579696815E+03  0.54579696815E+03  0.00000000000E+00 0. -1.
         23    2    1    2    0    0  0.68155416489E+01  0.37839248475E+03 -0.32050862570E+03  0.50414775301E+03  0.90619278240E+02 0.  0.
        254    2    1    2    0    0 -0.68155416489E+01 -0.37839248475E+03  0.16565423704E+04  0.19234799280E+04  0.90134071492E+03 0.  0.
         23    2    4    4    0    0  0.11701793713E+02 -0.66368819066E+03  0.12458675089E+04  0.14147332341E+04  0.93087741437E+02 0.  0.
         23    2    4    4    0    0 -0.18517335362E+02  0.28529570590E+03  0.41067486153E+03  0.50874669390E+03  0.91830415163E+02 0.  0.
          4    1    3    3  502    0 -0.40914758717E+02  0.14200763935E+03 -0.11374617855E+03  0.18648962505E+03  0.00000000000E+00 0. -1.
         -4    1    3    3    0  502  0.47730300366E+02  0.23638484540E+03 -0.20676244715E+03  0.31765812796E+03  0.00000000000E+00 0.  1.
         11    1    5    5    0    0 -0.16066113515E+02 -0.19262824526E+02  0.53177308778E+02  0.58796280333E+02  0.00000000000E+00 0. -1.
        -11    1    5    5    0    0  0.27767907228E+02 -0.64442536613E+03  0.11926902001E+04  0.13559369538E+04  0.00000000000E+00 0.  1.
          1    1    6    6  503    0  0.17238208515E+02  0.11373812531E+03  0.22931889976E+03  0.25655540292E+03  0.00000000000E+00 0. -1.
         -1    1    6    6    0  503 -0.35755543878E+02  0.17155758059E+03  0.18135596177E+03  0.25219129098E+03  0.00000000000E+00 0.  1.
<mgrwt>
<rscale>  0 0.20269164E+04</rscale>
<asrwt>0</asrwt>
<pdfrwt beam="1">  1        3 0.83968765E-01 0.20269164E+04</pdfrwt>
<pdfrwt beam="2">  1       -3 0.28951241E+00 0.20269164E+04</pdfrwt>
<totfact> 0.13772559E-01</totfact>
</mgrwt>
</event>
<event>
12    2  0.3518828E-008  0.1113370E+04  0.7818608E-02  0.9192257E-01
          2   -1    0    0  501    0  0.00000000000E+00  0.00000000000E+00  0.36690501054E+03  0.36690501054E+03  0.00000000000E+00 0. -1.
         -2   -1    0    0    0  501 -0.00000000000E+00 -0.00000000000E+00 -0.84462838092E+03  0.84462838092E+03  0.00000000000E+00 0.  1.
         23    2    1    2    0    0 -0.10016299575E+03  0.14740872693E+03 -0.28004878075E+02  0.20218828886E+03  0.91290045801E+02 0.  0.
        254    2    1    2    0    0  0.10016299575E+03 -0.14740872693E+03 -0.44971849231E+03  0.10093451026E+04  0.88587180524E+03 0.  0.
         23    2    4    4    0    0  0.40937881697E+03 -0.35095115506E+02  0.28477828150E+02  0.42170728161E+03  0.90572411630E+02 0.  0.
         23    2    4    4    0    0 -0.30921582122E+03 -0.11231361143E+03 -0.47819632046E+03  0.58763782099E+03  0.91748113603E+02 0.  0.
          1    1    3    3  502    0 -0.10794372616E+03  0.15363321599E+03 -0.33622327009E+02  0.19074976788E+03  0.00000000000E+00 0. -1.
         -1    1    3    3    0  502  0.77807304084E+01 -0.62244890562E+01  0.56174489347E+01  0.11438520981E+02  0.00000000000E+00 0.  1.
         11    1    5    5    0    0  0.19172871120E+03 -0.32429954103E+02 -0.28943305384E+02  0.19659429175E+03  0.00000000000E+00 0.  1.
        -11    1    5    5    0    0  0.21765010577E+03 -0.26651614033E+01  0.57421133534E+02  0.22511298986E+03  0.00000000000E+00 0. -1.
          4    1    6    6  503    0 -0.11782112108E+03 -0.90524661951E+01 -0.22277679640E+03  0.25217705036E+03  0.00000000000E+00 0. -1.
         -4    1    6    6    0  503 -0.19139470013E+03 -0.10326114523E+03 -0.25541952406E+03  0.33546077062E+03  0.00000000000E+00 0.  1.
<mgrwt>
<rscale>  0 0.11133704E+04</rscale>
<asrwt>0</asrwt>
<pdfrwt beam="1">  1        2 0.56446925E-01 0.11133704E+04</pdfrwt>
<pdfrwt beam="2">  1       -2 0.12994283E+00 0.11133704E+04</pdfrwt>
<totfact> 0.37778629E+01</totfact>
</mgrwt>
</event>
<event>
12    2  0.3518828E-008  0.1127849E+04  0.7818608E-02  0.9178465E-01
          1   -1    0    0  501    0  0.00000000000E+00  0.00000000000E+00  0.20879260417E+03  0.20879260417E+03  0.00000000000E+00 0. -1.
         -1   -1    0    0    0  501 -0.00000000000E+00 -0.00000000000E+00 -0.15230955489E+04  0.15230955489E+04  0.00000000000E+00 0.  1.
         23    2    1    2    0    0  0.13344125845E+03  0.84504363215E+02 -0.93915252089E+02  0.20537311610E+03  0.91708698516E+02 0.  0.
        254    2    1    2    0    0 -0.13344125845E+03 -0.84504363215E+02 -0.12203876926E+04  0.15265150369E+04  0.90330198765E+03 0.  0.
         23    2    4    4    0    0  0.19580364449E+03  0.23115173473E+03 -0.91941521695E+03  0.97239132537E+03  0.91925822526E+02 0.  0.
         23    2    4    4    0    0 -0.32924490294E+03 -0.31565609795E+03 -0.30097247567E+03  0.55412371157E+03  0.91802387401E+02 0.  0.
          2    1    3    3  502    0  0.10220428612E+03  0.74378810772E+02 -0.24743454770E+02  0.12880280334E+03  0.00000000000E+00 0. -1.
         -2    1    3    3    0  502  0.31236972328E+02  0.10125552443E+02 -0.69171797319E+02  0.76570312765E+02  0.00000000000E+00 0.  1.
         11    1    5    5    0    0  0.12700644645E+03  0.16277349147E+03 -0.74203767911E+03  0.77022448947E+03  0.00000000000E+00 0.  1.
        -11    1    5    5    0    0  0.68797198044E+02  0.68378243258E+02 -0.17737753784E+03  0.20216683590E+03  0.00000000000E+00 0. -1.
          3    1    6    6  503    0 -0.18343395198E+03 -0.12265650149E+03 -0.17349140515E+03  0.28069894862E+03  0.00000000000E+00 0. -1.
         -3    1    6    6    0  503 -0.14581095096E+03 -0.19299959646E+03 -0.12748107051E+03  0.27342476295E+03  0.00000000000E+00 0.  1.
<mgrwt>
<rscale>  0 0.11278494E+04</rscale>
<asrwt>0</asrwt>
<pdfrwt beam="1">  1        1 0.32121939E-01 0.11278494E+04</pdfrwt>
<pdfrwt beam="2">  1       -1 0.23432240E+00 0.11278494E+04</pdfrwt>
<totfact> 0.12391911E+01</totfact>
</mgrwt>
</event>
<event>
12    2  0.3518828E-008  0.1718094E+04  0.7818608E-02  0.8751112E-01
          1   -1    0    0  501    0  0.00000000000E+00  0.00000000000E+00  0.80515808158E+03  0.80515808158E+03  0.00000000000E+00 0. -1.
         -1   -1    0    0    0  501 -0.00000000000E+00 -0.00000000000E+00 -0.91654239407E+03  0.91654239407E+03  0.00000000000E+00 0.  1.
         23    2    1    2    0    0  0.40753507765E+03  0.40003750773E+03 -0.24077419240E+03  0.62639280434E+03  0.90999376352E+02 0.  0.
        254    2    1    2    0    0 -0.40753507765E+03 -0.40003750773E+03  0.12938987991E+03  0.10953076713E+04  0.92565776975E+03 0.  0.
         23    2    4    4    0    0 -0.36580488612E+03  0.15826079414E+03  0.29318244595E+03  0.50490652675E+03  0.10057315981E+03 0.  0.
         23    2    4    4    0    0 -0.41730191532E+02 -0.55829830188E+03 -0.16379256604E+03  0.59040114456E+03  0.91143315939E+02 0.  0.
          4    1    3    3  502    0  0.30629783428E+03  0.28667825983E+03 -0.13310859621E+03  0.44013712219E+03  0.00000000000E+00 0. -1.
         -4    1    3    3    0  502  0.10123724336E+03  0.11335924790E+03 -0.10766559620E+03  0.18625568215E+03  0.00000000000E+00 0.  1.
         11    1    5    5    0    0 -0.19363923690E+03  0.38852324932E+02  0.10703228920E+03  0.22463652453E+03  0.00000000000E+00 0. -1.
        -11    1    5    5    0    0 -0.17216564922E+03  0.11940846921E+03  0.18615015675E+03  0.28027000222E+03  0.00000000000E+00 0.  1.
          2    1    6    6  503    0 -0.58020405532E+02 -0.19733660107E+03 -0.67114805917E+02  0.21636196236E+03  0.00000000000E+00 0.  1.
         -2    1    6    6    0  503  0.16290214000E+02 -0.36096170080E+03 -0.96677760122E+02  0.37403918220E+03  0.00000000000E+00 0. -1.
<mgrwt>
<rscale>  0 0.17180937E+04</rscale>
<asrwt>0</asrwt>
<pdfrwt beam="1">  1        1 0.12387048E+00 0.17180937E+04</pdfrwt>
<pdfrwt beam="2">  1       -1 0.14100652E+00 0.17180937E+04</pdfrwt>
<totfact> 0.85537834E+00</totfact>
</mgrwt>
</event>
<event>
12    2  0.3518828E-008  0.1467790E+04  0.7818608E-02  0.8906159E-01
          1   -1    0    0  501    0  0.00000000000E+00  0.00000000000E+00  0.14142508306E+04  0.14142508306E+04  0.00000000000E+00 0. -1.
         -1   -1    0    0    0  501 -0.00000000000E+00 -0.00000000000E+00 -0.38083898946E+03  0.38083898946E+03  0.00000000000E+00 0.  1.
         23    2    1    2    0    0  0.21050456895E+03  0.31814563010E+03  0.17383236125E+02  0.39252958708E+03  0.90821166793E+02 0.  0.
        254    2    1    2    0    0 -0.21050456895E+03 -0.31814563010E+03  0.10160286050E+04  0.14025602330E+04  0.88844373228E+03 0.  0.
         23    2    4    4    0    0 -0.50462484781E+02  0.24249269485E+03  0.66551562646E+03  0.71627132940E+03  0.93725123790E+02 0.  0.
         23    2    4    4    0    0 -0.16004208416E+03 -0.56063832494E+03  0.35051297856E+03  0.68628890358E+03  0.90577651454E+02 0.  0.
          4    1    3    3  502    0  0.17197368131E+03  0.29302560540E+03 -0.82692671188E+01  0.33986369807E+03  0.00000000000E+00 0.  1.
         -4    1    3    3    0  502  0.38530887639E+02  0.25120024692E+02  0.25652503244E+02  0.52665889013E+02  0.00000000000E+00 0. -1.
         11    1    5    5    0    0 -0.70928029538E+02  0.11416481067E+03  0.35976072366E+03  0.38404709042E+03  0.00000000000E+00 0. -1.
        -11    1    5    5    0    0  0.20465544757E+02  0.12832788418E+03  0.30575490280E+03  0.33222423898E+03  0.00000000000E+00 0.  1.
          2    1    6    6  503    0 -0.14776715730E+03 -0.55373695383E+03  0.32976857662E+03  0.66121634957E+03  0.00000000000E+00 0. -1.
         -2    1    6    6    0  503 -0.12274926864E+02 -0.69013711092E+01  0.20744401937E+02  0.25072554007E+02  0.00000000000E+00 0.  1.
<mgrwt>
<rscale>  0 0.14677900E+04</rscale>
<asrwt>0</asrwt>
<pdfrwt beam="1">  1        1 0.21757705E+00 0.14677900E+04</pdfrwt>
<pdfrwt beam="2">  1       -1 0.58590615E-01 0.14677900E+04</pdfrwt>
<totfact> 0.21493976E+01</totfact>
</mgrwt>
</event>
<event>
12    2  0.3518828E-008  0.1704044E+04  0.7818608E-02  0.8759061E-01
         -1   -1    0    0    0  501 -0.00000000000E+00  0.00000000000E+00  0.22678215005E+04  0.22678215005E+04  0.00000000000E+00 0.  1.
          1   -1    0    0  501    0  0.00000000000E+00 -0.00000000000E+00 -0.32010511616E+03  0.32010511616E+03  0.00000000000E+00 0. -1.
         23    2    1    2    0    0 -0.24296038314E+03  0.52877335250E+03  0.10077977160E+04  0.11672638361E+04  0.90651093077E+02 0.  0.
        254    2    1    2    0    0  0.24296038314E+03 -0.52877335250E+03  0.93991866842E+03  0.14206627806E+04  0.89230299049E+03 0.  0.
         23    2    4    4    0    0 -0.23774363319E+03 -0.14043720105E+03  0.68849175743E+03  0.74747455304E+03  0.91938375151E+02 0.  0.
         23    2    4    4    0    0  0.48070401633E+03 -0.38833615145E+03  0.25142691099E+03  0.67318822756E+03  0.89919854943E+02 0.  0.
          1    1    3    3  502    0 -0.10534091832E+03  0.30810145301E+03  0.62059992989E+03  0.70083342343E+03  0.00000000000E+00 0. -1.
         -1    1    3    3    0  502 -0.13761946482E+03  0.22067189949E+03  0.38719778607E+03  0.46643041266E+03  0.00000000000E+00 0.  1.
         11    1    5    5    0    0 -0.55179608919E+02  0.30058098671E+01  0.91089288060E+02  0.10654145922E+03  0.00000000000E+00 0. -1.
        -11    1    5    5    0    0 -0.18256402427E+03 -0.14344301091E+03  0.59740246937E+03  0.64093309382E+03  0.00000000000E+00 0.  1.
          1    1    6    6  503    0  0.31042457339E+03 -0.24464129507E+03  0.20636574951E+03  0.44586948941E+03  0.00000000000E+00 0. -1.
         -1    1    6    6    0  503  0.17027944294E+03 -0.14369485638E+03  0.45061161481E+02  0.22731873815E+03  0.00000000000E+00 0.  1.
<mgrwt>
<rscale>  0 0.17040437E+04</rscale>
<asrwt>0</asrwt>
<pdfrwt beam="1">  1        1 0.49246942E-01 0.17040437E+04</pdfrwt>
<pdfrwt beam="2">  1       -1 0.34889560E+00 0.17040437E+04</pdfrwt>
<totfact> 0.12144320E+00</totfact>
</mgrwt>
</event>
<event>
12    2  0.3518828E-008  0.1851437E+04  0.7818608E-02  0.8679414E-01
          1   -1    0    0  501    0  0.00000000000E+00  0.00000000000E+00  0.19119263092E+04  0.19119263092E+04  0.00000000000E+00 0. -1.
         -1   -1    0    0    0  501 -0.00000000000E+00 -0.00000000000E+00 -0.44821515870E+03  0.44821515870E+03  0.00000000000E+00 0.  1.
         23    2    1    2    0    0  0.47797614685E+03  0.51953366005E+03  0.62154489346E+03  0.94526458881E+03  0.93971630796E+02 0.  0.
        254    2    1    2    0    0 -0.47797614685E+03 -0.51953366005E+03  0.84216625705E+03  0.14148768791E+04  0.89121050128E+03 0.  0.
         23    2    4    4    0    0 -0.58641451068E+03 -0.21831681562E+03  0.15446710391E+03  0.65093990316E+03  0.91205597494E+02 0.  0.
         23    2    4    4    0    0  0.10843836383E+03 -0.30121684443E+03  0.68769915315E+03  0.76393697594E+03  0.90438442332E+02 0.  0.
          2    1    3    3  502    0  0.43290141715E+03  0.49175124068E+03  0.59903056771E+03  0.88772774020E+03  0.00000000000E+00 0. -1.
         -2    1    3    3    0  502  0.45074729700E+02  0.27782419374E+02  0.22514325749E+02  0.57536848608E+02  0.00000000000E+00 0.  1.
         11    1    5    5    0    0 -0.19897149659E+02  0.69550021219E+01  0.14001342284E+02  0.25304272462E+02  0.00000000000E+00 0.  1.
        -11    1    5    5    0    0 -0.56651736102E+03 -0.22527181774E+03  0.14046576162E+03  0.62563563069E+03  0.00000000000E+00 0. -1.
          4    1    6    6  503    0  0.65173100460E+01 -0.14904408149E+03  0.29179595834E+03  0.32772167286E+03  0.00000000000E+00 0.  1.
         -4    1    6    6    0  503  0.10192105378E+03 -0.15217276294E+03  0.39590319481E+03  0.43621530309E+03  0.00000000000E+00 0. -1.
<mgrwt>
<rscale>  0 0.18514366E+04</rscale>
<asrwt>0</asrwt>
<pdfrwt beam="1">  1        1 0.29414250E+00 0.18514366E+04</pdfrwt>
<pdfrwt beam="2">  1       -1 0.68956179E-01 0.18514366E+04</pdfrwt>
<totfact> 0.68363027E+00</totfact>
</mgrwt>
</event>
<event>
12    2  0.3518828E-008  0.1440573E+04  0.7818608E-02  0.8924962E-01
          1   -1    0    0  501    0  0.00000000000E+00  0.00000000000E+00  0.36788646137E+04  0.36788646137E+04  0.00000000000E+00 0. -1.
         -1   -1    0    0    0  501 -0.00000000000E+00 -0.00000000000E+00 -0.14102515118E+03  0.14102515118E+03  0.00000000000E+00 0.  1.
         23    2    1    2    0    0 -0.10443797365E+03  0.76198382163E+02 -0.10492971617E+02  0.15715855449E+03  0.88742464530E+02 0.  0.
        254    2    1    2    0    0  0.10443797365E+03 -0.76198382163E+02  0.35483324341E+04  0.36627312104E+04  0.89901244299E+03 0.  0.
         23    2    4    4    0    0  0.38332638462E+03 -0.33366820079E+03  0.21192598784E+04  0.21812284017E+04  0.90671510267E+02 0.  0.
         23    2    4    4    0    0 -0.27888841096E+03  0.25746981863E+03  0.14290725557E+04  0.14815028087E+04  0.92372882218E+02 0.  0.
          3    1    3    3  502    0  0.12378654173E+02 -0.55401497790E+01  0.31825918522E+01  0.13930298978E+02  0.00000000000E+00 0. -1.
         -3    1    3    3    0  502 -0.11681662783E+03  0.81738531942E+02 -0.13675563470E+02  0.14322825551E+03  0.00000000000E+00 0.  1.
         11    1    5    5    0    0  0.33186414543E+03 -0.26283584697E+03  0.16229238828E+04  0.16772293889E+04  0.00000000000E+00 0. -1.
        -11    1    5    5    0    0  0.51462239188E+02 -0.70832353819E+02  0.49633599557E+03  0.50399901281E+03  0.00000000000E+00 0.  1.
          1    1    6    6  503    0 -0.24770733761E+03  0.19402932137E+03  0.12497099625E+04  0.12887130375E+04  0.00000000000E+00 0. -1.
         -1    1    6    6    0  503 -0.31181073354E+02  0.63440497251E+02  0.17936259319E+03  0.19278977116E+03  0.00000000000E+00 0.  1.
<mgrwt>
<rscale>  0 0.14405727E+04</rscale>
<asrwt>0</asrwt>
<pdfrwt beam="1">  1        1 0.56597910E+00 0.14405727E+04</pdfrwt>
<pdfrwt beam="2">  1       -1 0.21696180E-01 0.14405727E+04</pdfrwt>
<totfact> 0.31626649E+00</totfact>
</mgrwt>
</event>
<event>
12    2  0.3518828E-008  0.1604433E+04  0.7818608E-02  0.8817829E-01
         -1   -1    0    0    0  501 -0.00000000000E+00  0.00000000000E+00  0.10250295040E+04  0.10250295040E+04  0.00000000000E+00 0.  1.
          1   -1    0    0  501    0  0.00000000000E+00 -0.00000000000E+00 -0.62783724144E+03  0.62783724144E+03  0.00000000000E+00 0. -1.
         23    2    1    2    0    0  0.53535696073E+03  0.77277940340E+01  0.14648222937E+03  0.56237944455E+03  0.90259636263E+02 0.  0.
        254    2    1    2    0    0 -0.53535696073E+03 -0.77277940340E+01  0.25071003314E+03  0.10904873008E+04  0.91631885191E+03 0.  0.
         23    2    4    4    0    0 -0.24471630101E+03 -0.39178109900E+03  0.35386258766E+03  0.58869267846E+03  0.89229150042E+02 0.  0.
         23    2    4    4    0    0 -0.29064065972E+03  0.38405330497E+03 -0.10315255452E+03  0.50179462237E+03  0.95856452065E+02 0.  0.
          3    1    3    3  502    0  0.42198995899E+03  0.12237317962E+00  0.76307030997E+02  0.42883365475E+03  0.00000000000E+00 0. -1.
         -3    1    3    3    0  502  0.11336700174E+03  0.76054208543E+01  0.70175198372E+02  0.13354578981E+03  0.00000000000E+00 0.  1.
         11    1    5    5    0    0 -0.14732225012E+03 -0.25799253683E+03  0.27713838177E+03  0.40628767775E+03  0.00000000000E+00 0.  1.
        -11    1    5    5    0    0 -0.97394050883E+02 -0.13378856218E+03  0.76724205888E+02  0.18240500071E+03  0.00000000000E+00 0. -1.
          1    1    6    6  503    0 -0.42647745031E+01  0.51625015287E+02 -0.17988102907E+02  0.54835229106E+02  0.00000000000E+00 0. -1.
         -1    1    6    6    0  503 -0.28637588521E+03  0.33242828968E+03 -0.85164451608E+02  0.44695939327E+03  0.00000000000E+00 0.  1.
<mgrwt>
<rscale>  0 0.16044335E+04</rscale>
<asrwt>0</asrwt>
<pdfrwt beam="1">  1        1 0.96590345E-01 0.16044335E+04</pdfrwt>
<pdfrwt beam="2">  1       -1 0.15769685E+00 0.16044335E+04</pdfrwt>
<totfact> 0.93561859E+00</totfact>
</mgrwt>
</event>
<event>
12    2  0.3518828E-008  0.1774213E+04  0.7818608E-02  0.8720134E-01
          2   -1    0    0  501    0  0.00000000000E+00  0.00000000000E+00  0.22679469394E+04  0.22679469394E+04  0.00000000000E+00 0. -1.
         -2   -1    0    0    0  501 -0.00000000000E+00 -0.00000000000E+00 -0.34699149437E+03  0.34699149437E+03  0.00000000000E+00 0.  1.
         23    2    1    2    0    0  0.22847478708E+03 -0.21056911397E+03 -0.11912747695E+03  0.34472736059E+03  0.90030646349E+02 0.  0.
        254    2    1    2    0    0 -0.22847478708E+03  0.21056911397E+03  0.20400829220E+04  0.22702110732E+04  0.94624516282E+03 0.  0.
         23    2    4    4    0    0 -0.57576487692E+03  0.25212504382E+03  0.12968253355E+04  0.14438906110E+04  0.89397508906E+02 0.  0.
         23    2    4    4    0    0  0.34729008984E+03 -0.41555929849E+02  0.74325758649E+03  0.82632046216E+03  0.89645772392E+02 0.  0.
          4    1    3    3  502    0  0.90388115455E+02 -0.13141777887E+03 -0.89285328724E+02  0.18279090224E+03  0.00000000000E+00 0.  1.
         -4    1    3    3    0  502  0.13808667163E+03 -0.79151335103E+02 -0.29842148226E+02  0.16193645834E+03  0.00000000000E+00 0. -1.
         11    1    5    5    0    0 -0.55800915868E+03  0.25596162755E+03  0.12775711845E+04  0.14174197358E+04  0.00000000000E+00 0. -1.
        -11    1    5    5    0    0 -0.17755718245E+02 -0.38365837252E+01  0.19254151002E+02  0.26470875239E+02  0.00000000000E+00 0.  1.
          1    1    6    6  503    0  0.29559403841E+03 -0.43255208090E+02  0.54589582940E+03  0.62229342366E+03  0.00000000000E+00 0. -1.
         -1    1    6    6    0  503  0.51696051430E+02  0.16992782416E+01  0.19736175709E+03  0.20402703850E+03  0.00000000000E+00 0.  1.
<mgrwt>
<rscale>  0 0.17742134E+04</rscale>
<asrwt>0</asrwt>
<pdfrwt beam="1">  1        2 0.34891491E+00 0.17742134E+04</pdfrwt>
<pdfrwt beam="2">  1       -2 0.53383308E-01 0.17742134E+04</pdfrwt>
<totfact> 0.14799340E+01</totfact>
</mgrwt>
</event>
<event>
12    2  0.3518828E-008  0.1315054E+04  0.7818608E-02  0.9017712E-01
          2   -1    0    0  501    0  0.00000000000E+00  0.00000000000E+00  0.51794763983E+03  0.51794763983E+03  0.00000000000E+00 0. -1.
         -2   -1    0    0    0  501 -0.00000000000E+00 -0.00000000000E+00 -0.83472112209E+03  0.83472112209E+03  0.00000000000E+00 0.  1.
         23    2    1    2    0    0 -0.22115645166E+03  0.84140726955E+02  0.17882949409E+03  0.31005473176E+03  0.90355468500E+02 0.  0.
        254    2    1    2    0    0  0.22115645166E+03 -0.84140726955E+02 -0.49560297635E+03  0.10426140302E+04  0.88624594086E+03 0.  0.
         23    2    4    4    0    0 -0.87218368185E+02  0.27623652495E+03 -0.47012216946E+03  0.55951311996E+03  0.90146634600E+02 0.  0.
         23    2    4    4    0    0  0.30837481985E+03 -0.36037725190E+03 -0.25480806891E+02  0.48310091020E+03  0.88150012543E+02 0.  0.
          3    1    3    3  502    0 -0.15305623284E+03  0.55082687036E+02  0.17033265864E+03  0.23552818816E+03  0.00000000000E+00 0. -1.
         -3    1    3    3    0  502 -0.68100218825E+02  0.29058039919E+02  0.84968354504E+01  0.74526543598E+02  0.00000000000E+00 0.  1.
         11    1    5    5    0    0 -0.62214335480E+02  0.83967421225E+02 -0.21522636414E+03  0.23925622079E+03  0.00000000000E+00 0. -1.
        -11    1    5    5    0    0 -0.25004032705E+02  0.19226910372E+03 -0.25489580532E+03  0.32025689917E+03  0.00000000000E+00 0.  1.
          2    1    6    6  503    0  0.23473452385E+03 -0.20995051634E+03 -0.14758036870E+02  0.31527339827E+03  0.00000000000E+00 0. -1.
         -2    1    6    6    0  503  0.73640295993E+02 -0.15042673556E+03 -0.10722770021E+02  0.16782751193E+03  0.00000000000E+00 0.  1.
<mgrwt>
<rscale>  0 0.13150541E+04</rscale>
<asrwt>0</asrwt>
<pdfrwt beam="1">  1        2 0.79684253E-01 0.13150541E+04</pdfrwt>
<pdfrwt beam="2">  1       -2 0.12841863E+00 0.13150541E+04</pdfrwt>
<totfact> 0.25907754E+01</totfact>
</mgrwt>
</event>
<event>
12    2  0.3518828E-008  0.1957374E+04  0.7818608E-02  0.8626813E-01
          1   -1    0    0  501    0  0.00000000000E+00  0.00000000000E+00  0.23037844621E+04  0.23037844621E+04  0.00000000000E+00 0. -1.
         -1   -1    0    0    0  501 -0.00000000000E+00 -0.00000000000E+00 -0.41576277388E+03  0.41576277388E+03  0.00000000000E+00 0.  1.
         23    2    1    2    0    0 -0.19987530709E+03 -0.40524571089E+03  0.16101349550E+04  0.16754978531E+04  0.10287982212E+03 0.  0.
        254    2    1    2    0    0  0.19987530709E+03  0.40524571089E+03  0.27788673321E+03  0.10440493829E+04  0.89924626929E+03 0.  0.
         23    2    4    4    0    0 -0.20452124409E+02 -0.44232215547E+02  0.48399562389E+03  0.49495653702E+03  0.91408048372E+02 0.  0.
         23    2    4    4    0    0  0.22032743150E+03  0.44947792644E+03 -0.20610889068E+03  0.54909284587E+03  0.91910255924E+02 0.  0.
          1    1    3    3  502    0 -0.11482068963E+03 -0.28067451746E+03  0.12224632942E+04  0.12595151771E+04  0.00000000000E+00 0. -1.
         -1    1    3    3    0  502 -0.85054617458E+02 -0.12457119343E+03  0.38767166076E+03  0.41598267601E+03  0.00000000000E+00 0.  1.
         11    1    5    5    0    0 -0.37051021629E+02 -0.59611715453E+02  0.24393807560E+03  0.25383482730E+03  0.00000000000E+00 0. -1.
        -11    1    5    5    0    0  0.16598897220E+02  0.15379499906E+02  0.24005754829E+03  0.24112170972E+03  0.00000000000E+00 0.  1.
          1    1    6    6  503    0  0.67307116005E+02  0.15689904723E+03 -0.25124542215E+02  0.17256535431E+03  0.00000000000E+00 0. -1.
         -1    1    6    6    0  503  0.15302031549E+03  0.29257887921E+03 -0.18098434847E+03  0.37652749156E+03  0.00000000000E+00 0.  1.
<mgrwt>
<rscale>  0 0.19573736E+04</rscale>
<asrwt>0</asrwt>
<pdfrwt beam="1">  1        1 0.35442837E+00 0.19573736E+04</pdfrwt>
<pdfrwt beam="2">  1       -1 0.63963505E-01 0.19573736E+04</pdfrwt>
<totfact> 0.42706956E+00</totfact>
</mgrwt>
</event>
<event>
12    2  0.3518828E-008  0.2204833E+04  0.7818608E-02  0.8516419E-01
          4   -1    0    0  501    0  0.00000000000E+00  0.00000000000E+00  0.19501019397E+04  0.19501019397E+04  0.00000000000E+00 0. -1.
         -4   -1    0    0    0  501 -0.00000000000E+00 -0.00000000000E+00 -0.62320928699E+03  0.62320928699E+03  0.00000000000E+00 0.  1.
         23    2    1    2    0    0  0.50135588903E+03 -0.20435211892E+03 -0.31137982721E+03  0.63095279467E+03  0.89590827312E+02 0.  0.
        254    2    1    2    0    0 -0.50135588903E+03  0.20435211892E+03  0.16382724799E+04  0.19423584320E+04  0.89202132488E+03 0.  0.
         23    2    4    4    0    0 -0.39247656645E+03 -0.15225103581E+03  0.14547500298E+04  0.15171862118E+04  0.91313299954E+02 0.  0.
         23    2    4    4    0    0 -0.10887932258E+03  0.35660315473E+03  0.18352245004E+03  0.42517222022E+03  0.89835462561E+02 0.  0.
          1    1    3    3  502    0  0.17320786203E+03 -0.39563782730E+02 -0.67082191042E+02  0.18991123381E+03  0.00000000000E+00 0. -1.
         -1    1    3    3    0  502  0.32814802700E+03 -0.16478833618E+03 -0.24429763617E+03  0.44104156085E+03  0.00000000000E+00 0.  1.
         11    1    5    5    0    0  0.44283245282E+01 -0.64194883508E+01  0.31431628883E+02  0.32384675127E+02  0.00000000000E+00 0. -1.
        -11    1    5    5    0    0 -0.39690489097E+03 -0.14583154746E+03  0.14233184010E+04  0.14848015366E+04  0.00000000000E+00 0.  1.
          2    1    6    6  503    0 -0.20887709157E+02  0.13670207419E+03  0.11141541315E+03  0.17758701464E+03  0.00000000000E+00 0. -1.
         -2    1    6    6    0  503 -0.87991613426E+02  0.21990108054E+03  0.72107036893E+02  0.24758520559E+03  0.00000000000E+00 0.  1.
<mgrwt>
<rscale>  0 0.22048325E+04</rscale>
<asrwt>0</asrwt>
<pdfrwt beam="1">  1        4 0.30001568E+00 0.22048325E+04</pdfrwt>
<pdfrwt beam="2">  1       -4 0.95878353E-01 0.22048325E+04</pdfrwt>
<totfact> 0.51499397E-02</totfact>
</mgrwt>
</event>
<event>
12    2  0.3518828E-008  0.1829981E+04  0.7818608E-02  0.8690516E-01
         -2   -1    0    0    0  501 -0.00000000000E+00  0.00000000000E+00  0.54196055516E+03  0.54196055516E+03  0.00000000000E+00 0. -1.
          2   -1    0    0  501    0  0.00000000000E+00 -0.00000000000E+00 -0.15447764610E+04  0.15447764610E+04  0.00000000000E+00 0.  1.
         23    2    1    2    0    0 -0.45371395244E+02  0.47367742651E+03 -0.97527352453E+03  0.10891576565E+04  0.93150873445E+02 0.  0.
        254    2    1    2    0    0  0.45371395244E+02 -0.47367742651E+03 -0.27542381274E+02  0.99757935959E+03  0.87634304243E+03 0.  0.
         23    2    4    4    0    0 -0.20076985044E+03 -0.34061563639E+03  0.33950994415E+03  0.52901666210E+03  0.90906996412E+02 0.  0.
         23    2    4    4    0    0  0.24614124568E+03 -0.13306179012E+03 -0.36705232543E+03  0.46856269749E+03  0.80824742909E+02 0.  0.
          3    1    3    3  502    0 -0.87737523973E+00  0.59203348765E+01  0.64250934623E+00  0.60193829103E+01  0.00000000000E+00 0. -1.
         -3    1    3    3    0  502 -0.44494020004E+02  0.46775709163E+03 -0.97591603388E+03  0.10831382736E+04  0.00000000000E+00 0.  1.
         11    1    5    5    0    0 -0.77957514374E+02 -0.13177187461E+03  0.19121090139E+03  0.24495470968E+03  0.00000000000E+00 0. -1.
        -11    1    5    5    0    0 -0.12281233606E+03 -0.20884376178E+03  0.14829904277E+03  0.28406195242E+03  0.00000000000E+00 0.  1.
          2    1    6    6  503    0 -0.40957536083E+01 -0.38842413438E+01 -0.24357842049E+02  0.25003339732E+02  0.00000000000E+00 0. -1.
         -2    1    6    6    0  503  0.25023699929E+03 -0.12917754877E+03 -0.34269448338E+03  0.44355935776E+03  0.00000000000E+00 0.  1.
<mgrwt>
<rscale>  0 0.18299813E+04</rscale>
<asrwt>0</asrwt>
<pdfrwt beam="1">  1        2 0.23765791E+00 0.18299813E+04</pdfrwt>
<pdfrwt beam="2">  1       -2 0.83378548E-01 0.18299813E+04</pdfrwt>
<totfact> 0.14199854E+01</totfact>
</mgrwt>
</event>
<event>
12    2  0.3518828E-008  0.1139074E+04  0.7818608E-02  0.9167923E-01
          1   -1    0    0  501    0  0.00000000000E+00  0.00000000000E+00  0.10714162027E+04  0.10714162027E+04  0.00000000000E+00 0. -1.
         -1   -1    0    0    0  501 -0.00000000000E+00 -0.00000000000E+00 -0.30275101576E+03  0.30275101576E+03  0.00000000000E+00 0.  1.
         23    2    1    2    0    0  0.42474410327E+02 -0.90397644067E+02  0.33007791897E+03  0.36120923105E+03  0.10744704005E+03 0.  0.
        254    2    1    2    0    0 -0.42474410327E+02  0.90397644067E+02  0.43858726795E+03  0.10129579874E+04  0.90760634805E+03 0.  0.
         23    2    4    4    0    0  0.16166323822E+03 -0.13282681442E+03 -0.19841685338E+03  0.30199268821E+03  0.89735003239E+02 0.  0.
         23    2    4    4    0    0 -0.20413764854E+03  0.22322445848E+03  0.63700412133E+03  0.71096529918E+03  0.90532135896E+02 0.  0.
          2    1    3    3  502    0  0.35322617501E+02 -0.11144098484E+03  0.30979888873E+03  0.33112253301E+03  0.00000000000E+00 0. -1.
         -2    1    3    3    0  502  0.71517928268E+01  0.21043340769E+02  0.20279030243E+02  0.30086698040E+02  0.00000000000E+00 0.  1.
         11    1    5    5    0    0  0.70674992444E+02 -0.98541737607E+02 -0.15143087614E+03  0.19400190426E+03  0.00000000000E+00 0.  1.
        -11    1    5    5    0    0  0.90988245773E+02 -0.34285076809E+02 -0.46985977242E+02  0.10799078395E+03  0.00000000000E+00 0. -1.
          1    1    6    6  503    0 -0.11891953709E+03  0.78573080932E+02  0.22853398098E+03  0.26933875660E+03  0.00000000000E+00 0. -1.
         -1    1    6    6    0  503 -0.85218111457E+02  0.14465137755E+03  0.40847014035E+03  0.44162654258E+03  0.00000000000E+00 0.  1.
<mgrwt>
<rscale>  0 0.11390739E+04</rscale>
<asrwt>0</asrwt>
<pdfrwt beam="1">  1        1 0.16483326E+00 0.11390739E+04</pdfrwt>
<pdfrwt beam="2">  1       -1 0.46577080E-01 0.11390739E+04</pdfrwt>
<totfact> 0.60783703E+01</totfact>
</mgrwt>
</event>
<event>
12    2  0.3518828E-008  0.3130782E+04  0.7818608E-02  0.8207341E-01
         -2   -1    0    0    0  501 -0.00000000000E+00  0.00000000000E+00  0.11868471485E+04  0.11868471485E+04  0.00000000000E+00 0.  1.
          2   -1    0    0  501    0  0.00000000000E+00 -0.00000000000E+00 -0.20646704373E+04  0.20646704373E+04  0.00000000000E+00 0. -1.
         23    2    1    2    0    0  0.42512054012E+03  0.13526795288E+04 -0.66448644558E+03  0.15683641787E+04  0.88060089641E+02 0.  0.
        254    2    1    2    0    0 -0.42512054012E+03 -0.13526795288E+04 -0.21333684322E+03  0.16831534071E+04  0.88148930894E+03 0.  0.
         23    2    4    4    0    0 -0.54470308407E+03 -0.12733411774E+04 -0.38719391527E+03  0.14407122176E+04  0.87369114508E+02 0.  0.
         23    2    4    4    0    0  0.11958254395E+03 -0.79338351441E+02  0.17385707205E+03  0.24244118946E+03  0.89201401444E+02 0.  0.
          3    1    3    3  502    0  0.20950052471E+02  0.27877469519E+02 -0.90401287031E+01  0.36024740558E+02  0.00000000000E+00 0. -1.
         -3    1    3    3    0  502  0.40417048764E+03  0.13248020593E+04 -0.65544631688E+03  0.15323394381E+04  0.00000000000E+00 0.  1.
         11    1    5    5    0    0 -0.52691031047E+03 -0.12488592973E+04 -0.36679902862E+03  0.14042170584E+04  0.00000000000E+00 0. -1.
        -11    1    5    5    0    0 -0.17792773603E+02 -0.24481880093E+02 -0.20394886643E+02  0.36495159221E+02  0.00000000000E+00 0.  1.
          1    1    6    6  503    0  0.86637277467E+02 -0.35812252041E+02  0.48142302805E+02  0.10538603590E+03  0.00000000000E+00 0. -1.
         -1    1    6    6    0  503  0.32945266487E+02 -0.43526099400E+02  0.12571476924E+03  0.13705515356E+03  0.00000000000E+00 0.  1.
<mgrwt>
<rscale>  0 0.31307815E+04</rscale>
<asrwt>0</asrwt>
<pdfrwt beam="1">  1        2 0.31764160E+00 0.31307815E+04</pdfrwt>
<pdfrwt beam="2">  1       -2 0.18259187E+00 0.31307815E+04</pdfrwt>
<totfact> 0.90628520E-01</totfact>
</mgrwt>
</event>
<event>
12    2  0.3518828E-008  0.1513341E+04  0.7818608E-02  0.8875629E-01
         -1   -1    0    0    0  501 -0.00000000000E+00  0.00000000000E+00  0.69715178946E+03  0.69715178946E+03  0.00000000000E+00 0.  1.
          1   -1    0    0  501    0  0.00000000000E+00 -0.00000000000E+00 -0.82127090236E+03  0.82127090236E+03  0.00000000000E+00 0. -1.
         23    2    1    2    0    0  0.41518087051E+03  0.25905166356E+03 -0.16096810667E+03  0.52335591047E+03  0.92237508801E+02 0.  0.
        254    2    1    2    0    0 -0.41518087051E+03 -0.25905166356E+03  0.36848993769E+02  0.99506678135E+03  0.86563105962E+03 0.  0.
         23    2    4    4    0    0  0.53370461921E+02 -0.11016639076E+02  0.35311063414E+03  0.36953488019E+03  0.94335227749E+02 0.  0.
         23    2    4    4    0    0 -0.46855133243E+03 -0.24803502448E+03 -0.31626164037E+03  0.62553190116E+03  0.10102974663E+03 0.  0.
          1    1    3    3  502    0  0.12416371581E+03  0.82706438256E+02 -0.56165192014E+01  0.14929343100E+03  0.00000000000E+00 0. -1.
         -1    1    3    3    0  502  0.29101715470E+03  0.17634522530E+03 -0.15535158747E+03  0.37406247947E+03  0.00000000000E+00 0.  1.
         11    1    5    5    0    0  0.63749177304E+02 -0.27904868951E+02  0.14883818304E+03  0.16430290335E+03  0.00000000000E+00 0. -1.
        -11    1    5    5    0    0 -0.10378715383E+02  0.16888229876E+02  0.20427245109E+03  0.20523197684E+03  0.00000000000E+00 0.  1.
          3    1    6    6  503    0 -0.61216480788E+02 -0.92081750807E+01 -0.99653580549E+01  0.62702124123E+02  0.00000000000E+00 0. -1.
         -3    1    6    6    0  503 -0.40733485164E+03 -0.23882684940E+03 -0.30629628231E+03  0.56282977704E+03  0.00000000000E+00 0.  1.
<mgrwt>
<rscale>  0 0.15133413E+04</rscale>
<asrwt>0</asrwt>
<pdfrwt beam="1">  1        1 0.12634937E+00 0.15133413E+04</pdfrwt>
<pdfrwt beam="2">  1       -1 0.10725412E+00 0.15133413E+04</pdfrwt>
<totfact> 0.16592800E+01</totfact>
</mgrwt>
</event>
<event>
12    2  0.3518828E-008  0.1537939E+04  0.7818608E-02  0.8859609E-01
          2   -1    0    0  501    0  0.00000000000E+00  0.00000000000E+00  0.36405013612E+03  0.36405013612E+03  0.00000000000E+00 0. -1.
         -2   -1    0    0    0  501 -0.00000000000E+00 -0.00000000000E+00 -0.16242654532E+04  0.16242654532E+04  0.00000000000E+00 0.  1.
         23    2    1    2    0    0  0.28207685436E+03 -0.40226486335E+03 -0.51798805741E+03  0.71977140247E+03  0.91514327491E+02 0.  0.
        254    2    1    2    0    0 -0.28207685436E+03  0.40226486335E+03 -0.74222725965E+03  0.12685441868E+04  0.90383553643E+03 0.  0.
         23    2    4    4    0    0 -0.24212521075E+03  0.56331843409E+03 -0.13533489963E+03  0.63313459972E+03  0.81188733443E+02 0.  0.
         23    2    4    4    0    0 -0.39951643614E+02 -0.16105357074E+03 -0.60689236002E+03  0.63540958710E+03  0.88840420181E+02 0.  0.
          1    1    3    3  502    0  0.64782299031E+02 -0.53073951997E+02 -0.12817876781E+03  0.15311233512E+03  0.00000000000E+00 0. -1.
         -1    1    3    3    0  502  0.21729455533E+03 -0.34919091135E+03 -0.38980928960E+03  0.56665906735E+03  0.00000000000E+00 0.  1.
         11    1    5    5    0    0 -0.49986084409E+02  0.56798319436E+02 -0.43505649993E+01  0.75786444310E+02  0.00000000000E+00 0.  1.
        -11    1    5    5    0    0 -0.19213912634E+03  0.50652011466E+03 -0.13098433463E+03  0.55734815541E+03  0.00000000000E+00 0. -1.
          3    1    6    6  503    0 -0.55175126381E+02 -0.16346637396E+03 -0.54682277251E+03  0.57339401333E+03  0.00000000000E+00 0. -1.
         -3    1    6    6    0  503  0.15223482767E+02  0.24128032215E+01 -0.60069587506E+02  0.62015573770E+02  0.00000000000E+00 0.  1.
<mgrwt>
<rscale>  0 0.15379390E+04</rscale>
<asrwt>0</asrwt>
<pdfrwt beam="1">  1        2 0.56007714E-01 0.15379390E+04</pdfrwt>
<pdfrwt beam="2">  1       -2 0.24988699E+00 0.15379390E+04</pdfrwt>
<totfact> 0.54854610E+00</totfact>
</mgrwt>
</event>
<event>
12    2  0.3518828E-008  0.1672911E+04  0.7818608E-02  0.8776967E-01
          2   -1    0    0  501    0  0.00000000000E+00  0.00000000000E+00  0.52290625705E+03  0.52290625705E+03  0.00000000000E+00 0. -1.
         -2   -1    0    0    0  501 -0.00000000000E+00 -0.00000000000E+00 -0.13380175077E+04  0.13380175077E+04  0.00000000000E+00 0.  1.
         23    2    1    2    0    0 -0.86026444427E+01  0.32762488064E+03 -0.85147954860E+03  0.91653520431E+03  0.87219786404E+02 0.  0.
        254    2    1    2    0    0  0.86026444427E+01 -0.32762488064E+03  0.36368297918E+02  0.94438856048E+03  0.88494916926E+03 0.  0.
         23    2    4    4    0    0  0.28839510505E+03  0.24282647444E+02  0.29077389139E+03  0.42016463676E+03  0.90705471112E+02 0.  0.
         23    2    4    4    0    0 -0.27979246060E+03 -0.35190752809E+03 -0.25440559347E+03  0.52422392372E+03  0.89251257019E+02 0.  0.
          1    1    3    3  502    0 -0.21968265241E+02  0.16234531996E+02 -0.61456778335E+02  0.67253998470E+02  0.00000000000E+00 0. -1.
         -1    1    3    3    0  502  0.13365620798E+02  0.31139034865E+03 -0.79002277026E+03  0.84928120584E+03  0.00000000000E+00 0.  1.
         11    1    5    5    0    0  0.28988135516E+03  0.14422516932E+02  0.28979244592E+03  0.41014493874E+03  0.00000000000E+00 0. -1.
        -11    1    5    5    0    0 -0.14862501136E+01  0.98601305123E+01  0.98144546469E+00  0.10019698015E+02  0.00000000000E+00 0.  1.
          2    1    6    6  503    0 -0.17956902550E+03 -0.15446086451E+03 -0.12704010952E+03  0.26877943190E+03  0.00000000000E+00 0. -1.
         -2    1    6    6    0  503 -0.10022343510E+03 -0.19744666358E+03 -0.12736548395E+03  0.25544449182E+03  0.00000000000E+00 0.  1.
<mgrwt>
<rscale>  0 0.16729109E+04</rscale>
<asrwt>0</asrwt>
<pdfrwt beam="1">  1        2 0.80447117E-01 0.16729109E+04</pdfrwt>
<pdfrwt beam="2">  1       -2 0.20584885E+00 0.16729109E+04</pdfrwt>
<totfact> 0.67811123E+00</totfact>
</mgrwt>
</event>
<event>
12    2  0.3518828E-008  0.3251321E+04  0.7818608E-02  0.8175393E-01
          2   -1    0    0  501    0  0.00000000000E+00  0.00000000000E+00  0.10442785056E+04  0.10442785056E+04  0.00000000000E+00 0.  1.
         -2   -1    0    0    0  501 -0.00000000000E+00 -0.00000000000E+00 -0.25307163683E+04  0.25307163683E+04  0.00000000000E+00 0. -1.
         23    2    1    2    0    0  0.14803202071E+04 -0.21435143776E+03 -0.59633760543E+03  0.16128857194E+04  0.92126813932E+02 0.  0.
        254    2    1    2    0    0 -0.14803202071E+04  0.21435143776E+03 -0.89010025725E+03  0.19621091544E+04  0.90570382107E+03 0.  0.
         23    2    4    4    0    0 -0.92398463195E+03  0.52825966954E+03 -0.36077211487E+03  0.11275577762E+04  0.91783120845E+02 0.  0.
         23    2    4    4    0    0 -0.55633557515E+03 -0.31390823177E+03 -0.52932814238E+03  0.83455137822E+03  0.90774833621E+02 0.  0.
          1    1    3    3  502    0  0.64831133434E+02 -0.27230275239E+02 -0.19587932853E+02  0.72994868761E+02  0.00000000000E+00 0. -1.
         -1    1    3    3    0  502  0.14154890737E+04 -0.18712116252E+03 -0.57674967258E+03  0.15398908507E+04  0.00000000000E+00 0.  1.
         11    1    5    5    0    0 -0.89005767263E+03  0.51490391190E+03 -0.36438194549E+03  0.10909183752E+04  0.00000000000E+00 0.  1.
        -11    1    5    5    0    0 -0.33926959326E+02  0.13355757637E+02  0.36098306140E+01  0.36639401035E+02  0.00000000000E+00 0. -1.
          3    1    6    6  503    0 -0.12000501656E+03 -0.39266269817E+02 -0.71849696515E+02  0.14527705543E+03  0.00000000000E+00 0. -1.
         -3    1    6    6    0  503 -0.43633055859E+03 -0.27464196196E+03 -0.45747844586E+03  0.68927432279E+03  0.00000000000E+00 0.  1.
<mgrwt>
<rscale>  0 0.32513214E+04</rscale>
<asrwt>0</asrwt>
<pdfrwt beam="1">  1        2 0.16065823E+00 0.32513214E+04</pdfrwt>
<pdfrwt beam="2">  1       -2 0.38934098E+00 0.32513214E+04</pdfrwt>
<totfact> 0.17226146E-01</totfact>
</mgrwt>
</event>
<event>
12    2  0.3518828E-008  0.1641432E+04  0.7818608E-02  0.8795491E-01
          1   -1    0    0  501    0  0.00000000000E+00  0.00000000000E+00  0.25426020139E+04  0.25426020139E+04  0.00000000000E+00 0. -1.
         -1   -1    0    0    0  501 -0.00000000000E+00 -0.00000000000E+00 -0.26491551422E+03  0.26491551422E+03  0.00000000000E+00 0.  1.
         23    2    1    2    0    0 -0.38144228218E+03 -0.26561729960E+03  0.13606806185E+04  0.14407368159E+04  0.90664560417E+02 0.  0.
        254    2    1    2    0    0  0.38144228218E+03  0.26561729960E+03  0.91700588116E+03  0.13667807122E+04  0.90063253595E+03 0.  0.
         23    2    4    4    0    0  0.60925278018E+03  0.37316645214E+03  0.78905517504E+03  0.10683380216E+04  0.91081875004E+02 0.  0.
         23    2    4    4    0    0 -0.22781049800E+03 -0.10754915254E+03  0.12795070612E+03  0.29844269066E+03  0.96084406640E+02 0.  0.
          4    1    3    3  502    0 -0.24652445341E+03 -0.14146044240E+03  0.93504805359E+03  0.97729229272E+03  0.00000000000E+00 0. -1.
         -4    1    3    3    0  502 -0.13491782877E+03 -0.12415685720E+03  0.42563256494E+03  0.46344452316E+03  0.00000000000E+00 0.  1.
         11    1    5    5    0    0  0.20426210262E+03  0.17482309924E+03  0.31253269203E+03  0.41226545597E+03  0.00000000000E+00 0.  1.
        -11    1    5    5    0    0  0.40499067756E+03  0.19834335290E+03  0.47652248301E+03  0.65607256563E+03  0.00000000000E+00 0. -1.
          1    1    6    6  503    0 -0.15070746338E+03 -0.19451667044E+02  0.82040847394E+02  0.17268991723E+03  0.00000000000E+00 0. -1.
         -1    1    6    6    0  503 -0.77103034618E+02 -0.88097485494E+02  0.45909858721E+02  0.12575277343E+03  0.00000000000E+00 0.  1.
<mgrwt>
<rscale>  0 0.16414320E+04</rscale>
<asrwt>0</asrwt>
<pdfrwt beam="1">  1        1 0.39116952E+00 0.16414320E+04</pdfrwt>
<pdfrwt beam="2">  1       -1 0.40756235E-01 0.16414320E+04</pdfrwt>
<totfact> 0.71353803E+00</totfact>
</mgrwt>
</event>
<event>
12    2  0.3518828E-008  0.2373174E+04  0.7818608E-02  0.8449616E-01
         -1   -1    0    0    0  501 -0.00000000000E+00  0.00000000000E+00  0.62000736687E+03  0.62000736687E+03  0.00000000000E+00 0.  1.
          1   -1    0    0  501    0  0.00000000000E+00 -0.00000000000E+00 -0.22709229434E+04  0.22709229434E+04  0.00000000000E+00 0. -1.
         23    2    1    2    0    0 -0.72432700966E+02  0.55671764171E+03  0.32866042407E+03  0.65714062135E+03  0.92925201726E+02 0.  0.
        254    2    1    2    0    0  0.72432700966E+02 -0.55671764171E+03 -0.19795760006E+04  0.22337896889E+04  0.86943326564E+03 0.  0.
         23    2    4    4    0    0  0.41103476122E+03 -0.33395696275E+03 -0.15362082770E+04  0.16274889563E+04  0.91146063239E+02 0.  0.
         23    2    4    4    0    0 -0.33860206025E+03 -0.22276067896E+03 -0.44336772363E+03  0.60630073259E+03  0.82170339443E+02 0.  0.
          4    1    3    3  502    0 -0.28484368172E+01  0.14310294260E+03  0.12870955424E+03  0.19249081829E+03  0.00000000000E+00 0. -1.
         -4    1    3    3    0  502 -0.69584264149E+02  0.41361469911E+03  0.19995086983E+03  0.46464980306E+03  0.00000000000E+00 0.  1.
         11    1    5    5    0    0  0.72894339204E+02 -0.36763962640E+02 -0.16177940112E+03  0.18121188776E+03  0.00000000000E+00 0.  1.
        -11    1    5    5    0    0  0.33814042201E+03 -0.29719300011E+03 -0.13744288759E+04  0.14462770686E+04  0.00000000000E+00 0. -1.
          4    1    6    6  503    0  0.16939338771E+01 -0.12357946758E+01  0.24900537406E+01  0.32552984643E+01  0.00000000000E+00 0.  1.
         -4    1    6    6    0  503 -0.34029599413E+03 -0.22152488428E+03 -0.44585777737E+03  0.60304543412E+03  0.00000000000E+00 0. -1.
<mgrwt>
<rscale>  0 0.23731742E+04</rscale>
<asrwt>0</asrwt>
<pdfrwt beam="1">  1        1 0.34937275E+00 0.23731742E+04</pdfrwt>
<pdfrwt beam="2">  1       -1 0.95385751E-01 0.23731742E+04</pdfrwt>
<totfact> 0.18565150E+00</totfact>
</mgrwt>
</event>
<event>
12    2  0.3518828E-008  0.1769670E+04  0.7818608E-02  0.8722597E-01
          1   -1    0    0  501    0  0.00000000000E+00  0.00000000000E+00  0.11492756114E+04  0.11492756114E+04  0.00000000000E+00 0. -1.
         -1   -1    0    0    0  501 -0.00000000000E+00 -0.00000000000E+00 -0.68124003185E+03  0.68124003185E+03  0.00000000000E+00 0.  1.
         23    2    1    2    0    0 -0.11346150589E+03  0.63217224234E+03  0.22030179495E+03  0.68508243442E+03  0.91048359640E+02 0.  0.
        254    2    1    2    0    0  0.11346150589E+03 -0.63217224234E+03  0.24773378461E+03  0.11454332088E+04  0.91549437496E+03 0.  0.
         23    2    4    4    0    0 -0.46750232128E+02 -0.79504457307E+03  0.72878506570E+01  0.80208583284E+03  0.94905811729E+02 0.  0.
         23    2    4    4    0    0  0.16021173802E+03  0.16287233073E+03  0.24044593396E+03  0.34334737600E+03  0.88757964917E+02 0.  0.
          1    1    3    3  502    0 -0.55287228098E+02  0.42232238928E+03  0.10500248392E+03  0.43867801370E+03  0.00000000000E+00 0. -1.
         -1    1    3    3    0  502 -0.58174277789E+02  0.20984985306E+03  0.11529931103E+03  0.24640442072E+03  0.00000000000E+00 0.  1.
         11    1    5    5    0    0 -0.69627122457E+02 -0.40539644476E+03 -0.89420763175E+01  0.41142942813E+03  0.00000000000E+00 0.  1.
        -11    1    5    5    0    0  0.22876890329E+02 -0.38964812831E+03  0.16229926975E+02  0.39065640471E+03  0.00000000000E+00 0. -1.
          4    1    6    6  503    0  0.46850337162E+02  0.11087898605E+03  0.11975163131E+03  0.16979268783E+03  0.00000000000E+00 0. -1.
         -4    1    6    6    0  503  0.11336140085E+03  0.51993344680E+02  0.12069430265E+03  0.17355468817E+03  0.00000000000E+00 0.  1.
<mgrwt>
<rscale>  0 0.17696695E+04</rscale>
<asrwt>0</asrwt>
<pdfrwt beam="1">  1        1 0.17681163E+00 0.17696695E+04</pdfrwt>
<pdfrwt beam="2">  1       -1 0.10480616E+00 0.17696695E+04</pdfrwt>
<totfact> 0.94223448E+00</totfact>
</mgrwt>
</event>
<event>
12    2  0.3518828E-008  0.1610015E+04  0.7818608E-02  0.8814419E-01
         -2   -1    0    0    0  501 -0.00000000000E+00  0.00000000000E+00  0.15101221639E+04  0.15101221639E+04  0.00000000000E+00 0.  1.
          2   -1    0    0  501    0  0.00000000000E+00 -0.00000000000E+00 -0.42912872333E+03  0.42912872333E+03  0.00000000000E+00 0. -1.
         23    2    1    2    0    0 -0.50795153304E+03 -0.55582359964E+02  0.12772376964E+03  0.53451810811E+03  0.91060902169E+02 0.  0.
        254    2    1    2    0    0  0.50795153304E+03  0.55582359964E+02  0.95326967098E+03  0.14047327792E+04  0.89635202717E+03 0.  0.
         23    2    4    4    0    0 -0.31915948335E+02 -0.22691088658E+03  0.69335317275E+03  0.73602426603E+03  0.92119052435E+02 0.  0.
         23    2    4    4    0    0  0.53986748138E+03  0.28249324654E+03  0.25991649823E+03  0.66870851314E+03  0.91406551753E+02 0.  0.
          4    1    3    3  502    0 -0.13432062641E+03  0.78752064374E+01 -0.12961816161E+00  0.13455135212E+03  0.00000000000E+00 0.  1.
         -4    1    3    3    0  502 -0.37363090663E+03 -0.63457566401E+02  0.12785338780E+03  0.39996675599E+03  0.00000000000E+00 0. -1.
         11    1    5    5    0    0  0.25088692460E+02 -0.13851760032E+03  0.36343002415E+03  0.38974087615E+03  0.00000000000E+00 0. -1.
        -11    1    5    5    0    0 -0.57004640795E+02 -0.88393286262E+02  0.32992314860E+03  0.34628338988E+03  0.00000000000E+00 0.  1.
          2    1    6    6  503    0  0.15606924516E+03  0.41069649390E+02  0.87825080198E+02  0.18373233275E+03  0.00000000000E+00 0.  1.
         -2    1    6    6    0  503  0.38379823621E+03  0.24142359715E+03  0.17209141803E+03  0.48497618039E+03  0.00000000000E+00 0. -1.
<mgrwt>
<rscale>  0 0.16100147E+04</rscale>
<asrwt>0</asrwt>
<pdfrwt beam="1">  1        2 0.66019804E-01 0.16100147E+04</pdfrwt>
<pdfrwt beam="2">  1       -2 0.23232648E+00 0.16100147E+04</pdfrwt>
<totfact> 0.58149782E+00</totfact>
</mgrwt>
</event>
<event>
12    2  0.3518828E-008  0.1619018E+04  0.7818608E-02  0.8808949E-01
          3   -1    0    0  501    0  0.00000000000E+00  0.00000000000E+00  0.92570445962E+03  0.92570445962E+03  0.00000000000E+00 0. -1.
         -3   -1    0    0    0  501 -0.00000000000E+00 -0.00000000000E+00 -0.70789892074E+03  0.70789892074E+03  0.00000000000E+00 0.  1.
         23    2    1    2    0    0  0.21847980709E+03  0.34830720573E+03 -0.29007489675E+03  0.51137443066E+03  0.91153864066E+02 0.  0.
        254    2    1    2    0    0 -0.21847980709E+03 -0.34830720573E+03  0.50788043563E+03  0.11222289497E+04  0.91236173909E+03 0.  0.
         23    2    4    4    0    0  0.15959083911E+03 -0.53738023438E+03  0.29358898756E+03  0.63950811128E+03  0.92354634694E+02 0.  0.
         23    2    4    4    0    0 -0.37807064620E+03  0.18907302864E+03  0.21429144807E+03  0.48272083841E+03  0.91720005680E+02 0.  0.
          4    1    3    3  502    0  0.14738664669E+02  0.38817690142E+02 -0.67152862892E+02  0.78952823248E+02  0.00000000000E+00 0.  1.
         -4    1    3    3    0  502  0.20374114242E+03  0.30948951559E+03 -0.22292203386E+03  0.43242160741E+03  0.00000000000E+00 0. -1.
         11    1    5    5    0    0  0.14743268011E+03 -0.52891206342E+03  0.27054104647E+03  0.61210850657E+03  0.00000000000E+00 0.  1.
        -11    1    5    5    0    0  0.12158159001E+02 -0.84681709625E+01  0.23047941093E+02  0.27399604712E+02  0.00000000000E+00 0. -1.
          3    1    6    6  503    0 -0.93647979986E+02  0.91648157229E+01  0.28602491131E+02  0.98346532738E+02  0.00000000000E+00 0. -1.
         -3    1    6    6    0  503 -0.28442266621E+03  0.17990821292E+03  0.18568895694E+03  0.38437430567E+03  0.00000000000E+00 0.  1.
<mgrwt>
<rscale>  0 0.16190185E+04</rscale>
<asrwt>0</asrwt>
<pdfrwt beam="1">  1        3 0.14241607E+00 0.16190185E+04</pdfrwt>
<pdfrwt beam="2">  1       -3 0.10890753E+00 0.16190185E+04</pdfrwt>
<totfact> 0.66184740E-01</totfact>
</mgrwt>
</event>
<event>
12    2  0.3518828E-008  0.1252811E+04  0.7818608E-02  0.9067847E-01
         -1   -1    0    0    0  501 -0.00000000000E+00  0.00000000000E+00  0.75079548982E+03  0.75079548982E+03  0.00000000000E+00 0.  1.
          1   -1    0    0  501    0  0.00000000000E+00 -0.00000000000E+00 -0.52262388352E+03  0.52262388352E+03  0.00000000000E+00 0. -1.
         23    2    1    2    0    0 -0.18260897053E+03 -0.16181661225E+03  0.23478013008E+03  0.35082454125E+03  0.91790506863E+02 0.  0.
        254    2    1    2    0    0  0.18260897053E+03  0.16181661225E+03 -0.66085237833E+01  0.92259483209E+03  0.88972293412E+03 0.  0.
         23    2    4    4    0    0 -0.53766980068E+01  0.29294212119E+03  0.36474550942E+03  0.47666218176E+03  0.91233511526E+02 0.  0.
         23    2    4    4    0    0  0.18798566853E+03 -0.13112550894E+03 -0.37135403321E+03  0.44593265033E+03  0.91758378283E+02 0.  0.
          4    1    3    3  502    0 -0.39894339944E+02  0.52843823764E+01  0.46023687042E+02  0.61136427976E+02  0.00000000000E+00 0. -1.
         -4    1    3    3    0  502 -0.14271463058E+03 -0.16710099463E+03  0.18875644304E+03  0.28968811328E+03  0.00000000000E+00 0.  1.
         11    1    5    5    0    0  0.40337897278E+02  0.17314250571E+03  0.19411737746E+03  0.26322429499E+03  0.00000000000E+00 0. -1.
        -11    1    5    5    0    0 -0.45714595284E+02  0.11979961547E+03  0.17062813197E+03  0.21343788677E+03  0.00000000000E+00 0.  1.
          3    1    6    6  503    0  0.55260636639E+00  0.84724828374E+01 -0.37228494854E+02  0.38184410016E+02  0.00000000000E+00 0. -1.
         -3    1    6    6    0  503  0.18743306217E+03 -0.13959799177E+03 -0.33412553835E+03  0.40774824032E+03  0.00000000000E+00 0.  1.
<mgrwt>
<rscale>  0 0.12528107E+04</rscale>
<asrwt>0</asrwt>
<pdfrwt beam="1">  1        1 0.80403675E-01 0.12528107E+04</pdfrwt>
<pdfrwt beam="2">  1       -1 0.11550700E+00 0.12528107E+04</pdfrwt>
<totfact> 0.27921285E+01</totfact>
</mgrwt>
</event>
<event>
12    2  0.3518828E-008  0.1362435E+04  0.7818608E-02  0.8981468E-01
          2   -1    0    0  501    0  0.00000000000E+00  0.00000000000E+00  0.23851739716E+04  0.23851739716E+04  0.00000000000E+00 0.  1.
         -2   -1    0    0    0  501 -0.00000000000E+00 -0.00000000000E+00 -0.19455895671E+03  0.19455895671E+03  0.00000000000E+00 0. -1.
         23    2    1    2    0    0  0.33057126340E+03  0.21247962063E+03  0.51523098167E+03  0.65435142272E+03  0.91037742594E+02 0.  0.
        254    2    1    2    0    0 -0.33057126340E+03 -0.21247962063E+03  0.16753840332E+04  0.19253815056E+04  0.86357242541E+03 0.  0.
         23    2    4    4    0    0  0.49458686382E+02  0.28834354516E+03  0.66009012279E+03  0.72788428223E+03  0.92240969285E+02 0.  0.
         23    2    4    4    0    0 -0.38002994978E+03 -0.50082316579E+03  0.10152939104E+04  0.11974972234E+04  0.89057673930E+02 0.  0.
          2    1    3    3  502    0  0.25672794790E+03  0.14336013940E+03  0.32070562497E+03  0.43510167396E+03  0.00000000000E+00 0. -1.
         -2    1    3    3    0  502  0.73843315501E+02  0.69119481227E+02  0.19452535671E+03  0.21924974876E+03  0.00000000000E+00 0.  1.
         11    1    5    5    0    0  0.53469618784E+02  0.19560494844E+03  0.53480279437E+03  0.57195657602E+03  0.00000000000E+00 0.  1.
        -11    1    5    5    0    0 -0.40109324016E+01  0.92738596720E+02  0.12528732842E+03  0.15592770621E+03  0.00000000000E+00 0. -1.
          2    1    6    6  503    0 -0.50447802388E+02 -0.84768329633E+02  0.22299857784E+03  0.24384219526E+03  0.00000000000E+00 0. -1.
         -2    1    6    6    0  503 -0.32958214739E+03 -0.41605483615E+03  0.79229533261E+03  0.95365502811E+03  0.00000000000E+00 0.  1.
<mgrwt>
<rscale>  0 0.13624345E+04</rscale>
<asrwt>0</asrwt>
<pdfrwt beam="1">  1        2 0.36694982E+00 0.13624345E+04</pdfrwt>
<pdfrwt beam="2">  1       -2 0.29932149E-01 0.13624345E+04</pdfrwt>
<totfact> 0.40867800E+01</totfact>
</mgrwt>
</event>
<event>
12    2  0.3518828E-008  0.1697303E+04  0.7818608E-02  0.8762904E-01
          2   -1    0    0  501    0  0.00000000000E+00  0.00000000000E+00  0.19447273186E+04  0.19447273186E+04  0.00000000000E+00 0. -1.
         -2   -1    0    0    0  501 -0.00000000000E+00 -0.00000000000E+00 -0.37033969481E+03  0.37033969481E+03  0.00000000000E+00 0.  1.
         23    2    1    2    0    0 -0.26160157445E+03 -0.44613034716E+03  0.15129812024E+03  0.54693576163E+03  0.93701311388E+02 0.  0.
        254    2    1    2    0    0  0.26160157445E+03  0.44613034716E+03  0.14230895036E+04  0.17681312518E+04  0.91303708466E+03 0.  0.
         23    2    4    4    0    0  0.32153315246E+02  0.67537572843E+03  0.73987554475E+03  0.10063650065E+04  0.90490300212E+02 0.  0.
         23    2    4    4    0    0  0.22944825920E+03 -0.22924538127E+03  0.68321395884E+03  0.76176624526E+03  0.91140278570E+02 0.  0.
          2    1    3    3  502    0 -0.35807612793E+02 -0.13540431377E+03  0.22748842372E+02  0.14189440845E+03  0.00000000000E+00 0. -1.
         -2    1    3    3    0  502 -0.22579396165E+03 -0.31072603340E+03  0.12854927786E+03  0.40504135318E+03  0.00000000000E+00 0.  1.
         11    1    5    5    0    0  0.50138025634E+02  0.53033296571E+03  0.61938142046E+03  0.81694566535E+03  0.00000000000E+00 0.  1.
        -11    1    5    5    0    0 -0.17984710388E+02  0.14504276273E+03  0.12049412429E+03  0.18941934119E+03  0.00000000000E+00 0. -1.
          1    1    6    6  503    0  0.15663008736E+03 -0.93333158206E+02  0.38830502991E+03  0.42898118717E+03  0.00000000000E+00 0. -1.
         -1    1    6    6    0  503  0.72818171842E+02 -0.13591222307E+03  0.29490892892E+03  0.33278505809E+03  0.00000000000E+00 0.  1.
<mgrwt>
<rscale>  0 0.16973034E+04</rscale>
<asrwt>0</asrwt>
<pdfrwt beam="1">  1        2 0.29918881E+00 0.16973034E+04</pdfrwt>
<pdfrwt beam="2">  1       -2 0.56975339E-01 0.16973034E+04</pdfrwt>
<totfact> 0.19712304E+01</totfact>
</mgrwt>
</event>
<event>
12    2  0.3518828E-008  0.1759241E+04  0.7818608E-02  0.8728280E-01
         -2   -1    0    0    0  501 -0.00000000000E+00  0.00000000000E+00  0.17590134849E+03  0.17590134849E+03  0.00000000000E+00 0.  1.
          2   -1    0    0  501    0  0.00000000000E+00 -0.00000000000E+00 -0.43986691303E+04  0.43986691303E+04  0.00000000000E+00 0. -1.
         23    2    1    2    0    0 -0.56004479620E+03  0.86266667362E+02 -0.23950524704E+04  0.24629221608E+04  0.92828457380E+02 0.  0.
        254    2    1    2    0    0  0.56004479620E+03 -0.86266667362E+02 -0.18277153115E+04  0.21116483181E+04  0.89298558091E+03 0.  0.
         23    2    4    4    0    0 -0.63016800877E+02 -0.25902780378E+03 -0.16785473691E+03  0.32787613858E+03  0.90890204213E+02 0.  0.
         23    2    4    4    0    0  0.62306159708E+03  0.17276113642E+03 -0.16598605746E+04  0.17837721795E+04  0.93026325709E+02 0.  0.
          3    1    3    3  502    0 -0.49447555883E+03  0.49165165294E+02 -0.21426202962E+04  0.21994874461E+04  0.00000000000E+00 0. -1.
         -3    1    3    3    0  502 -0.65569237375E+02  0.37101502068E+02 -0.25243217411E+03  0.26343471463E+03  0.00000000000E+00 0.  1.
         11    1    5    5    0    0 -0.73849212405E+02 -0.19727536687E+03 -0.93074663380E+02  0.23029148814E+03  0.00000000000E+00 0. -1.
        -11    1    5    5    0    0  0.10832411528E+02 -0.61752436912E+02 -0.74780073534E+02  0.97584650442E+02  0.00000000000E+00 0.  1.
          2    1    6    6  503    0  0.26559822294E+03  0.30251105099E+02 -0.63025902250E+03  0.68460498160E+03  0.00000000000E+00 0. -1.
         -2    1    6    6    0  503  0.35746337414E+03  0.14251003132E+03 -0.10296015521E+04  0.10991671979E+04  0.00000000000E+00 0.  1.
<mgrwt>
<rscale>  0 0.17592406E+04</rscale>
<asrwt>0</asrwt>
<pdfrwt beam="1">  1        2 0.67671832E+00 0.17592406E+04</pdfrwt>
<pdfrwt beam="2">  1       -2 0.27061746E-01 0.17592406E+04</pdfrwt>
<totfact> 0.18502501E+00</totfact>
</mgrwt>
</event>
<event>
12    2  0.3518828E-008  0.1260510E+04  0.7818608E-02  0.9061481E-01
         -2   -1    0    0    0  501 -0.00000000000E+00  0.00000000000E+00  0.21305037724E+03  0.21305037724E+03  0.00000000000E+00 0. -1.
          2   -1    0    0  501    0  0.00000000000E+00 -0.00000000000E+00 -0.18644485854E+04  0.18644485854E+04  0.00000000000E+00 0.  1.
         23    2    1    2    0    0  0.27308402047E+03 -0.10085726523E+03 -0.26182673699E+03  0.40190309821E+03  0.90696140858E+02 0.  0.
        254    2    1    2    0    0 -0.27308402047E+03  0.10085726523E+03 -0.13895714711E+04  0.16755958644E+04  0.88992446712E+03 0.  0.
         23    2    4    4    0    0 -0.11886383258E+02  0.49656207429E+01  0.11261720761E+03  0.14515172923E+03  0.90666672783E+02 0.  0.
         23    2    4    4    0    0 -0.26119763721E+03  0.95891644485E+02 -0.15021886788E+04  0.15304441352E+04  0.90934103100E+02 0.  0.
          1    1    3    3  502    0  0.16932249674E+03 -0.96490953719E+02 -0.20760825547E+03  0.28474866073E+03  0.00000000000E+00 0. -1.
         -1    1    3    3    0  502  0.10376152373E+03 -0.43663115093E+01 -0.54218481527E+02  0.11715443748E+03  0.00000000000E+00 0.  1.
         11    1    5    5    0    0 -0.16087819481E+02 -0.23735712562E+01 -0.12023695383E+02  0.20224268265E+02  0.00000000000E+00 0.  1.
        -11    1    5    5    0    0  0.42014362231E+01  0.73391919991E+01  0.12464090299E+03  0.12492746097E+03  0.00000000000E+00 0. -1.
          2    1    6    6  503    0 -0.18361854937E+03  0.10803152756E+03 -0.11553610855E+04  0.11748386360E+04  0.00000000000E+00 0. -1.
         -2    1    6    6    0  503 -0.77579087836E+02 -0.12139883072E+02 -0.34682759321E+03  0.35560549917E+03  0.00000000000E+00 0.  1.
<mgrwt>
<rscale>  0 0.12605102E+04</rscale>
<asrwt>0</asrwt>
<pdfrwt beam="1">  1        2 0.28683825E+00 0.12605102E+04</pdfrwt>
<pdfrwt beam="2">  1       -2 0.32776980E-01 0.12605102E+04</pdfrwt>
<totfact> 0.67822884E+01</totfact>
</mgrwt>
</event>
<event>
12    2  0.3518828E-008  0.2604077E+04  0.7818608E-02  0.8366817E-01
         -1   -1    0    0    0  501 -0.00000000000E+00  0.00000000000E+00  0.81236857823E+03  0.81236857823E+03  0.00000000000E+00 0.  1.
          1   -1    0    0  501    0  0.00000000000E+00 -0.00000000000E+00 -0.20868666235E+04  0.20868666235E+04  0.00000000000E+00 0. -1.
         23    2    1    2    0    0 -0.94568561548E+03 -0.11032463656E+03 -0.12670807020E+04  0.15875680843E+04  0.91575696668E+02 0.  0.
        254    2    1    2    0    0  0.94568561548E+03  0.11032463656E+03 -0.74173432571E+01  0.13116671174E+04  0.90217670172E+03 0.  0.
         23    2    4    4    0    0  0.47924265913E+03 -0.21642667222E+03  0.34520538977E+03  0.63573513635E+03  0.92078073906E+02 0.  0.
         23    2    4    4    0    0  0.46644295635E+03  0.32675130877E+03 -0.35262273303E+03  0.67593198104E+03  0.90585880973E+02 0.  0.
          1    1    3    3  502    0 -0.34412570211E+03 -0.44966414738E+02 -0.39064890826E+03  0.52254286603E+03  0.00000000000E+00 0. -1.
         -1    1    3    3    0  502 -0.60155991337E+03 -0.65358221820E+02 -0.87643179375E+03  0.10650252183E+04  0.00000000000E+00 0.  1.
         11    1    5    5    0    0  0.10495471816E+02 -0.25429424440E+02  0.14334115576E+02  0.31020596792E+02  0.00000000000E+00 0.  1.
        -11    1    5    5    0    0  0.46874718731E+03 -0.19099724778E+03  0.33087127419E+03  0.60471453956E+03  0.00000000000E+00 0. -1.
          4    1    6    6  503    0  0.27814639541E+03  0.23727165790E+03 -0.25490923641E+03  0.44569269203E+03  0.00000000000E+00 0. -1.
         -4    1    6    6    0  503  0.18829656095E+03  0.89479650875E+02 -0.97713496620E+02  0.23023928902E+03  0.00000000000E+00 0.  1.
<mgrwt>
<rscale>  0 0.26040775E+04</rscale>
<asrwt>0</asrwt>
<pdfrwt beam="1">  1        1 0.32105640E+00 0.26040775E+04</pdfrwt>
<pdfrwt beam="2">  1       -1 0.12497978E+00 0.26040775E+04</pdfrwt>
<totfact> 0.12819953E+00</totfact>
</mgrwt>
</event>
<event>
12    2  0.3518828E-008  0.1724977E+04  0.7818608E-02  0.8747246E-01
         -2   -1    0    0    0  501 -0.00000000000E+00  0.00000000000E+00  0.32175166295E+03  0.32175166295E+03  0.00000000000E+00 0.  1.
          2   -1    0    0  501    0  0.00000000000E+00 -0.00000000000E+00 -0.23119890349E+04  0.23119890349E+04  0.00000000000E+00 0. -1.
         23    2    1    2    0    0 -0.57188699656E+03 -0.32994994105E+02 -0.97007761420E+03  0.11301697814E+04  0.89943041402E+02 0.  0.
        254    2    1    2    0    0  0.57188699656E+03  0.32994994105E+02 -0.10201597577E+04  0.15035709165E+04  0.94438136526E+03 0.  0.
         23    2    4    4    0    0  0.48506251361E+03 -0.30939783074E+03 -0.97518012201E+03  0.11357468775E+04  0.89061998065E+02 0.  0.
         23    2    4    4    0    0  0.86824482943E+02  0.34239282485E+03 -0.44979635722E+02  0.36782403900E+03  0.92195545949E+02 0.  0.
          4    1    3    3  502    0 -0.52722442929E+03 -0.52905949480E+02 -0.90590221323E+03  0.10494872359E+04  0.00000000000E+00 0. -1.
         -4    1    3    3    0  502 -0.44662567271E+02  0.19910955374E+02 -0.64175400973E+02  0.80682545505E+02  0.00000000000E+00 0.  1.
         11    1    5    5    0    0  0.40870131586E+03 -0.23063648546E+03 -0.83386357216E+03  0.95684816507E+03  0.00000000000E+00 0.  1.
        -11    1    5    5    0    0  0.76361197753E+02 -0.78761345278E+02 -0.14131654985E+03  0.17889871238E+03  0.00000000000E+00 0. -1.
          3    1    6    6  503    0  0.73257104956E+02  0.30756881951E+03 -0.95361193189E+01  0.31631648666E+03  0.00000000000E+00 0. -1.
         -3    1    6    6    0  503  0.13567377988E+02  0.34824005335E+02 -0.35443516403E+02  0.51507552339E+02  0.00000000000E+00 0.  1.
<mgrwt>
<rscale>  0 0.17249769E+04</rscale>
<asrwt>0</asrwt>
<pdfrwt beam="1">  1        2 0.35569062E+00 0.17249769E+04</pdfrwt>
<pdfrwt beam="2">  1       -2 0.49500256E-01 0.17249769E+04</pdfrwt>
<totfact> 0.16384758E+01</totfact>
</mgrwt>
</event>
<event>
12    2  0.3518828E-008  0.1601479E+04  0.7818608E-02  0.8819640E-01
         -1   -1    0    0    0  501 -0.00000000000E+00  0.00000000000E+00  0.90381530943E+03  0.90381530943E+03  0.00000000000E+00 0.  1.
          1   -1    0    0  501    0  0.00000000000E+00 -0.00000000000E+00 -0.70941861526E+03  0.70941861526E+03  0.00000000000E+00 0. -1.
         23    2    1    2    0    0 -0.51613333520E+03  0.13157169891E+03  0.18116637736E+03  0.56975507006E+03  0.89971394977E+02 0.  0.
        254    2    1    2    0    0  0.51613333520E+03 -0.13157169891E+03  0.13230316798E+02  0.10434788546E+04  0.89720028260E+03 0.  0.
         23    2    4    4    0    0 -0.15331844043E+03 -0.29830957182E+03  0.10256085487E+02  0.34817438895E+03  0.92871271211E+02 0.  0.
         23    2    4    4    0    0  0.66945177563E+03  0.16673787292E+03  0.29742313119E+01  0.69530446567E+03  0.86442210585E+02 0.  0.
          1    1    3    3  502    0  0.19098620752E+01  0.64244834214E+01  0.52928500929E+01  0.85402472144E+01  0.00000000000E+00 0. -1.
         -1    1    3    3    0  502 -0.51804319728E+03  0.12514721549E+03  0.17587352727E+03  0.56121482285E+03  0.00000000000E+00 0.  1.
         11    1    5    5    0    0 -0.11231532553E+00 -0.54260659445E+02  0.24789775945E+02  0.59655383408E+02  0.00000000000E+00 0. -1.
        -11    1    5    5    0    0 -0.15320612510E+03 -0.24404891238E+03 -0.14533690459E+02  0.28851900554E+03  0.00000000000E+00 0.  1.
          3    1    6    6  503    0  0.89736133535E+02  0.17796436634E+02 -0.28824439397E+02  0.95917334853E+02  0.00000000000E+00 0. -1.
         -3    1    6    6    0  503  0.57971564210E+03  0.14894143628E+03  0.31798670709E+02  0.59938713082E+03  0.00000000000E+00 0.  1.
<mgrwt>
<rscale>  0 0.16014786E+04</rscale>
<asrwt>0</asrwt>
<pdfrwt beam="1">  1        1 0.10914132E+00 0.16014786E+04</pdfrwt>
<pdfrwt beam="2">  1       -1 0.13904851E+00 0.16014786E+04</pdfrwt>
<totfact> 0.10929723E+01</totfact>
</mgrwt>
</event>
<event>
12    2  0.3518828E-008  0.3623672E+04  0.7818608E-02  0.8085091E-01
          2   -1    0    0  501    0  0.00000000000E+00  0.00000000000E+00  0.21497463418E+04  0.21497463418E+04  0.00000000000E+00 0.  1.
         -2   -1    0    0    0  501 -0.00000000000E+00 -0.00000000000E+00 -0.15270405273E+04  0.15270405273E+04  0.00000000000E+00 0. -1.
         23    2    1    2    0    0  0.53369362960E+03 -0.11203788540E+04 -0.88633645618E+03  0.15277991449E+04  0.92196784086E+02 0.  0.
        254    2    1    2    0    0 -0.53369362960E+03  0.11203788540E+04  0.15090422707E+04  0.21489877242E+04  0.89490893248E+03 0.  0.
         23    2    4    4    0    0 -0.59660879541E+03  0.47999009635E+03  0.41343991880E+03  0.87496515086E+03  0.91098306221E+02 0.  0.
         23    2    4    4    0    0  0.62915165810E+02  0.64038875762E+03  0.10956023519E+04  0.12740225734E+04  0.93450120471E+02 0.  0.
          2    1    3    3  502    0  0.41053467479E+03 -0.89768350553E+03 -0.66184302993E+03  0.11884488174E+04  0.00000000000E+00 0. -1.
         -2    1    3    3    0  502  0.12315895481E+03 -0.22269534844E+03 -0.22449342625E+03  0.33935032753E+03  0.00000000000E+00 0.  1.
         11    1    5    5    0    0 -0.68845827608E+02  0.22378468888E+02  0.33048043201E+02  0.79578370229E+02  0.00000000000E+00 0.  1.
        -11    1    5    5    0    0 -0.52776296780E+03  0.45761162746E+03  0.38039187560E+03  0.79538678063E+03  0.00000000000E+00 0. -1.
          4    1    6    6  503    0  0.37272596754E+02  0.77968229655E+02  0.16824435207E+03  0.18914135800E+03  0.00000000000E+00 0.  1.
         -4    1    6    6    0  503  0.25642569056E+02  0.56242052796E+03  0.92735799981E+03  0.10848812154E+04  0.00000000000E+00 0. -1.
<mgrwt>
<rscale>  0 0.36236721E+04</rscale>
<asrwt>0</asrwt>
<pdfrwt beam="1">  1        2 0.33073020E+00 0.36236721E+04</pdfrwt>
<pdfrwt beam="2">  1       -2 0.23492931E+00 0.36236721E+04</pdfrwt>
<totfact> 0.35706198E-01</totfact>
</mgrwt>
</event>
<event>
12    2  0.3518828E-008  0.1536862E+04  0.7818608E-02  0.8860303E-01
         -1   -1    0    0    0  501 -0.00000000000E+00  0.00000000000E+00  0.25562532672E+03  0.25562532672E+03  0.00000000000E+00 0.  1.
          1   -1    0    0  501    0  0.00000000000E+00 -0.00000000000E+00 -0.23099680898E+04  0.23099680898E+04  0.00000000000E+00 0. -1.
         23    2    1    2    0    0  0.24326350685E+03 -0.16177956269E+03 -0.33683606879E+01  0.30652240202E+03  0.92708556330E+02 0.  0.
        254    2    1    2    0    0 -0.24326350685E+03  0.16177956269E+03 -0.20509744024E+04  0.22590710145E+04  0.90086407886E+03 0.  0.
         23    2    4    4    0    0 -0.35579388318E+01  0.44199318783E+03 -0.16340975027E+04  0.16952617547E+04  0.90923768149E+02 0.  0.
         23    2    4    4    0    0 -0.23970556801E+03 -0.28021362514E+03 -0.41687689968E+03  0.56380925977E+03  0.90089382665E+02 0.  0.
          4    1    3    3  502    0  0.96176486261E+02 -0.10638389702E+03 -0.31550404550E+02  0.14684303893E+03  0.00000000000E+00 0. -1.
         -4    1    3    3    0  502  0.14708702058E+03 -0.55395665671E+02  0.28182043863E+02  0.15967936309E+03  0.00000000000E+00 0.  1.
         11    1    5    5    0    0 -0.37467298590E+02  0.14116628330E+03 -0.61809202878E+03  0.63511374890E+03  0.00000000000E+00 0.  1.
        -11    1    5    5    0    0  0.33909359759E+02  0.30082690453E+03 -0.10160054739E+04  0.10601480058E+04  0.00000000000E+00 0. -1.
          3    1    6    6  503    0 -0.21261809187E+03 -0.27011070145E+03 -0.34819759952E+03  0.48929317627E+03  0.00000000000E+00 0. -1.
         -3    1    6    6    0  503 -0.27087476140E+02 -0.10102923690E+02 -0.68679300159E+02  0.74516083506E+02  0.00000000000E+00 0.  1.
<mgrwt>
<rscale>  0 0.15368622E+04</rscale>
<asrwt>0</asrwt>
<pdfrwt beam="1">  1        1 0.35537972E+00 0.15368622E+04</pdfrwt>
<pdfrwt beam="2">  1       -1 0.39326972E-01 0.15368622E+04</pdfrwt>
<totfact> 0.11119184E+01</totfact>
</mgrwt>
</event>
<event>
12    2  0.3518828E-008  0.1710521E+04  0.7818608E-02  0.8755386E-01
          1   -1    0    0  501    0  0.00000000000E+00  0.00000000000E+00  0.26938276277E+04  0.26938276277E+04  0.00000000000E+00 0. -1.
         -1   -1    0    0    0  501 -0.00000000000E+00 -0.00000000000E+00 -0.27153581346E+03  0.27153581346E+03  0.00000000000E+00 0.  1.
         23    2    1    2    0    0  0.51686481658E+03 -0.14449151909E+03  0.54231708480E+03  0.76865368347E+03  0.93239621132E+02 0.  0.
        254    2    1    2    0    0 -0.51686481658E+03  0.14449151909E+03  0.18799747295E+04  0.21967097577E+04  0.10015995899E+04 0.  0.
         23    2    4    4    0    0  0.12838933711E+03  0.17478147488E+03  0.13078704558E+04  0.13289732265E+04  0.92802596420E+02 0.  0.
         23    2    4    4    0    0 -0.64525415368E+03 -0.30289955790E+02  0.57210427373E+03  0.86773653121E+03  0.91613226762E+02 0.  0.
          2    1    3    3  502    0  0.33098372083E+03 -0.84488138144E+02  0.28051129783E+03  0.44201250792E+03  0.00000000000E+00 0.  1.
         -2    1    3    3    0  502  0.18588109574E+03 -0.60003380947E+02  0.26180578696E+03  0.32664117555E+03  0.00000000000E+00 0. -1.
         11    1    5    5    0    0  0.18560989360E+02  0.86916746827E+02  0.36470547152E+03  0.37537862507E+03  0.00000000000E+00 0.  1.
        -11    1    5    5    0    0  0.10982834775E+03  0.87864728054E+02  0.94316498425E+03  0.95359460145E+03  0.00000000000E+00 0. -1.
          4    1    6    6  503    0 -0.37898740766E+03  0.22178785165E+02  0.30533733179E+03  0.48719014754E+03  0.00000000000E+00 0. -1.
         -4    1    6    6    0  503 -0.26626674602E+03 -0.52468740955E+02  0.26676694194E+03  0.38054638367E+03  0.00000000000E+00 0.  1.
<mgrwt>
<rscale>  0 0.17105212E+04</rscale>
<asrwt>0</asrwt>
<pdfrwt beam="1">  1        1 0.41443500E+00 0.17105212E+04</pdfrwt>
<pdfrwt beam="2">  1       -1 0.41774742E-01 0.17105212E+04</pdfrwt>
<totfact> 0.53119164E+00</totfact>
</mgrwt>
</event>
<event>
12    2  0.3518828E-008  0.1322039E+04  0.7818608E-02  0.9012268E-01
         -2   -1    0    0    0  501 -0.00000000000E+00  0.00000000000E+00  0.15115489114E+03  0.15115489114E+03  0.00000000000E+00 0.  1.
          2   -1    0    0  501    0  0.00000000000E+00 -0.00000000000E+00 -0.28907223864E+04  0.28907223864E+04  0.00000000000E+00 0. -1.
         23    2    1    2    0    0 -0.25987097080E+03 -0.23380044963E+03 -0.96576245807E+03  0.10308333911E+04  0.87890745476E+02 0.  0.
        254    2    1    2    0    0  0.25987097080E+03  0.23380044963E+03 -0.17738050372E+04  0.20110438864E+04  0.88074833603E+03 0.  0.
         23    2    4    4    0    0 -0.54661025869E+02  0.39530214691E+03 -0.14982322769E+04  0.15533547621E+04  0.94654351168E+02 0.  0.
         23    2    4    4    0    0  0.31453199667E+03 -0.16150169728E+03 -0.27557276027E+03  0.45768912433E+03  0.92335330023E+02 0.  0.
          1    1    3    3  502    0 -0.12083067295E+03 -0.87591658252E+02 -0.53029273627E+03  0.55089267218E+03  0.00000000000E+00 0. -1.
         -1    1    3    3    0  502 -0.13904029785E+03 -0.14620879138E+03 -0.43546972180E+03  0.47994071895E+03  0.00000000000E+00 0.  1.
         11    1    5    5    0    0 -0.80329005135E+02  0.25129346915E+03 -0.97375550270E+03  0.10088612074E+04  0.00000000000E+00 0. -1.
        -11    1    5    5    0    0  0.25667979266E+02  0.14400867776E+03 -0.52447677421E+03  0.54449355471E+03  0.00000000000E+00 0.  1.
          4    1    6    6  503    0  0.18019410617E+03 -0.12379942557E+03 -0.12264719739E+03  0.25067618295E+03  0.00000000000E+00 0. -1.
         -4    1    6    6    0  503  0.13433789050E+03 -0.37702271715E+02 -0.15292556288E+03  0.20701294138E+03  0.00000000000E+00 0.  1.
<mgrwt>
<rscale>  0 0.13220391E+04</rscale>
<asrwt>0</asrwt>
<pdfrwt beam="1">  1        2 0.44472651E+00 0.13220391E+04</pdfrwt>
<pdfrwt beam="2">  1       -2 0.23254599E-01 0.13220391E+04</pdfrwt>
<totfact> 0.32875374E+01</totfact>
</mgrwt>
</event>
<event>
12    2  0.3518828E-008  0.1678347E+04  0.7818608E-02  0.8773811E-01
         -2   -1    0    0    0  501 -0.00000000000E+00  0.00000000000E+00  0.32359723262E+03  0.32359723262E+03  0.00000000000E+00 0. -1.
          2   -1    0    0  501    0  0.00000000000E+00 -0.00000000000E+00 -0.21761983200E+04  0.21761983200E+04  0.00000000000E+00 0.  1.
         23    2    1    2    0    0 -0.23570116553E+02 -0.37177022724E+03  0.22307678806E+02  0.38359681569E+03  0.88770672048E+02 0.  0.
        254    2    1    2    0    0  0.23570116553E+02  0.37177022724E+03 -0.18749087662E+04  0.21161987369E+04  0.90787970590E+03 0.  0.
         23    2    4    4    0    0 -0.11926671733E+03  0.58737874065E+03 -0.78299234942E+03  0.99033009495E+03  0.91860453358E+02 0.  0.
         23    2    4    4    0    0  0.14283683388E+03 -0.21560851341E+03 -0.10919164168E+04  0.11258686420E+04  0.91702484168E+02 0.  0.
          2    1    3    3  502    0 -0.15440751119E+02 -0.15957199809E+03  0.53404004769E+02  0.16897818526E+03  0.00000000000E+00 0. -1.
         -2    1    3    3    0  502 -0.81293654338E+01 -0.21219822916E+03 -0.31096325963E+02  0.21461863043E+03  0.00000000000E+00 0.  1.
         11    1    5    5    0    0 -0.82114594497E+01  0.26271705063E+03 -0.35724242540E+03  0.44351981609E+03  0.00000000000E+00 0.  1.
        -11    1    5    5    0    0 -0.11105525788E+03  0.32466169002E+03 -0.42574992401E+03  0.54681027886E+03  0.00000000000E+00 0. -1.
          1    1    6    6  503    0  0.11658650699E+03 -0.14754471458E+03 -0.92155347619E+03  0.94054381391E+03  0.00000000000E+00 0. -1.
         -1    1    6    6    0  503  0.26250326893E+02 -0.68063798832E+02 -0.17036294059E+03  0.18532482808E+03  0.00000000000E+00 0.  1.
<mgrwt>
<rscale>  0 0.16783465E+04</rscale>
<asrwt>0</asrwt>
<pdfrwt beam="1">  1        2 0.33479974E+00 0.16783465E+04</pdfrwt>
<pdfrwt beam="2">  1       -2 0.49784190E-01 0.16783465E+04</pdfrwt>
<totfact> 0.19389151E+01</totfact>
</mgrwt>
</event>
<event>
12    2  0.3518828E-008  0.1716585E+04  0.7818608E-02  0.8751961E-01
         -2   -1    0    0    0  501 -0.00000000000E+00  0.00000000000E+00  0.48531837168E+03  0.48531837168E+03  0.00000000000E+00 0. -1.
          2   -1    0    0  501    0  0.00000000000E+00 -0.00000000000E+00 -0.15179029823E+04  0.15179029823E+04  0.00000000000E+00 0.  1.
         23    2    1    2    0    0 -0.39714786277E+03 -0.44474215489E+03 -0.56735779309E+03  0.82801242187E+03  0.90485889272E+02 0.  0.
        254    2    1    2    0    0  0.39714786277E+03  0.44474215489E+03 -0.46522681754E+03  0.11752089321E+04  0.89953211900E+03 0.  0.
         23    2    4    4    0    0  0.51003824411E+02 -0.20989973447E+03  0.83357691506E+02  0.24798524717E+03  0.88819420448E+02 0.  0.
         23    2    4    4    0    0  0.34614403836E+03  0.65464188936E+03 -0.54858450905E+03  0.92722368494E+03  0.10211317125E+03 0.  0.
          4    1    3    3  502    0  0.35752144907E+01 -0.48823300894E-01 -0.52233119830E+00  0.36134986163E+01  0.00000000000E+00 0. -1.
         -4    1    3    3    0  502 -0.40072307726E+03 -0.44469333159E+03 -0.56683546189E+03  0.82439892326E+03  0.00000000000E+00 0.  1.
         11    1    5    5    0    0  0.54579758281E+02 -0.21335724248E+03  0.91471075838E+02  0.23846848985E+03  0.00000000000E+00 0.  1.
        -11    1    5    5    0    0 -0.35759338704E+01  0.34575080164E+01 -0.81133843320E+01  0.95167573284E+01  0.00000000000E+00 0. -1.
          3    1    6    6  503    0  0.12835214819E+02  0.45626884519E+02 -0.97341086815E+01  0.48387066476E+02  0.00000000000E+00 0. -1.
         -3    1    6    6    0  503  0.33330882354E+03  0.60901500484E+03 -0.53885040037E+03  0.87883661846E+03  0.00000000000E+00 0.  1.
<mgrwt>
<rscale>  0 0.17165852E+04</rscale>
<asrwt>0</asrwt>
<pdfrwt beam="1">  1        2 0.23352354E+00 0.17165852E+04</pdfrwt>
<pdfrwt beam="2">  1       -2 0.74664364E-01 0.17165852E+04</pdfrwt>
<totfact> 0.19006582E+01</totfact>
</mgrwt>
</event>
<event>
12    2  0.3518828E-008  0.1233765E+04  0.7818608E-02  0.9083805E-01
         -1   -1    0    0    0  501 -0.00000000000E+00  0.00000000000E+00  0.33617095614E+03  0.33617095614E+03  0.00000000000E+00 0.  1.
          1   -1    0    0  501    0  0.00000000000E+00 -0.00000000000E+00 -0.11319947379E+04  0.11319947379E+04  0.00000000000E+00 0. -1.
         23    2    1    2    0    0 -0.50634512858E+01 -0.15729064485E+03 -0.45971085254E+03  0.49447151533E+03  0.91662566136E+02 0.  0.
        254    2    1    2    0    0  0.50634512858E+01  0.15729064485E+03 -0.33611292918E+03  0.97369417866E+03  0.90019023929E+03 0.  0.
         23    2    4    4    0    0  0.40968023791E+02 -0.31130818192E+03  0.82984118409E+02  0.33732961423E+03  0.91179721588E+02 0.  0.
         23    2    4    4    0    0 -0.35904572505E+02  0.46859882677E+03 -0.41909704758E+03  0.63636456443E+03  0.91888654328E+02 0.  0.
          1    1    3    3  502    0  0.87520152732E+01 -0.15848075167E+03 -0.35526507956E+03  0.38910926894E+03  0.00000000000E+00 0. -1.
         -1    1    3    3    0  502 -0.13815466559E+02  0.11901068152E+01 -0.10444577298E+03  0.10536224639E+03  0.00000000000E+00 0.  1.
         11    1    5    5    0    0  0.27070623288E+02 -0.21757915178E+03  0.10012774988E+03  0.24103749134E+03  0.00000000000E+00 0.  1.
        -11    1    5    5    0    0  0.13897400503E+02 -0.93729030135E+02 -0.17143631476E+02  0.96292122892E+02  0.00000000000E+00 0. -1.
          1    1    6    6  503    0 -0.26692920210E+02  0.11422732479E+03 -0.59952764440E+02  0.13173734354E+03  0.00000000000E+00 0. -1.
         -1    1    6    6    0  503 -0.92116522948E+01  0.35437150198E+03 -0.35914428314E+03  0.50462722089E+03  0.00000000000E+00 0.  1.
<mgrwt>
<rscale>  0 0.12337646E+04</rscale>
<asrwt>0</asrwt>
<pdfrwt beam="1">  1        1 0.17415304E+00 0.12337646E+04</pdfrwt>
<pdfrwt beam="2">  1       -1 0.51718609E-01 0.12337646E+04</pdfrwt>
<totfact> 0.44557336E+01</totfact>
</mgrwt>
</event>
<event>
12    2  0.3518828E-008  0.2076267E+04  0.7818608E-02  0.8571771E-01
          2   -1    0    0  501    0  0.00000000000E+00  0.00000000000E+00  0.27222182822E+04  0.27222182822E+04  0.00000000000E+00 0. -1.
         -2   -1    0    0    0  501 -0.00000000000E+00 -0.00000000000E+00 -0.39589822411E+03  0.39589822411E+03  0.00000000000E+00 0.  1.
         23    2    1    2    0    0 -0.59535345621E+03  0.32934074207E+03  0.16664587966E+04  0.18021096532E+04  0.87196440012E+02 0.  0.
        254    2    1    2    0    0  0.59535345621E+03 -0.32934074207E+03  0.65986126151E+03  0.13160068531E+04  0.91298745384E+03 0.  0.
         23    2    4    4    0    0  0.36173726306E+03 -0.20575318198E+03  0.86767545725E+03  0.96747582398E+03  0.99802562522E+02 0.  0.
         23    2    4    4    0    0  0.23361619315E+03 -0.12358756010E+03 -0.20781419574E+03  0.34853102916E+03  0.91851660980E+02 0.  0.
          4    1    3    3  502    0 -0.27771422312E+03  0.17714376784E+03  0.90659443000E+03  0.96458206738E+03  0.00000000000E+00 0. -1.
         -4    1    3    3    0  502 -0.31763923309E+03  0.15219697424E+03  0.75986436657E+03  0.83752758578E+03  0.00000000000E+00 0.  1.
         11    1    5    5    0    0  0.22714728495E+03 -0.16140723738E+03  0.65617235321E+03  0.71288873076E+03  0.00000000000E+00 0.  1.
        -11    1    5    5    0    0  0.13458997811E+03 -0.44345944595E+02  0.21150310405E+03  0.25458709322E+03  0.00000000000E+00 0. -1.
          4    1    6    6  503    0  0.35644634447E+02  0.96729660206E+01 -0.51025663543E+02  0.62989876778E+02  0.00000000000E+00 0. -1.
         -4    1    6    6    0  503  0.19797155870E+03 -0.13326052612E+03 -0.15678853220E+03  0.28554115238E+03  0.00000000000E+00 0.  1.
<mgrwt>
<rscale>  0 0.20762672E+04</rscale>
<asrwt>0</asrwt>
<pdfrwt beam="1">  1        2 0.41880280E+00 0.20762672E+04</pdfrwt>
<pdfrwt beam="2">  1       -2 0.60907421E-01 0.20762672E+04</pdfrwt>
<totfact> 0.59717361E+00</totfact>
</mgrwt>
</event>
<event>
12    2  0.3518828E-008  0.1447355E+04  0.7818608E-02  0.8920236E-01
          2   -1    0    0  501    0  0.00000000000E+00  0.00000000000E+00  0.55051275242E+03  0.55051275242E+03  0.00000000000E+00 0. -1.
         -2   -1    0    0    0  501 -0.00000000000E+00 -0.00000000000E+00 -0.95131182727E+03  0.95131182727E+03  0.00000000000E+00 0.  1.
         23    2    1    2    0    0  0.19483364321E+02  0.36871167280E+03  0.10515557796E+03  0.39472734168E+03  0.91782784621E+02 0.  0.
        254    2    1    2    0    0 -0.19483364321E+02 -0.36871167280E+03 -0.50595465282E+03  0.11070972380E+04  0.91287802282E+03 0.  0.
         23    2    4    4    0    0  0.75496626748E+02  0.80744542761E+02  0.20765296994E+03  0.25339454769E+03  0.94178654902E+02 0.  0.
         23    2    4    4    0    0 -0.94979991069E+02 -0.44945621556E+03 -0.71360762276E+03  0.85370269031E+03  0.92414045364E+02 0.  0.
          4    1    3    3  502    0  0.52639168169E+02  0.28915807850E+03  0.88509563900E+02  0.30694823552E+03  0.00000000000E+00 0. -1.
         -4    1    3    3    0  502 -0.33155803848E+02  0.79553594293E+02  0.16646014064E+02  0.87779106158E+02  0.00000000000E+00 0.  1.
         11    1    5    5    0    0  0.98051481486E+02  0.67130471175E+02  0.16748465497E+03  0.20535750007E+03  0.00000000000E+00 0. -1.
        -11    1    5    5    0    0 -0.22554854738E+02  0.13614071587E+02  0.40168314969E+02  0.48037047629E+02  0.00000000000E+00 0.  1.
          2    1    6    6  503    0 -0.10915758421E+03 -0.34042240840E+03 -0.51958598941E+03  0.63069199672E+03  0.00000000000E+00 0. -1.
         -2    1    6    6    0  503  0.14177593144E+02 -0.10903380716E+03 -0.19402163334E+03  0.22301069359E+03  0.00000000000E+00 0.  1.
<mgrwt>
<rscale>  0 0.14473552E+04</rscale>
<asrwt>0</asrwt>
<pdfrwt beam="1">  1        2 0.84694271E-01 0.14473552E+04</pdfrwt>
<pdfrwt beam="2">  1       -2 0.14635566E+00 0.14473552E+04</pdfrwt>
<totfact> 0.17042328E+01</totfact>
</mgrwt>
</event>
<event>
12    2  0.3518828E-008  0.1918222E+04  0.7818608E-02  0.8645839E-01
          1   -1    0    0  501    0  0.00000000000E+00  0.00000000000E+00  0.11623227771E+04  0.11623227771E+04  0.00000000000E+00 0. -1.
         -1   -1    0    0    0  501 -0.00000000000E+00 -0.00000000000E+00 -0.79142694948E+03  0.79142694948E+03  0.00000000000E+00 0.  1.
         23    2    1    2    0    0  0.48179441622E+03  0.50593764573E+03 -0.10746745273E+03  0.71296472057E+03  0.93116478247E+02 0.  0.
        254    2    1    2    0    0 -0.48179441622E+03 -0.50593764573E+03  0.47836328032E+03  0.12407850060E+04  0.90698249279E+03 0.  0.
         23    2    4    4    0    0 -0.17872407174E+03  0.20700439732E+03 -0.57048635777E+02  0.29447817148E+03  0.93111397295E+02 0.  0.
         23    2    4    4    0    0 -0.30307034448E+03 -0.71294204304E+03  0.53541191610E+03  0.94630683450E+03  0.93234728907E+02 0.  0.
          2    1    3    3  502    0  0.38861262335E+02  0.62938912533E+02 -0.36573941997E+02  0.82517620266E+02  0.00000000000E+00 0. -1.
         -2    1    3    3    0  502  0.44293315388E+03  0.44299873319E+03 -0.70893510729E+02  0.63044710030E+03  0.00000000000E+00 0.  1.
         11    1    5    5    0    0 -0.17833194515E+03  0.20761083458E+03 -0.69204470889E+02  0.28230090345E+03  0.00000000000E+00 0. -1.
        -11    1    5    5    0    0 -0.39212659043E+00 -0.60643726725E+00  0.12155835112E+02  0.12177268030E+02  0.00000000000E+00 0.  1.
          1    1    6    6  503    0 -0.92683314976E+02 -0.33609919405E+03  0.23461176720E+03  0.42023272888E+03  0.00000000000E+00 0. -1.
         -1    1    6    6    0  503 -0.21038702950E+03 -0.37684284900E+03  0.30080014890E+03  0.52607410562E+03  0.00000000000E+00 0.  1.
<mgrwt>
<rscale>  0 0.19182216E+04</rscale>
<asrwt>0</asrwt>
<pdfrwt beam="1">  1        1 0.17881889E+00 0.19182216E+04</pdfrwt>
<pdfrwt beam="2">  1       -1 0.12175799E+00 0.19182216E+04</pdfrwt>
<totfact> 0.63563720E+00</totfact>
</mgrwt>
</event>
<event>
12    2  0.3518828E-008  0.2151857E+04  0.7818608E-02  0.8538738E-01
         -2   -1    0    0    0  501 -0.00000000000E+00  0.00000000000E+00  0.16443230413E+04  0.16443230413E+04  0.00000000000E+00 0.  1.
          2   -1    0    0  501    0  0.00000000000E+00 -0.00000000000E+00 -0.70401144217E+03  0.70401144217E+03  0.00000000000E+00 0. -1.
         23    2    1    2    0    0 -0.61256142017E+03 -0.61377032470E+03  0.18927130866E+03  0.89232154893E+03  0.92025069661E+02 0.  0.
        254    2    1    2    0    0  0.61256142017E+03  0.61377032470E+03  0.75104029047E+03  0.14560129345E+04  0.89664186981E+03 0.  0.
         23    2    4    4    0    0  0.55186352189E+03  0.66738042307E+03  0.20242155407E+03  0.89406386990E+03  0.91791840673E+02 0.  0.
         23    2    4    4    0    0  0.60697898280E+02 -0.53610098376E+02  0.54861873639E+03  0.56194906464E+03  0.90807245452E+02 0.  0.
          2    1    3    3  502    0 -0.60777980527E+03 -0.59912687458E+03  0.17472824976E+03  0.87113676584E+03  0.00000000000E+00 0. -1.
         -2    1    3    3    0  502 -0.47816148997E+01 -0.14643450114E+02  0.14543058899E+02  0.21184783086E+02  0.00000000000E+00 0.  1.
         11    1    5    5    0    0  0.51183997101E+03  0.64769030140E+03  0.19995535424E+03  0.84939097366E+03  0.00000000000E+00 0. -1.
        -11    1    5    5    0    0  0.40023550881E+02  0.19690121671E+02  0.24661998340E+01  0.44672896237E+02  0.00000000000E+00 0.  1.
          3    1    6    6  503    0  0.61834848874E+02 -0.11508532443E+02  0.45456750835E+03  0.45889826160E+03  0.00000000000E+00 0. -1.
         -3    1    6    6    0  503 -0.11369505936E+01 -0.42101565934E+02  0.94051228049E+02  0.10305080305E+03  0.00000000000E+00 0.  1.
<mgrwt>
<rscale>  0 0.21518571E+04</rscale>
<asrwt>0</asrwt>
<pdfrwt beam="1">  1        2 0.10830945E+00 0.21518571E+04</pdfrwt>
<pdfrwt beam="2">  1       -2 0.25297278E+00 0.21518571E+04</pdfrwt>
<totfact> 0.22994443E+00</totfact>
</mgrwt>
</event>
<event>
12    2  0.3518828E-008  0.1898330E+04  0.7818608E-02  0.8655688E-01
         -1   -1    0    0    0  501 -0.00000000000E+00  0.00000000000E+00  0.19953101710E+04  0.19953101710E+04  0.00000000000E+00 0.  1.
          1   -1    0    0  501    0  0.00000000000E+00 -0.00000000000E+00 -0.45151604680E+03  0.45151604680E+03  0.00000000000E+00 0. -1.
         23    2    1    2    0    0  0.52944680401E+03  0.22053793363E+03  0.13966300825E+02  0.58106669372E+03  0.92155013696E+02 0.  0.
        254    2    1    2    0    0 -0.52944680401E+03 -0.22053793363E+03  0.15298278234E+04  0.18657595241E+04  0.90096311473E+03 0.  0.
         23    2    4    4    0    0 -0.47851605422E+03 -0.65726518040E+01  0.22098224098E+03  0.53550926374E+03  0.94425668251E+02 0.  0.
         23    2    4    4    0    0 -0.50930749789E+02 -0.21396528183E+03  0.13088455824E+04  0.13302502604E+04  0.90077263965E+02 0.  0.
          2    1    3    3  502    0  0.50180621462E+03  0.22174051500E+03 -0.29790288588E+01  0.54862301048E+03  0.00000000000E+00 0. -1.
         -2    1    3    3    0  502  0.27640589392E+02 -0.12025813702E+01  0.16945329684E+02  0.32443683237E+02  0.00000000000E+00 0.  1.
         11    1    5    5    0    0 -0.47558650097E+03  0.33982634410E+01  0.20857364271E+03  0.51932362986E+03  0.00000000000E+00 0. -1.
        -11    1    5    5    0    0 -0.29295532518E+01 -0.99709152450E+01  0.12408598269E+02  0.16185633880E+02  0.00000000000E+00 0.  1.
          4    1    6    6  503    0 -0.16895813512E+02 -0.17597466984E+03  0.82528693427E+03  0.84400893172E+03  0.00000000000E+00 0. -1.
         -4    1    6    6    0  503 -0.34034936277E+02 -0.37990611982E+02  0.48355864815E+03  0.48624132865E+03  0.00000000000E+00 0.  1.
<mgrwt>
<rscale>  0 0.18983304E+04</rscale>
<asrwt>0</asrwt>
<pdfrwt beam="1">  1        1 0.69464009E-01 0.18983304E+04</pdfrwt>
<pdfrwt beam="2">  1       -1 0.30697079E+00 0.18983304E+04</pdfrwt>
<totfact> 0.14207275E+00</totfact>
</mgrwt>
</event>
<event>
12    2  0.3518828E-008  0.1263535E+04  0.7818608E-02  0.9058993E-01
         -1   -1    0    0    0  501 -0.00000000000E+00  0.00000000000E+00  0.16446863739E+03  0.16446863739E+03  0.00000000000E+00 0.  1.
          1   -1    0    0  501    0  0.00000000000E+00 -0.00000000000E+00 -0.24267844377E+04  0.24267844377E+04  0.00000000000E+00 0. -1.
         23    2    1    2    0    0  0.13878764046E+03 -0.16220285821E+03 -0.96464890378E+03  0.99595781543E+03  0.12574850371E+03 0.  0.
        254    2    1    2    0    0 -0.13878764046E+03  0.16220285821E+03 -0.12976668965E+04  0.15952952596E+04  0.90302592143E+03 0.  0.
         23    2    4    4    0    0 -0.50337140705E+03  0.14286103385E+03 -0.91701898023E+03  0.10600552583E+04  0.94875139910E+02 0.  0.
         23    2    4    4    0    0  0.36458376659E+03  0.19341824356E+02 -0.38064791629E+03  0.53524000132E+03  0.91069170469E+02 0.  0.
          4    1    3    3  502    0  0.23541232527E+02 -0.54642790251E+02 -0.53506305880E+03  0.53836093938E+03  0.00000000000E+00 0. -1.
         -4    1    3    3    0  502  0.11524640794E+03 -0.10756006795E+03 -0.42958584498E+03  0.45759687605E+03  0.00000000000E+00 0.  1.
         11    1    5    5    0    0 -0.27223398498E+03  0.43484804415E+02 -0.54786232928E+03  0.61331509246E+03  0.00000000000E+00 0.  1.
        -11    1    5    5    0    0 -0.23113742207E+03  0.99376229435E+02 -0.36915665095E+03  0.44674016587E+03  0.00000000000E+00 0. -1.
          1    1    6    6  503    0  0.30405949579E+03  0.98862202985E+01 -0.35830430145E+03  0.47003392087E+03  0.00000000000E+00 0. -1.
         -1    1    6    6    0  503  0.60524270801E+02  0.94556040573E+01 -0.22343614844E+02  0.65206080455E+02  0.00000000000E+00 0.  1.
<mgrwt>
<rscale>  0 0.12635346E+04</rscale>
<asrwt>0</asrwt>
<pdfrwt beam="1">  1        1 0.37335144E+00 0.12635346E+04</pdfrwt>
<pdfrwt beam="2">  1       -1 0.25302868E-01 0.12635346E+04</pdfrwt>
<totfact> 0.20671956E+01</totfact>
</mgrwt>
</event>
<event>
12    2  0.3518828E-008  0.2868132E+04  0.7818608E-02  0.8282423E-01
         -2   -1    0    0    0  501 -0.00000000000E+00  0.00000000000E+00  0.15632397255E+04  0.15632397255E+04  0.00000000000E+00 0. -1.
          2   -1    0    0  501    0  0.00000000000E+00 -0.00000000000E+00 -0.13155661515E+04  0.13155661515E+04  0.00000000000E+00 0.  1.
         23    2    1    2    0    0  0.12215044249E+04 -0.42194962358E+03  0.92215855867E+02  0.12988520729E+04  0.91642775384E+02 0.  0.
        254    2    1    2    0    0 -0.12215044249E+04  0.42194962358E+03  0.15545771813E+03  0.15799538041E+04  0.89552910387E+03 0.  0.
         23    2    4    4    0    0 -0.33010868713E+03 -0.16415678068E+03  0.31991077568E+03  0.49659077903E+03  0.91325261905E+02 0.  0.
         23    2    4    4    0    0 -0.89139573780E+03  0.58610640425E+03 -0.16445305754E+03  0.10833630250E+04  0.92323114120E+02 0.  0.
          4    1    3    3  502    0  0.66318756237E+03 -0.24566800499E+03  0.74804562481E+01  0.70726690067E+03  0.00000000000E+00 0. -1.
         -4    1    3    3    0  502  0.55831686257E+03 -0.17628161859E+03  0.84735399619E+02  0.59158517225E+03  0.00000000000E+00 0.  1.
         11    1    5    5    0    0 -0.14961993870E+03 -0.41487299307E+02  0.89395472612E+02  0.17916158233E+03  0.00000000000E+00 0.  1.
        -11    1    5    5    0    0 -0.18048874844E+03 -0.12266948137E+03  0.23051530306E+03  0.31742919670E+03  0.00000000000E+00 0. -1.
          4    1    6    6  503    0 -0.12874711595E+03  0.10870841639E+03 -0.53554324552E+02  0.17680895152E+03  0.00000000000E+00 0.  1.
         -4    1    6    6    0  503 -0.76264862185E+03  0.47739798787E+03 -0.11089873299E+03  0.90655407352E+03  0.00000000000E+00 0. -1.
<mgrwt>
<rscale>  0 0.28681320E+04</rscale>
<asrwt>0</asrwt>
<pdfrwt beam="1">  1        2 0.20239479E+00 0.28681320E+04</pdfrwt>
<pdfrwt beam="2">  1       -2 0.24049842E+00 0.28681320E+04</pdfrwt>
<totfact> 0.10303960E+00</totfact>
</mgrwt>
</event>
<event>
12    2  0.3518828E-008  0.1750727E+04  0.7818608E-02  0.8732950E-01
          2   -1    0    0  501    0  0.00000000000E+00  0.00000000000E+00  0.34483387738E+04  0.34483387738E+04  0.00000000000E+00 0. -1.
         -2   -1    0    0    0  501 -0.00000000000E+00 -0.00000000000E+00 -0.22221171403E+03  0.22221171403E+03  0.00000000000E+00 0.  1.
         23    2    1    2    0    0  0.90369297434E+02  0.61719981779E+03  0.14266333062E+04  0.15598660080E+04  0.93793110164E+02 0.  0.
        254    2    1    2    0    0 -0.90369297434E+02 -0.61719981779E+03  0.17994937536E+04  0.21106844798E+04  0.90978512809E+03 0.  0.
         23    2    4    4    0    0  0.25200525432E+03 -0.22225644654E+03  0.14097704361E+04  0.14523395401E+04  0.94513919829E+02 0.  0.
         23    2    4    4    0    0 -0.34237455176E+03 -0.39494337125E+03  0.38972331744E+03  0.65834493969E+03  0.91286336768E+02 0.  0.
          1    1    3    3  502    0  0.61704791173E+02  0.49166796717E+03  0.12146773372E+04  0.13118635236E+04  0.00000000000E+00 0. -1.
         -1    1    3    3    0  502  0.28664506261E+02  0.12553185062E+03  0.21195596900E+03  0.24800248433E+03  0.00000000000E+00 0.  1.
         11    1    5    5    0    0  0.38836436178E+02 -0.80179362368E+02  0.27748594133E+03  0.29143686548E+03  0.00000000000E+00 0. -1.
        -11    1    5    5    0    0  0.21316881814E+03 -0.14207708417E+03  0.11322844948E+04  0.11609026747E+04  0.00000000000E+00 0.  1.
          2    1    6    6  503    0 -0.16001755509E+03 -0.14499792622E+03  0.11536650991E+03  0.24482534214E+03  0.00000000000E+00 0. -1.
         -2    1    6    6    0  503 -0.18235699667E+03 -0.24994544503E+03  0.27435680753E+03  0.41351959755E+03  0.00000000000E+00 0.  1.
<mgrwt>
<rscale>  0 0.17507270E+04</rscale>
<asrwt>0</asrwt>
<pdfrwt beam="1">  1        2 0.53051362E+00 0.17507270E+04</pdfrwt>
<pdfrwt beam="2">  1       -2 0.34186420E-01 0.17507270E+04</pdfrwt>
<totfact> 0.67644247E+00</totfact>
</mgrwt>
</event>
<event>
12    2  0.3518828E-008  0.1342057E+04  0.7818608E-02  0.8996863E-01
         -1   -1    0    0    0  501 -0.00000000000E+00  0.00000000000E+00  0.25514122189E+03  0.25514122189E+03  0.00000000000E+00 0.  1.
          1   -1    0    0  501    0  0.00000000000E+00 -0.00000000000E+00 -0.17648236530E+04  0.17648236530E+04  0.00000000000E+00 0. -1.
         23    2    1    2    0    0  0.37742272860E+02  0.16613511900E+03  0.62998345874E+02  0.20272811778E+03  0.90025225528E+02 0.  0.
        254    2    1    2    0    0 -0.37742272860E+02 -0.16613511900E+03 -0.15726807770E+04  0.18172367571E+04  0.89442677070E+03 0.  0.
         23    2    4    4    0    0  0.54668814961E+02 -0.32947485920E+03 -0.15700159768E+04  0.16075734760E+04  0.88317333734E+02 0.  0.
         23    2    4    4    0    0 -0.92411087821E+02  0.16333974020E+03 -0.26648002764E+01  0.20966328110E+03  0.93444691672E+02 0.  0.
          2    1    3    3  502    0  0.16205925836E+02  0.10403789305E+02 -0.17573104139E+02  0.26070766256E+02  0.00000000000E+00 0. -1.
         -2    1    3    3    0  502  0.21536347024E+02  0.15573132970E+03  0.80571450012E+02  0.17665735153E+03  0.00000000000E+00 0.  1.
         11    1    5    5    0    0  0.47355691414E+02 -0.15705862694E+03 -0.94679704324E+03  0.96090302055E+03  0.00000000000E+00 0. -1.
        -11    1    5    5    0    0  0.73131235477E+01 -0.17241623225E+03 -0.62321893351E+03  0.64667045549E+03  0.00000000000E+00 0.  1.
          3    1    6    6  503    0 -0.37034752929E+02  0.64053947990E+02  0.44769061417E+02  0.86479766638E+02  0.00000000000E+00 0. -1.
         -3    1    6    6    0  503 -0.55376334893E+02  0.99285792207E+02 -0.47433861693E+02  0.12318351446E+03  0.00000000000E+00 0.  1.
<mgrwt>
<rscale>  0 0.13420570E+04</rscale>
<asrwt>0</asrwt>
<pdfrwt beam="1">  1        1 0.27151134E+00 0.13420570E+04</pdfrwt>
<pdfrwt beam="2">  1       -1 0.39252494E-01 0.13420570E+04</pdfrwt>
<totfact> 0.26591788E+01</totfact>
</mgrwt>
</event>
<event>
12    2  0.3518828E-008  0.2541961E+04  0.7818608E-02  0.8388187E-01
          1   -1    0    0  501    0  0.00000000000E+00  0.00000000000E+00  0.12627320565E+04  0.12627320565E+04  0.00000000000E+00 0. -1.
         -1   -1    0    0    0  501 -0.00000000000E+00 -0.00000000000E+00 -0.12792825192E+04  0.12792825192E+04  0.00000000000E+00 0.  1.
         23    2    1    2    0    0 -0.23884118771E+03  0.22244484275E+03 -0.10695354009E+04  0.11223833674E+04  0.96496780091E+02 0.  0.
        254    2    1    2    0    0  0.23884118771E+03 -0.22244484275E+03  0.10529849382E+04  0.14196312083E+04  0.89445439591E+03 0.  0.
         23    2    4    4    0    0  0.11944406272E+03 -0.36027008037E+03  0.47092100360E+02  0.39326869730E+03  0.91548825393E+02 0.  0.
         23    2    4    4    0    0  0.11939712499E+03  0.13782523762E+03  0.10058928379E+04  0.10263625110E+04  0.91368118517E+02 0.  0.
          4    1    3    3  502    0 -0.24498549331E+02 -0.68290041547E+01 -0.10643760631E+03  0.10943389901E+03  0.00000000000E+00 0. -1.
         -4    1    3    3    0  502 -0.21434263838E+03  0.22927384691E+03 -0.96309779462E+03  0.10129494684E+04  0.00000000000E+00 0.  1.
         11    1    5    5    0    0  0.11891413569E+03 -0.35896682472E+03  0.57735659491E+02  0.38253255978E+03  0.00000000000E+00 0.  1.
        -11    1    5    5    0    0  0.52992702664E+00 -0.13032556574E+01 -0.10643559131E+02  0.10736137524E+02  0.00000000000E+00 0. -1.
          1    1    6    6  503    0 -0.12699535243E+02  0.68159795644E+01  0.35831054913E+02  0.38621241164E+02  0.00000000000E+00 0. -1.
         -1    1    6    6    0  503  0.13209666024E+03  0.13100925806E+03  0.97006178294E+03  0.98774126980E+03  0.00000000000E+00 0.  1.
<mgrwt>
<rscale>  0 0.25419607E+04</rscale>
<asrwt>0</asrwt>
<pdfrwt beam="1">  1        1 0.19426647E+00 0.25419607E+04</pdfrwt>
<pdfrwt beam="2">  1       -1 0.19681270E+00 0.25419607E+04</pdfrwt>
<totfact> 0.13486082E+00</totfact>
</mgrwt>
</event>
<event>
12    2  0.3518828E-008  0.1141253E+04  0.7818608E-02  0.9165892E-01
         -2   -1    0    0    0  501 -0.00000000000E+00  0.00000000000E+00  0.22398974652E+03  0.22398974652E+03  0.00000000000E+00 0. -1.
          2   -1    0    0  501    0  0.00000000000E+00 -0.00000000000E+00 -0.14537020997E+04  0.14537020997E+04  0.00000000000E+00 0.  1.
         23    2    1    2    0    0 -0.13593041801E+03  0.14039750839E+03 -0.27604428890E+03  0.35021404091E+03  0.90889416939E+02 0.  0.
        254    2    1    2    0    0  0.13593041801E+03 -0.14039750839E+03 -0.95366806432E+03  0.13274778054E+04  0.90251094614E+03 0.  0.
         23    2    4    4    0    0  0.20388179850E+03  0.31870296069E+03 -0.67659358869E+03  0.78058493260E+03  0.91621983304E+02 0.  0.
         23    2    4    4    0    0 -0.67951380489E+02 -0.45910046908E+03 -0.27707447563E+03  0.54689287276E+03  0.83252137578E+02 0.  0.
          2    1    3    3  502    0 -0.14511970321E+03  0.14499413299E+03 -0.26509060691E+03  0.33519554999E+03  0.00000000000E+00 0.  1.
         -2    1    3    3    0  502  0.91892851969E+01 -0.45966246082E+01 -0.10953681993E+02  0.15018490917E+02  0.00000000000E+00 0. -1.
         11    1    5    5    0    0  0.21144937221E+02 -0.13453611765E-01 -0.26961763129E+02  0.34264343305E+02  0.00000000000E+00 0.  1.
        -11    1    5    5    0    0  0.18273686128E+03  0.31871641430E+03 -0.64963182556E+03  0.74632058929E+03  0.00000000000E+00 0. -1.
          4    1    6    6  503    0 -0.66495940153E+02 -0.46062173580E+03 -0.28011627158E+03  0.54319353747E+03  0.00000000000E+00 0. -1.
         -4    1    6    6    0  503 -0.14554403362E+01  0.15212667188E+01  0.30417959480E+01  0.36993352904E+01  0.00000000000E+00 0.  1.
<mgrwt>
<rscale>  0 0.11412526E+04</rscale>
<asrwt>0</asrwt>
<pdfrwt beam="1">  1        2 0.22364649E+00 0.11412526E+04</pdfrwt>
<pdfrwt beam="2">  1       -2 0.34459960E-01 0.11412526E+04</pdfrwt>
<totfact> 0.10532207E+02</totfact>
</mgrwt>
</event>
<event>
12    2  0.3518828E-008  0.1332797E+04  0.7818608E-02  0.9003953E-01
          2   -1    0    0  501    0  0.00000000000E+00  0.00000000000E+00  0.10141565806E+04  0.10141565806E+04  0.00000000000E+00 0.  1.
         -2   -1    0    0    0  501 -0.00000000000E+00 -0.00000000000E+00 -0.43788824253E+03  0.43788824253E+03  0.00000000000E+00 0. -1.
         23    2    1    2    0    0 -0.60157092480E+01 -0.15981853980E+03 -0.16476698396E+03  0.24572392729E+03  0.87486770552E+02 0.  0.
        254    2    1    2    0    0  0.60157092480E+01  0.15981853980E+03  0.74103532206E+03  0.12063208959E+04  0.93834886948E+03 0.  0.
         23    2    4    4    0    0  0.15819164509E+03  0.38886517025E+03  0.80266019849E+03  0.91042102329E+03  0.91445766474E+02 0.  0.
         23    2    4    4    0    0 -0.15217593584E+03 -0.22904663045E+03 -0.61624876429E+02  0.29589987258E+03  0.90217707948E+02 0.  0.
          3    1    3    3  502    0 -0.22687966281E+02 -0.38252087991E+02 -0.94210042598E+02  0.10418012371E+03  0.00000000000E+00 0. -1.
         -3    1    3    3    0  502  0.16672257033E+02 -0.12156645181E+03 -0.70556941358E+02  0.14154380358E+03  0.00000000000E+00 0.  1.
         11    1    5    5    0    0  0.90515976109E+01  0.99621093240E+02  0.13883635500E+03  0.17111933586E+03  0.00000000000E+00 0. -1.
        -11    1    5    5    0    0  0.14914004748E+03  0.28924407701E+03  0.66382384349E+03  0.73930168743E+03  0.00000000000E+00 0.  1.
          1    1    6    6  503    0 -0.12592455136E+03 -0.22450647789E+03 -0.37822187832E+02  0.26017430531E+03  0.00000000000E+00 0. -1.
         -1    1    6    6    0  503 -0.26251384476E+02 -0.45401525594E+01 -0.23802688597E+02  0.35725567268E+02  0.00000000000E+00 0.  1.
<mgrwt>
<rscale>  0 0.13327974E+04</rscale>
<asrwt>0</asrwt>
<pdfrwt beam="1">  1        2 0.15602409E+00 0.13327974E+04</pdfrwt>
<pdfrwt beam="2">  1       -2 0.67367422E-01 0.13327974E+04</pdfrwt>
<totfact> 0.48757585E+01</totfact>
</mgrwt>
</event>
<event>
12    2  0.3518828E-008  0.1912367E+04  0.7818608E-02  0.8648725E-01
          2   -1    0    0  501    0  0.00000000000E+00  0.00000000000E+00  0.93312256487E+03  0.93312256487E+03  0.00000000000E+00 0. -1.
         -2   -1    0    0    0  501 -0.00000000000E+00 -0.00000000000E+00 -0.97981420749E+03  0.97981420749E+03  0.00000000000E+00 0.  1.
         23    2    1    2    0    0 -0.36230271993E+03  0.10252982946E+03  0.60631504834E+03  0.71919571683E+03  0.88594099491E+02 0.  0.
        254    2    1    2    0    0  0.36230271993E+03 -0.10252982946E+03 -0.65300669096E+03  0.11937410555E+04  0.92564806618E+03 0.  0.
         23    2    4    4    0    0 -0.24729652749E+03  0.11339305658E+03 -0.40150276881E+03  0.49369021253E+03  0.92260472548E+02 0.  0.
         23    2    4    4    0    0  0.60959924742E+03 -0.21592288604E+03 -0.25150392215E+03  0.70005084300E+03  0.92644615407E+02 0.  0.
          4    1    3    3  502    0 -0.23652440543E+03  0.10842927872E+03  0.38787869439E+03  0.46706593155E+03  0.00000000000E+00 0. -1.
         -4    1    3    3    0  502 -0.12577831450E+03 -0.58994492684E+01  0.21843635395E+03  0.25212978528E+03  0.00000000000E+00 0.  1.
         11    1    5    5    0    0 -0.20341780619E+03  0.54240763479E+02 -0.26358790581E+03  0.33734173829E+03  0.00000000000E+00 0. -1.
        -11    1    5    5    0    0 -0.43878721291E+02  0.59152293101E+02 -0.13791486300E+03  0.15634847424E+03  0.00000000000E+00 0.  1.
          3    1    6    6  503    0  0.50779623177E+03 -0.16989271559E+03 -0.24294142767E+03  0.58799752133E+03  0.00000000000E+00 0. -1.
         -3    1    6    6    0  503  0.10180301565E+03 -0.46030170449E+02 -0.85624944826E+01  0.11205332168E+03  0.00000000000E+00 0.  1.
<mgrwt>
<rscale>  0 0.19123669E+04</rscale>
<asrwt>0</asrwt>
<pdfrwt beam="1">  1        2 0.14355732E+00 0.19123669E+04</pdfrwt>
<pdfrwt beam="2">  1       -2 0.15074065E+00 0.19123669E+04</pdfrwt>
<totfact> 0.77064986E+00</totfact>
</mgrwt>
</event>
<event>
12    2  0.3518828E-008  0.1548286E+04  0.7818608E-02  0.8852963E-01
          2   -1    0    0  501    0  0.00000000000E+00  0.00000000000E+00  0.90165165115E+03  0.90165165115E+03  0.00000000000E+00 0. -1.
         -2   -1    0    0    0  501 -0.00000000000E+00 -0.00000000000E+00 -0.66466649874E+03  0.66466649874E+03  0.00000000000E+00 0.  1.
         23    2    1    2    0    0  0.46256268045E+03 -0.90409436344E+02  0.23689315755E+03  0.53537991897E+03  0.91516064287E+02 0.  0.
        254    2    1    2    0    0 -0.46256268045E+03  0.90409436344E+02  0.91994861458E-01  0.10309382309E+04  0.91689450210E+03 0.  0.
         23    2    4    4    0    0 -0.14919619214E+02  0.18156781462E+03 -0.37872870963E+03  0.42980144810E+03  0.90024346408E+02 0.  0.
         23    2    4    4    0    0 -0.44764306123E+03 -0.91158378272E+02  0.37882070449E+03  0.60113678282E+03  0.95739988020E+02 0.  0.
          3    1    3    3  502    0  0.45176458548E+03 -0.84395896826E+02  0.24479558375E+03  0.52070988652E+03  0.00000000000E+00 0. -1.
         -3    1    3    3    0  502  0.10798094968E+02 -0.60135395185E+01 -0.79024261963E+01  0.14670032456E+02  0.00000000000E+00 0.  1.
         11    1    5    5    0    0  0.37072514551E+02  0.69182738236E+02 -0.12771048115E+03  0.14990193328E+03  0.00000000000E+00 0. -1.
        -11    1    5    5    0    0 -0.51992133765E+02  0.11238507638E+03 -0.25101822848E+03  0.27989951482E+03  0.00000000000E+00 0.  1.
          3    1    6    6  503    0 -0.44988649032E+03 -0.97236778556E+02  0.37371666362E+03  0.59288868260E+03  0.00000000000E+00 0. -1.
         -3    1    6    6    0  503  0.22434290905E+01  0.60784002844E+01  0.51040408667E+01  0.82481002219E+01  0.00000000000E+00 0.  1.
<mgrwt>
<rscale>  0 0.15482863E+04</rscale>
<asrwt>0</asrwt>
<pdfrwt beam="1">  1        2 0.13871564E+00 0.15482863E+04</pdfrwt>
<pdfrwt beam="2">  1       -2 0.10225638E+00 0.15482863E+04</pdfrwt>
<totfact> 0.22056189E+01</totfact>
</mgrwt>
</event>
<event>
12    2  0.3518828E-008  0.2137640E+04  0.7818608E-02  0.8544842E-01
          2   -1    0    0  501    0  0.00000000000E+00  0.00000000000E+00  0.20299791814E+04  0.20299791814E+04  0.00000000000E+00 0. -1.
         -2   -1    0    0    0  501 -0.00000000000E+00 -0.00000000000E+00 -0.56275255274E+03  0.56275255274E+03  0.00000000000E+00 0.  1.
         23    2    1    2    0    0 -0.80500096068E+01  0.76451056139E+03  0.11684462639E+04  0.13992905704E+04  0.90588231916E+02 0.  0.
        254    2    1    2    0    0  0.80500096068E+01 -0.76451056139E+03  0.29878036479E+03  0.11934411637E+04  0.86630878082E+03 0.  0.
         23    2    4    4    0    0  0.42436472745E+03 -0.39678884732E+03  0.20871718680E+03  0.62408928908E+03  0.91639322491E+02 0.  0.
         23    2    4    4    0    0 -0.41631471784E+03 -0.36772171407E+03  0.90063177989E+02  0.56935187463E+03  0.86677435496E+02 0.  0.
          1    1    3    3  502    0 -0.28707424276E+02  0.65388265303E+03  0.95126084548E+03  0.11546791053E+04  0.00000000000E+00 0. -1.
         -1    1    3    3    0  502  0.20657414669E+02  0.11062790836E+03  0.21718541837E+03  0.24461146507E+03  0.00000000000E+00 0.  1.
         11    1    5    5    0    0  0.15377867129E+03 -0.94075334739E+02  0.41524090047E+02  0.18499269824E+03  0.00000000000E+00 0.  1.
        -11    1    5    5    0    0  0.27058605616E+03 -0.30271351258E+03  0.16719309675E+03  0.43909659084E+03  0.00000000000E+00 0. -1.
          4    1    6    6  503    0 -0.16572677514E+03 -0.16318257716E+03 -0.35620433309E+01  0.23260826650E+03  0.00000000000E+00 0. -1.
         -4    1    6    6    0  503 -0.25058794270E+03 -0.20453913691E+03  0.93625221320E+02  0.33674360814E+03  0.00000000000E+00 0.  1.
<mgrwt>
<rscale>  0 0.21376398E+04</rscale>
<asrwt>0</asrwt>
<pdfrwt beam="1">  1        2 0.31230449E+00 0.21376398E+04</pdfrwt>
<pdfrwt beam="2">  1       -2 0.86577317E-01 0.21376398E+04</pdfrwt>
<totfact> 0.68236182E+00</totfact>
</mgrwt>
</event>
<event>
12    2  0.3518828E-008  0.2174920E+04  0.7818608E-02  0.8528940E-01
         -1   -1    0    0    0  501 -0.00000000000E+00  0.00000000000E+00  0.10896551606E+04  0.10896551606E+04  0.00000000000E+00 0.  1.
          1   -1    0    0  501    0  0.00000000000E+00 -0.00000000000E+00 -0.10852688058E+04  0.10852688058E+04  0.00000000000E+00 0. -1.
         23    2    1    2    0    0 -0.38186093082E+03 -0.75234340682E+03  0.30834114240E+03  0.90304724998E+03  0.92637483464E+02 0.  0.
        254    2    1    2    0    0  0.38186093082E+03  0.75234340682E+03 -0.30395478766E+03  0.12718767164E+04  0.90191102476E+03 0.  0.
         23    2    4    4    0    0  0.55120920468E+03  0.12363091631E+03 -0.76919562240E+02  0.57634710617E+03  0.84517317427E+02 0.  0.
         23    2    4    4    0    0 -0.16934827386E+03  0.62871249050E+03 -0.22703522542E+03  0.69552961026E+03  0.90874702697E+02 0.  0.
          1    1    3    3  502    0 -0.42461618267E+02 -0.85574529075E+02  0.67824475063E+02  0.11715864659E+03  0.00000000000E+00 0. -1.
         -1    1    3    3    0  502 -0.33939931255E+03 -0.66676887774E+03  0.24051666734E+03  0.78588860340E+03  0.00000000000E+00 0.  1.
         11    1    5    5    0    0  0.34322627019E+03  0.35782432916E+02 -0.36911278955E+02  0.34705489129E+03  0.00000000000E+00 0. -1.
        -11    1    5    5    0    0  0.20798293448E+03  0.87848483394E+02 -0.40008283284E+02  0.22929221488E+03  0.00000000000E+00 0.  1.
          2    1    6    6  503    0 -0.10402261337E+03  0.40743227484E+03 -0.19162783638E+03  0.46210711999E+03  0.00000000000E+00 0. -1.
         -2    1    6    6    0  503 -0.65325660487E+02  0.22128021567E+03 -0.35407389041E+02  0.23342249027E+03  0.00000000000E+00 0.  1.
<mgrwt>
<rscale>  0 0.21749195E+04</rscale>
<asrwt>0</asrwt>
<pdfrwt beam="1">  1        1 0.16696443E+00 0.21749195E+04</pdfrwt>
<pdfrwt beam="2">  1       -1 0.16763926E+00 0.21749195E+04</pdfrwt>
<totfact> 0.30445805E+00</totfact>
</mgrwt>
</event>
<event>
12    2  0.3518828E-008  0.2472103E+04  0.7818608E-02  0.8412992E-01
         -1   -1    0    0    0  501 -0.00000000000E+00  0.00000000000E+00  0.39698383255E+03  0.39698383255E+03  0.00000000000E+00 0.  1.
          1   -1    0    0  501    0  0.00000000000E+00 -0.00000000000E+00 -0.38485791627E+04  0.38485791627E+04  0.00000000000E+00 0. -1.
         23    2    1    2    0    0  0.10173989421E+04 -0.28129907703E+03 -0.12158226174E+04  0.16127192026E+04  0.91699571482E+02 0.  0.
        254    2    1    2    0    0 -0.10173989421E+04  0.28129907703E+03 -0.22357727128E+04  0.26328437926E+04  0.90496244953E+03 0.  0.
         23    2    4    4    0    0 -0.55893422835E+03  0.34709298313E+03 -0.19960762589E+04  0.21036908791E+04  0.91180441999E+02 0.  0.
         23    2    4    4    0    0 -0.45846471376E+03 -0.65793906097E+02 -0.23969645385E+03  0.52915291349E+03  0.89608504166E+02 0.  0.
          2    1    3    3  502    0  0.14183692152E+03 -0.72326624997E+02 -0.17228852327E+03  0.23458940352E+03  0.00000000000E+00 0. -1.
         -2    1    3    3    0  502  0.87556202059E+03 -0.20897245203E+03 -0.10435340941E+04  0.13781297991E+04  0.00000000000E+00 0.  1.
         11    1    5    5    0    0 -0.98198634082E+02  0.10476389235E+03 -0.42034380495E+03  0.44419293019E+03  0.00000000000E+00 0.  1.
        -11    1    5    5    0    0 -0.46073559427E+03  0.24232909078E+03 -0.15757324540E+04  0.16594979490E+04  0.00000000000E+00 0. -1.
          3    1    6    6  503    0 -0.40527423115E+03 -0.28748815178E+02 -0.19698945197E+03  0.45152911423E+03  0.00000000000E+00 0. -1.
         -3    1    6    6    0  503 -0.53190482610E+02 -0.37045090919E+02 -0.42707001878E+02  0.77623799256E+02  0.00000000000E+00 0.  1.
<mgrwt>
<rscale>  0 0.24721033E+04</rscale>
<asrwt>0</asrwt>
<pdfrwt beam="1">  1        1 0.59208908E+00 0.24721033E+04</pdfrwt>
<pdfrwt beam="2">  1       -1 0.61074438E-01 0.24721033E+04</pdfrwt>
<totfact> 0.31472746E-01</totfact>
</mgrwt>
</event>
<event>
12    2  0.3962996E-008  0.1855890E+04  0.7818608E-02  0.8677130E-01
         -1   -1    0    0    0  501 -0.00000000000E+00  0.00000000000E+00  0.85645913661E+03  0.85645913661E+03  0.00000000000E+00 0.  1.
          1   -1    0    0  501    0  0.00000000000E+00 -0.00000000000E+00 -0.10053975349E+04  0.10053975349E+04  0.00000000000E+00 0. -1.
         23    2    1    2    0    0 -0.23249178381E+03 -0.16842974839E+03  0.57841618540E+03  0.65208572444E+03  0.90716585060E+02 0.  0.
        254    2    1    2    0    0  0.23249178381E+03  0.16842974839E+03 -0.72735458368E+03  0.12097709471E+04  0.92308181885E+03 0.  0.
         23    2    4    4    0    0  0.22654066312E+03  0.51436737405E+03 -0.60359545397E+03  0.82983847099E+03  0.91705770557E+02 0.  0.
         23    2    4    4    0    0  0.59511206934E+01 -0.34593762566E+03 -0.12375912971E+03  0.37993247608E+03  0.96561418296E+02 0.  0.
          1    1    3    3  502    0 -0.17361867954E+02 -0.25511245522E+02  0.19834391874E+02  0.36683255143E+02  0.00000000000E+00 0. -1.
         -1    1    3    3    0  502 -0.21512991586E+03 -0.14291850287E+03  0.55858179353E+03  0.61540246930E+03  0.00000000000E+00 0.  1.
         11    1    5    5    0    0  0.25090190471E+02  0.18346749364E+02 -0.55818459296E+02  0.63889132630E+02  0.00000000000E+00 0.  1.
        -11    1    5    5    0    0  0.20145047265E+03  0.49602062469E+03 -0.54777699467E+03  0.76594933836E+03  0.00000000000E+00 0. -1.
          4    1    6    6  503    0  0.17231295553E+02 -0.30048346841E+03 -0.70716031328E+02  0.30917307357E+03  0.00000000000E+00 0. -1.
         -4    1    6    6    0  503 -0.11280174860E+02 -0.45454157249E+02 -0.53043098387E+02  0.70759402503E+02  0.00000000000E+00 0.  1.
<mgrwt>
<rscale>  0 0.18558900E+04</rscale>
<asrwt>0</asrwt>
<pdfrwt beam="1">  1        1 0.15467654E+00 0.18558900E+04</pdfrwt>
<pdfrwt beam="2">  1       -1 0.13176294E+00 0.18558900E+04</pdfrwt>
<totfact> 0.68980512E+00</totfact>
</mgrwt>
</event>
<event>
12    2  0.3518828E-008  0.1786382E+04  0.7818608E-02  0.8713575E-01
          2   -1    0    0  501    0  0.00000000000E+00  0.00000000000E+00  0.13020985852E+04  0.13020985852E+04  0.00000000000E+00 0.  1.
         -2   -1    0    0    0  501 -0.00000000000E+00 -0.00000000000E+00 -0.61269562758E+03  0.61269562758E+03  0.00000000000E+00 0. -1.
         23    2    1    2    0    0 -0.19590279467E+03  0.60219960805E+03  0.23276166168E+02  0.64024899759E+03  0.91404190847E+02 0.  0.
        254    2    1    2    0    0  0.19590279467E+03 -0.60219960805E+03  0.66612679150E+03  0.12745452152E+04  0.88301660824E+03 0.  0.
         23    2    4    4    0    0  0.12720387713E+03 -0.68139472067E+03  0.11776545940E+03  0.70899188398E+03  0.91220592026E+02 0.  0.
         23    2    4    4    0    0  0.68698917540E+02  0.79195112623E+02  0.54836133210E+03  0.56555333125E+03  0.90327254019E+02 0.  0.
          1    1    3    3  502    0 -0.17756169505E+03  0.56744555094E+03  0.32312760620E-02  0.59457767267E+03  0.00000000000E+00 0. -1.
         -1    1    3    3    0  502 -0.18341099617E+02  0.34754057107E+02  0.23272934892E+02  0.45671324911E+02  0.00000000000E+00 0.  1.
         11    1    5    5    0    0  0.12582809259E+03 -0.54807982301E+03  0.12273897920E+03  0.57557715233E+03  0.00000000000E+00 0.  1.
        -11    1    5    5    0    0  0.13757845453E+01 -0.13331489766E+03 -0.49735197984E+01  0.13341473165E+03  0.00000000000E+00 0. -1.
          2    1    6    6  503    0 -0.46952284783E+01  0.12250678850E+02  0.64633124249E+01  0.14625276416E+02  0.00000000000E+00 0. -1.
         -2    1    6    6    0  503  0.73394146018E+02  0.66944433773E+02  0.54189801967E+03  0.55092805484E+03  0.00000000000E+00 0.  1.
<mgrwt>
<rscale>  0 0.17863819E+04</rscale>
<asrwt>0</asrwt>
<pdfrwt beam="1">  1        2 0.20032286E+00 0.17863819E+04</pdfrwt>
<pdfrwt beam="2">  1       -2 0.94260866E-01 0.17863819E+04</pdfrwt>
<totfact> 0.14789944E+01</totfact>
</mgrwt>
</event>
<event>
12    2  0.3518828E-008  0.2655123E+04  0.7818608E-02  0.8349715E-01
          2   -1    0    0  501    0  0.00000000000E+00  0.00000000000E+00  0.14245126554E+04  0.14245126554E+04  0.00000000000E+00 0. -1.
         -2   -1    0    0    0  501 -0.00000000000E+00 -0.00000000000E+00 -0.12372086295E+04  0.12372086295E+04  0.00000000000E+00 0.  1.
         23    2    1    2    0    0  0.95695877146E+03 -0.87786289537E+02  0.75860852131E+03  0.12277427039E+04  0.91590040055E+02 0.  0.
        254    2    1    2    0    0 -0.95695877146E+03  0.87786289537E+02 -0.57130449543E+03  0.14339785811E+04  0.89801404309E+03 0.  0.
         23    2    4    4    0    0 -0.10935225469E+04 -0.41993410195E+02 -0.53319220224E+03  0.12208925886E+04  0.93433298911E+02 0.  0.
         23    2    4    4    0    0  0.13656377544E+03  0.12977969973E+03 -0.38112293189E+02  0.21308599245E+03  0.91981835502E+02 0.  0.
          1    1    3    3  502    0  0.63012660046E+03 -0.30452396949E+02  0.45329011862E+03  0.77682611485E+03  0.00000000000E+00 0. -1.
         -1    1    3    3    0  502  0.32683217100E+03 -0.57333892588E+02  0.30531840269E+03  0.45091658903E+03  0.00000000000E+00 0.  1.
         11    1    5    5    0    0 -0.75433221775E+03 -0.70421282095E+02 -0.35425034996E+03  0.83634296921E+03  0.00000000000E+00 0. -1.
        -11    1    5    5    0    0 -0.33919032915E+03  0.28427871899E+02 -0.17894185228E+03  0.38454961941E+03  0.00000000000E+00 0.  1.
          3    1    6    6  503    0  0.64467236961E+02  0.11967537097E+03 -0.15292283422E+02  0.13679207942E+03  0.00000000000E+00 0. -1.
         -3    1    6    6    0  503  0.72096538480E+02  0.10104328758E+02 -0.22820009767E+02  0.76293913035E+02  0.00000000000E+00 0.  1.
<mgrwt>
<rscale>  0 0.26551229E+04</rscale>
<asrwt>0</asrwt>
<pdfrwt beam="1">  1        2 0.21915579E+00 0.26551229E+04</pdfrwt>
<pdfrwt beam="2">  1       -2 0.19033979E+00 0.26551229E+04</pdfrwt>
<totfact> 0.19024662E+00</totfact>
</mgrwt>
</event>
<event>
12    2  0.3518828E-008  0.1394696E+04  0.7818608E-02  0.8957666E-01
          2   -1    0    0  501    0  0.00000000000E+00  0.00000000000E+00  0.29799016451E+04  0.29799016451E+04  0.00000000000E+00 0. -1.
         -2   -1    0    0    0  501 -0.00000000000E+00 -0.00000000000E+00 -0.16319147784E+03  0.16319147784E+03  0.00000000000E+00 0.  1.
         23    2    1    2    0    0  0.36619049256E+03 -0.12411841874E+03  0.63503826449E+03  0.74895500704E+03  0.90327993916E+02 0.  0.
        254    2    1    2    0    0 -0.36619049256E+03  0.12411841874E+03  0.21816719028E+04  0.23941381159E+04  0.90703041184E+03 0.  0.
         23    2    4    4    0    0 -0.57914766209E+03  0.22412806495E+03  0.96360903716E+03  0.11500306089E+04  0.91556653796E+02 0.  0.
         23    2    4    4    0    0  0.21295716952E+03 -0.10000964622E+03  0.12180628656E+04  0.12441075071E+04  0.93667812459E+02 0.  0.
          1    1    3    3  502    0  0.11894896228E+03 -0.55452972431E+02  0.29574914398E+03  0.32356057229E+03  0.00000000000E+00 0. -1.
         -1    1    3    3    0  502  0.24724153028E+03 -0.68665446307E+02  0.33928912051E+03  0.42539443474E+03  0.00000000000E+00 0.  1.
         11    1    5    5    0    0 -0.55452522635E+02  0.53109239916E+02  0.12104445281E+03  0.14334340999E+03  0.00000000000E+00 0.  1.
        -11    1    5    5    0    0 -0.52369513945E+03  0.17101882504E+03  0.84256458434E+03  0.10066871989E+04  0.00000000000E+00 0. -1.
          3    1    6    6  503    0  0.12123145005E+03 -0.42220232854E+02  0.87375605230E+03  0.88313603225E+03  0.00000000000E+00 0. -1.
         -3    1    6    6    0  503  0.91725719471E+02 -0.57789413362E+02  0.34430681333E+03  0.36097147480E+03  0.00000000000E+00 0.  1.
<mgrwt>
<rscale>  0 0.13946965E+04</rscale>
<asrwt>0</asrwt>
<pdfrwt beam="1">  1        2 0.45844637E+00 0.13946965E+04</pdfrwt>
<pdfrwt beam="2">  1       -2 0.25106383E-01 0.13946965E+04</pdfrwt>
<totfact> 0.25068407E+01</totfact>
</mgrwt>
</event>
<event>
12    2  0.4619257E-008  0.1677088E+04  0.7818608E-02  0.8774541E-01
         -1   -1    0    0    0  501 -0.00000000000E+00  0.00000000000E+00  0.40108020679E+03  0.40108020679E+03  0.00000000000E+00 0.  1.
          1   -1    0    0  501    0  0.00000000000E+00 -0.00000000000E+00 -0.17531555591E+04  0.17531555591E+04  0.00000000000E+00 0. -1.
         23    2    1    2    0    0 -0.15396907592E+03 -0.42896169167E+03 -0.98661732395E+03  0.10905442303E+04  0.90323668478E+02 0.  0.
        254    2    1    2    0    0  0.15396907592E+03  0.42896169167E+03 -0.36545802832E+03  0.10636915355E+04  0.88891253959E+03 0.  0.
         23    2    4    4    0    0 -0.31149629145E+03  0.34017517354E+03 -0.34127996313E+03  0.58095483707E+03  0.91035274501E+02 0.  0.
         23    2    4    4    0    0  0.46546536737E+03  0.88786518133E+02 -0.24178065189E+02  0.48273669847E+03  0.88933048903E+02 0.  0.
          3    1    3    3  502    0 -0.14231724036E+03 -0.30759251798E+03 -0.78315224305E+03  0.85334330126E+03  0.00000000000E+00 0. -1.
         -3    1    3    3    0  502 -0.11651835564E+02 -0.12136917370E+03 -0.20346508090E+03  0.23720092905E+03  0.00000000000E+00 0.  1.
         11    1    5    5    0    0 -0.29724613866E+03  0.32658783098E+03 -0.34564164270E+03  0.56078785959E+03  0.00000000000E+00 0. -1.
        -11    1    5    5    0    0 -0.14250152789E+02  0.13587342557E+02  0.43616795648E+01  0.20166977486E+02  0.00000000000E+00 0.  1.
          4    1    6    6  503    0  0.46281244284E+03  0.95973464055E+02 -0.18182105411E+02  0.47300830014E+03  0.00000000000E+00 0. -1.
         -4    1    6    6    0  503  0.26529245329E+01 -0.71869459226E+01 -0.59959597781E+01  0.97283983230E+01  0.00000000000E+00 0.  1.
<mgrwt>
<rscale>  0 0.16770879E+04</rscale>
<asrwt>0</asrwt>
<pdfrwt beam="1">  1        1 0.26971624E+00 0.16770879E+04</pdfrwt>
<pdfrwt beam="2">  1       -1 0.61704647E-01 0.16770879E+04</pdfrwt>
<totfact> 0.11135744E+01</totfact>
</mgrwt>
</event>
<event>
12    2  0.3518828E-008  0.1554909E+04  0.7818608E-02  0.8848738E-01
         -2   -1    0    0    0  501 -0.00000000000E+00  0.00000000000E+00  0.50188915581E+03  0.50188915581E+03  0.00000000000E+00 0.  1.
          2   -1    0    0  501    0  0.00000000000E+00 -0.00000000000E+00 -0.12043204474E+04  0.12043204474E+04  0.00000000000E+00 0. -1.
         23    2    1    2    0    0  0.30072355806E+03  0.12201272734E+03  0.19901414181E+03  0.39127210993E+03  0.90362997788E+02 0.  0.
        254    2    1    2    0    0 -0.30072355806E+03 -0.12201272734E+03 -0.90144543340E+03  0.13149374933E+04  0.90063032251E+03 0.  0.
         23    2    4    4    0    0 -0.16785014148E+03  0.27026008316E+03 -0.17585713133E+02  0.33466110110E+03  0.10234555553E+03 0.  0.
         23    2    4    4    0    0 -0.13287341657E+03 -0.39227281049E+03 -0.88385972027E+03  0.98027639218E+03  0.90556597038E+02 0.  0.
          1    1    3    3  502    0  0.91444553023E+02  0.38191627717E+02  0.14923074798E+02  0.10021678935E+03  0.00000000000E+00 0. -1.
         -1    1    3    3    0  502  0.20927900503E+03  0.83821099622E+02  0.18409106701E+03  0.29105532059E+03  0.00000000000E+00 0.  1.
         11    1    5    5    0    0 -0.32586789457E+02  0.11898076384E+03 -0.41884403273E+02  0.13027902459E+03  0.00000000000E+00 0.  1.
        -11    1    5    5    0    0 -0.13526335203E+03  0.15127931932E+03  0.24298690140E+02  0.20438207650E+03  0.00000000000E+00 0. -1.
          4    1    6    6  503    0 -0.27784522346E+02 -0.77881015100E+02 -0.10384183662E+03  0.13274245450E+03  0.00000000000E+00 0.  1.
         -4    1    6    6    0  503 -0.10508889423E+03 -0.31439179539E+03 -0.78001788365E+03  0.84753393768E+03  0.00000000000E+00 0. -1.
<mgrwt>
<rscale>  0 0.15549088E+04</rscale>
<asrwt>0</asrwt>
<pdfrwt beam="1">  1        2 0.18528007E+00 0.15549088E+04</pdfrwt>
<pdfrwt beam="2">  1       -2 0.77213718E-01 0.15549088E+04</pdfrwt>
<totfact> 0.27118422E+01</totfact>
</mgrwt>
</event>
<event>
12    2  0.3518828E-008  0.1488551E+04  0.7818608E-02  0.8892102E-01
         -1   -1    0    0    0  501 -0.00000000000E+00  0.00000000000E+00  0.50784231947E+03  0.50784231947E+03  0.00000000000E+00 0.  1.
          1   -1    0    0  501    0  0.00000000000E+00 -0.00000000000E+00 -0.10907838331E+04  0.10907838331E+04  0.00000000000E+00 0. -1.
         23    2    1    2    0    0 -0.39659362040E+03 -0.16722533195E+03 -0.37274151556E+02  0.44141669007E+03  0.90600885815E+02 0.  0.
        254    2    1    2    0    0  0.39659362040E+03  0.16722533195E+03 -0.54566736208E+03  0.11572094625E+04  0.92527296443E+03 0.  0.
         23    2    4    4    0    0 -0.11271446611E+03  0.41680049500E+03 -0.29720030323E+03  0.53140572765E+03  0.87388921683E+02 0.  0.
         23    2    4    4    0    0  0.50930808651E+03 -0.24957516306E+03 -0.24846705885E+03  0.62580373487E+03  0.90619789420E+02 0.  0.
          3    1    3    3  502    0 -0.38252964090E+03 -0.17534145362E+03 -0.25911512909E+02  0.42159810012E+03  0.00000000000E+00 0. -1.
         -3    1    3    3    0  502 -0.14063979501E+02  0.81161216763E+01 -0.11362638647E+02  0.19818589947E+02  0.00000000000E+00 0.  1.
         11    1    5    5    0    0 -0.66237827723E+02  0.14610732440E+03 -0.15079172403E+03  0.22016571963E+03  0.00000000000E+00 0.  1.
        -11    1    5    5    0    0 -0.46476638390E+02  0.27069317060E+03 -0.14640857919E+03  0.31124000802E+03  0.00000000000E+00 0. -1.
          3    1    6    6  503    0  0.50456224869E+03 -0.25548197316E+03 -0.24951961606E+03  0.61815381598E+03  0.00000000000E+00 0. -1.
         -3    1    6    6    0  503  0.47458378268E+01  0.59068101063E+01  0.10525572061E+01  0.76499188873E+01  0.00000000000E+00 0.  1.
<mgrwt>
<rscale>  0 0.14885512E+04</rscale>
<asrwt>0</asrwt>
<pdfrwt beam="1">  1        1 0.16781290E+00 0.14885512E+04</pdfrwt>
<pdfrwt beam="2">  1       -1 0.78129588E-01 0.14885512E+04</pdfrwt>
<totfact> 0.20465801E+01</totfact>
</mgrwt>
</event>
<event>
12    2  0.3518828E-008  0.1585716E+04  0.7818608E-02  0.8829372E-01
          2   -1    0    0  501    0  0.00000000000E+00  0.00000000000E+00  0.57363497473E+03  0.57363497473E+03  0.00000000000E+00 0.  1.
         -2   -1    0    0    0  501 -0.00000000000E+00 -0.00000000000E+00 -0.10958603546E+04  0.10958603546E+04  0.00000000000E+00 0. -1.
         23    2    1    2    0    0  0.43478875905E+03 -0.23450657128E+03 -0.23967004130E+03  0.55650420235E+03  0.90667533173E+02 0.  0.
        254    2    1    2    0    0 -0.43478875905E+03  0.23450657128E+03 -0.28255533857E+03  0.11129911270E+04  0.95649209739E+03 0.  0.
         23    2    4    4    0    0 -0.29921811973E+03  0.31243265714E+03 -0.60155384002E+03  0.74627624857E+03  0.88969479663E+02 0.  0.
         23    2    4    4    0    0 -0.13557063932E+03 -0.77926085856E+02  0.31899850145E+03  0.36671487840E+03  0.90927911055E+02 0.  0.
          1    1    3    3  502    0  0.68517085487E+02 -0.76487298977E+02 -0.60741057970E+02  0.11930789593E+03  0.00000000000E+00 0. -1.
         -1    1    3    3    0  502  0.36627167356E+03 -0.15801927230E+03 -0.17892898333E+03  0.43719630642E+03  0.00000000000E+00 0.  1.
         11    1    5    5    0    0 -0.10428846427E+03  0.59222875759E+02 -0.13250521773E+03  0.17872063540E+03  0.00000000000E+00 0.  1.
        -11    1    5    5    0    0 -0.19492965546E+03  0.25320978138E+03 -0.46904862229E+03  0.56755561316E+03  0.00000000000E+00 0. -1.
          1    1    6    6  503    0 -0.12108891551E+03 -0.97832730082E+02  0.26441764621E+03  0.30683946969E+03  0.00000000000E+00 0. -1.
         -1    1    6    6    0  503 -0.14481723817E+02  0.19906644227E+02  0.54580855244E+02  0.59875408710E+02  0.00000000000E+00 0.  1.
<mgrwt>
<rscale>  0 0.15857160E+04</rscale>
<asrwt>0</asrwt>
<pdfrwt beam="1">  1        2 0.88251535E-01 0.15857160E+04</pdfrwt>
<pdfrwt beam="2">  1       -2 0.16859390E+00 0.15857160E+04</pdfrwt>
<totfact> 0.10952581E+01</totfact>
</mgrwt>
</event>
<event>
12    2  0.3518828E-008  0.2172226E+04  0.7818608E-02  0.8530078E-01
          2   -1    0    0  501    0  0.00000000000E+00  0.00000000000E+00  0.10119880706E+04  0.10119880706E+04  0.00000000000E+00 0. -1.
         -2   -1    0    0    0  501 -0.00000000000E+00 -0.00000000000E+00 -0.11656673510E+04  0.11656673510E+04  0.00000000000E+00 0.  1.
         23    2    1    2    0    0  0.16978048133E+03 -0.70017150913E+02 -0.94223315562E+03  0.96424686577E+03  0.90779322225E+02 0.  0.
        254    2    1    2    0    0 -0.16978048133E+03  0.70017150913E+02  0.78855387528E+03  0.12134085558E+04  0.90377834442E+03 0.  0.
         23    2    4    4    0    0  0.28026311926E+03 -0.21707565447E+03  0.42683484534E+03  0.56238869802E+03  0.91781298132E+02 0.  0.
         23    2    4    4    0    0 -0.45004360058E+03  0.28709280538E+03  0.36171902994E+03  0.65101985779E+03  0.89580563119E+02 0.  0.
          2    1    3    3  502    0  0.41004558190E+02  0.23612701179E+01 -0.85287566058E+02  0.94662127131E+02  0.00000000000E+00 0. -1.
         -2    1    3    3    0  502  0.12877592314E+03 -0.72378421031E+02 -0.85694558956E+03  0.86958473864E+03  0.00000000000E+00 0.  1.
         11    1    5    5    0    0  0.12446312235E+02 -0.14452069212E+02 -0.25774008726E+00  0.19074575296E+02  0.00000000000E+00 0.  1.
        -11    1    5    5    0    0  0.26781680702E+03 -0.20262358526E+03  0.42709258543E+03  0.54331412272E+03  0.00000000000E+00 0. -1.
          2    1    6    6  503    0 -0.31100867945E+03  0.22255774839E+03  0.21447249384E+03  0.43847098043E+03  0.00000000000E+00 0. -1.
         -2    1    6    6    0  503 -0.13903492113E+03  0.64535056992E+02  0.14724653610E+03  0.21254887736E+03  0.00000000000E+00 0.  1.
<mgrwt>
<rscale>  0 0.21722260E+04</rscale>
<asrwt>0</asrwt>
<pdfrwt beam="1">  1        2 0.15569047E+00 0.21722260E+04</pdfrwt>
<pdfrwt beam="2">  1       -2 0.17933344E+00 0.21722260E+04</pdfrwt>
<totfact> 0.41539098E+00</totfact>
</mgrwt>
</event>
<event>
12    2  0.3518828E-008  0.1567616E+04  0.7818608E-02  0.8840693E-01
         -2   -1    0    0    0  501 -0.00000000000E+00  0.00000000000E+00  0.28490670541E+03  0.28490670541E+03  0.00000000000E+00 0.  1.
          2   -1    0    0  501    0  0.00000000000E+00 -0.00000000000E+00 -0.21563374638E+04  0.21563374638E+04  0.00000000000E+00 0. -1.
         23    2    1    2    0    0  0.19739511193E+03 -0.70991369343E+02  0.11169071422E+03  0.25458808211E+03  0.91299896906E+02 0.  0.
        254    2    1    2    0    0 -0.19739511193E+03  0.70991369343E+02 -0.19831214726E+04  0.21866560871E+04  0.89704485026E+03 0.  0.
         23    2    4    4    0    0 -0.16608371778E+03  0.35649765630E+03 -0.37568344683E+03  0.55126162671E+03  0.89871845418E+02 0.  0.
         23    2    4    4    0    0 -0.31311394147E+02 -0.28550628696E+03 -0.16074380258E+04  0.16353944604E+04  0.90353699580E+02 0.  0.
          3    1    3    3  502    0  0.22168953878E+01 -0.22474724287E+02  0.29910524576E+02  0.37478891890E+02  0.00000000000E+00 0. -1.
         -3    1    3    3    0  502  0.19517821654E+03 -0.48516645056E+02  0.81780189643E+02  0.21710919022E+03  0.00000000000E+00 0.  1.
         11    1    5    5    0    0 -0.56236207484E+02  0.81433760238E+02 -0.14634030718E+03  0.17666197623E+03  0.00000000000E+00 0.  1.
        -11    1    5    5    0    0 -0.10984751030E+03  0.27506389607E+03 -0.22934313965E+03  0.37459965048E+03  0.00000000000E+00 0. -1.
          2    1    6    6  503    0 -0.29943056802E+02 -0.27655431224E+03 -0.13789688470E+04  0.14067458744E+04  0.00000000000E+00 0. -1.
         -2    1    6    6    0  503 -0.13683373448E+01 -0.89519747210E+01 -0.22846917885E+03  0.22864858601E+03  0.00000000000E+00 0.  1.
<mgrwt>
<rscale>  0 0.15676160E+04</rscale>
<asrwt>0</asrwt>
<pdfrwt beam="1">  1        2 0.33174422E+00 0.15676160E+04</pdfrwt>
<pdfrwt beam="2">  1       -2 0.43831802E-01 0.15676160E+04</pdfrwt>
<totfact> 0.25944233E+01</totfact>
</mgrwt>
</event>
<event>
12    2  0.3518828E-008  0.1428959E+04  0.7818608E-02  0.8933119E-01
          2   -1    0    0  501    0  0.00000000000E+00  0.00000000000E+00  0.69361156102E+03  0.69361156102E+03  0.00000000000E+00 0. -1.
         -2   -1    0    0    0  501 -0.00000000000E+00 -0.00000000000E+00 -0.73597521884E+03  0.73597521884E+03  0.00000000000E+00 0.  1.
         23    2    1    2    0    0 -0.71087309369E+01 -0.20007429833E+03 -0.37856662467E+03  0.43796889917E+03  0.91781307559E+02 0.  0.
        254    2    1    2    0    0  0.71087309369E+01  0.20007429833E+03  0.33620296684E+03  0.99161788070E+03  0.91114945398E+03 0.  0.
         23    2    4    4    0    0  0.26379313711E+03 -0.18010848129E+03  0.39893643446E+03  0.51905801969E+03  0.90802339423E+02 0.  0.
         23    2    4    4    0    0 -0.25668440617E+03  0.38018277962E+03 -0.62733467620E+02  0.47255986101E+03  0.94612388130E+02 0.  0.
          1    1    3    3  502    0  0.18124726976E+02  0.34321334199E+00 -0.27546103476E+02  0.32975920610E+02  0.00000000000E+00 0. -1.
         -1    1    3    3    0  502 -0.25233457913E+02 -0.20041751167E+03 -0.35102052119E+03  0.40499297856E+03  0.00000000000E+00 0.  1.
         11    1    5    5    0    0  0.11177020187E+03 -0.12493490282E+03  0.23607770288E+03  0.28954099842E+03  0.00000000000E+00 0. -1.
        -11    1    5    5    0    0  0.15202293524E+03 -0.55173578468E+02  0.16285873158E+03  0.22951702127E+03  0.00000000000E+00 0.  1.
          3    1    6    6  503    0 -0.31037284266E+02  0.84175919933E+02 -0.43894976306E+02  0.99878263181E+02  0.00000000000E+00 0. -1.
         -3    1    6    6    0  503 -0.22564712190E+03  0.29600685968E+03 -0.18838491314E+02  0.37268159783E+03  0.00000000000E+00 0.  1.
<mgrwt>
<rscale>  0 0.14289590E+04</rscale>
<asrwt>0</asrwt>
<pdfrwt beam="1">  1        2 0.10670947E+00 0.14289590E+04</pdfrwt>
<pdfrwt beam="2">  1       -2 0.11322696E+00 0.14289590E+04</pdfrwt>
<totfact> 0.24657035E+01</totfact>
</mgrwt>
</event>
<event>
12    2  0.3518828E-008  0.1332424E+04  0.7818608E-02  0.9004241E-01
          2   -1    0    0  501    0  0.00000000000E+00  0.00000000000E+00  0.39795936263E+03  0.39795936263E+03  0.00000000000E+00 0. -1.
         -2   -1    0    0    0  501 -0.00000000000E+00 -0.00000000000E+00 -0.11152851676E+04  0.11152851676E+04  0.00000000000E+00 0.  1.
         23    2    1    2    0    0  0.10086502777E+03  0.31427759372E+03 -0.54206595982E+02  0.34643019973E+03  0.90174101021E+02 0.  0.
        254    2    1    2    0    0 -0.10086502777E+03 -0.31427759372E+03 -0.66311920894E+03  0.11668143305E+04  0.90154558218E+03 0.  0.
         23    2    4    4    0    0  0.78164683062E+02  0.24722474115E+03 -0.46176108256E+03  0.53681085242E+03  0.87822568820E+02 0.  0.
         23    2    4    4    0    0 -0.17902971083E+03 -0.56150233486E+03 -0.20135812637E+03  0.63000347803E+03  0.94988303791E+02 0.  0.
          2    1    3    3  502    0  0.10222309854E+03  0.31806683409E+03 -0.59940543488E+02  0.33942442690E+03  0.00000000000E+00 0. -1.
         -2    1    3    3    0  502 -0.13580707718E+01 -0.37892403750E+01  0.57339475068E+01  0.70057728233E+01  0.00000000000E+00 0.  1.
         11    1    5    5    0    0  0.21769747267E+02  0.13774187364E+02 -0.94855315987E+02  0.98291307371E+02  0.00000000000E+00 0.  1.
        -11    1    5    5    0    0  0.56394935795E+02  0.23345055378E+03 -0.36690576658E+03  0.43851954505E+03  0.00000000000E+00 0. -1.
          2    1    6    6  503    0 -0.16538919842E+03 -0.50334211606E+03 -0.20945730920E+03  0.56971855958E+03  0.00000000000E+00 0. -1.
         -2    1    6    6    0  503 -0.13640512415E+02 -0.58160218804E+02  0.80991828262E+01  0.60284918452E+02  0.00000000000E+00 0.  1.
<mgrwt>
<rscale>  0 0.13324236E+04</rscale>
<asrwt>0</asrwt>
<pdfrwt beam="1">  1        2 0.61224518E-01 0.13324236E+04</pdfrwt>
<pdfrwt beam="2">  1       -2 0.17158233E+00 0.13324236E+04</pdfrwt>
<totfact> 0.16225838E+01</totfact>
</mgrwt>
</event>
<event>
12    2  0.3518828E-008  0.3236959E+04  0.7818608E-02  0.8179124E-01
         -2   -1    0    0    0  501 -0.00000000000E+00  0.00000000000E+00  0.90381288723E+03  0.90381288723E+03  0.00000000000E+00 0. -1.
          2   -1    0    0  501    0  0.00000000000E+00 -0.00000000000E+00 -0.28982507583E+04  0.28982507583E+04  0.00000000000E+00 0.  1.
         23    2    1    2    0    0 -0.30369563250E+03 -0.87653831435E+03  0.45263196077E+03  0.10361164500E+04  0.90061936099E+02 0.  0.
        254    2    1    2    0    0  0.30369563250E+03  0.87653831435E+03 -0.24470698319E+04  0.27659471956E+04  0.89541201293E+03 0.  0.
         23    2    4    4    0    0  0.53472407822E+02  0.18560836683E+03 -0.49622070688E+01  0.21390918323E+03  0.91775546507E+02 0.  0.
         23    2    4    4    0    0  0.25022322468E+03  0.69092994752E+03 -0.24421076248E+04  0.25520380123E+04  0.94934244421E+02 0.  0.
          1    1    3    3  502    0 -0.23700801373E+03 -0.73353786452E+03  0.34156033614E+03  0.84315719797E+03  0.00000000000E+00 0. -1.
         -1    1    3    3    0  502 -0.66687618767E+02 -0.14300044982E+03  0.11107162463E+03  0.19295925203E+03  0.00000000000E+00 0.  1.
         11    1    5    5    0    0  0.69418231671E+02  0.11183826401E+03 -0.28830420665E+02  0.13475118308E+03  0.00000000000E+00 0.  1.
        -11    1    5    5    0    0 -0.15945823849E+02  0.73770102818E+02  0.23868213596E+02  0.79158000153E+02  0.00000000000E+00 0. -1.
          4    1    6    6  503    0  0.22892938124E+03  0.52263782543E+03 -0.18332076074E+04  0.19199502833E+04  0.00000000000E+00 0. -1.
         -4    1    6    6    0  503  0.21293843433E+02  0.16829212210E+03 -0.60890001735E+03  0.63208772908E+03  0.00000000000E+00 0.  1.
<mgrwt>
<rscale>  0 0.32369593E+04</rscale>
<asrwt>0</asrwt>
<pdfrwt beam="1">  1        2 0.44588473E+00 0.32369593E+04</pdfrwt>
<pdfrwt beam="2">  1       -2 0.13904814E+00 0.32369593E+04</pdfrwt>
<totfact> 0.61775989E-01</totfact>
</mgrwt>
</event>
<event>
12    2  0.3518828E-008  0.1612959E+04  0.7818608E-02  0.8812626E-01
          1   -1    0    0  501    0  0.00000000000E+00  0.00000000000E+00  0.10030800804E+04  0.10030800804E+04  0.00000000000E+00 0.  1.
         -1   -1    0    0    0  501 -0.00000000000E+00 -0.00000000000E+00 -0.64841208092E+03  0.64841208092E+03  0.00000000000E+00 0. -1.
         23    2    1    2    0    0  0.21258889906E+03 -0.67416021089E+02  0.63466702117E+03  0.67900418182E+03  0.92225220385E+02 0.  0.
        254    2    1    2    0    0 -0.21258889906E+03  0.67416021089E+02 -0.27999902166E+03  0.97248797953E+03  0.90420930005E+03 0.  0.
         23    2    4    4    0    0 -0.21430022044E+03  0.15931580715E+03 -0.58017103475E+03  0.64533418873E+03  0.92475265306E+02 0.  0.
         23    2    4    4    0    0  0.17113213819E+01 -0.91899786061E+02  0.30017201309E+03  0.32715379080E+03  0.92075328362E+02 0.  0.
          3    1    3    3  502    0  0.13688630484E+02 -0.37602293247E+02  0.95379025408E+02  0.10343340635E+03  0.00000000000E+00 0. -1.
         -3    1    3    3    0  502  0.19890026858E+03 -0.29813727843E+02  0.53928799576E+03  0.57557077547E+03  0.00000000000E+00 0.  1.
         11    1    5    5    0    0 -0.48236078102E+02 -0.52070274866E+01 -0.11158427197E+03  0.12167531433E+03  0.00000000000E+00 0. -1.
        -11    1    5    5    0    0 -0.16606414234E+03  0.16452283464E+03 -0.46858676277E+03  0.52365887440E+03  0.00000000000E+00 0.  1.
          2    1    6    6  503    0  0.29168915728E+02  0.28748993353E+01  0.46496820067E+02  0.54964033398E+02  0.00000000000E+00 0. -1.
         -2    1    6    6    0  503 -0.27457594347E+02 -0.94774685396E+02  0.25367519302E+03  0.27218975740E+03  0.00000000000E+00 0.  1.
<mgrwt>
<rscale>  0 0.16129591E+04</rscale>
<asrwt>0</asrwt>
<pdfrwt beam="1">  1        1 0.15432001E+00 0.16129591E+04</pdfrwt>
<pdfrwt beam="2">  1       -1 0.99755705E-01 0.16129591E+04</pdfrwt>
<totfact> 0.13827312E+01</totfact>
</mgrwt>
</event>
<event>
12    2  0.3518828E-008  0.1540025E+04  0.7818608E-02  0.8858265E-01
          1   -1    0    0  501    0  0.00000000000E+00  0.00000000000E+00  0.76059945135E+03  0.76059945135E+03  0.00000000000E+00 0. -1.
         -1   -1    0    0    0  501 -0.00000000000E+00 -0.00000000000E+00 -0.77954187192E+03  0.77954187192E+03  0.00000000000E+00 0.  1.
         23    2    1    2    0    0 -0.36528351999E+03 -0.92500046907E+02 -0.34298400170E+03  0.51757803592E+03  0.90888333654E+02 0.  0.
        254    2    1    2    0    0  0.36528351999E+03  0.92500046907E+02  0.32404158113E+03  0.10225632873E+04  0.89366907839E+03 0.  0.
         23    2    4    4    0    0  0.14887798499E+03  0.41970737470E+03 -0.68762300625E+02  0.45997794126E+03  0.92371628037E+02 0.  0.
         23    2    4    4    0    0  0.21640553501E+03 -0.32720732780E+03  0.39280388175E+03  0.56258534608E+03  0.91166831490E+02 0.  0.
          1    1    3    3  502    0 -0.88880177481E+01 -0.22539489673E+02 -0.17630379677E+02  0.29964241051E+02  0.00000000000E+00 0. -1.
         -1    1    3    3    0  502 -0.35639550224E+03 -0.69960557234E+02 -0.32535362202E+03  0.48761379487E+03  0.00000000000E+00 0.  1.
         11    1    5    5    0    0  0.85736691455E+02  0.15953242340E+03 -0.64383418482E+02  0.19221498108E+03  0.00000000000E+00 0.  1.
        -11    1    5    5    0    0  0.63141293531E+02  0.26017495130E+03 -0.43788821427E+01  0.26776296018E+03  0.00000000000E+00 0. -1.
          1    1    6    6  503    0  0.14675533285E+03 -0.27925477007E+03  0.28150338575E+03  0.42280552328E+03  0.00000000000E+00 0. -1.
         -1    1    6    6    0  503  0.69650202159E+02 -0.47952557727E+02  0.11130049600E+03  0.13977982281E+03  0.00000000000E+00 0.  1.
<mgrwt>
<rscale>  0 0.15400248E+04</rscale>
<asrwt>0</asrwt>
<pdfrwt beam="1">  1        1 0.11701530E+00 0.15400248E+04</pdfrwt>
<pdfrwt beam="2">  1       -1 0.11992952E+00 0.15400248E+04</pdfrwt>
<totfact> 0.14327020E+01</totfact>
</mgrwt>
</event>
<event>
12    2  0.3518828E-008  0.1481594E+04  0.7818608E-02  0.8896786E-01
         -2   -1    0    0    0  501 -0.00000000000E+00  0.00000000000E+00  0.19679752085E+04  0.19679752085E+04  0.00000000000E+00 0.  1.
          2   -1    0    0  501    0  0.00000000000E+00 -0.00000000000E+00 -0.27885518816E+03  0.27885518816E+03  0.00000000000E+00 0. -1.
         23    2    1    2    0    0 -0.20756706811E+03  0.94304355127E+01 -0.95283304575E+02  0.24805164677E+03  0.96320768576E+02 0.  0.
        254    2    1    2    0    0  0.20756706811E+03 -0.94304355127E+01  0.17844033249E+04  0.19987787498E+04  0.87626950427E+03 0.  0.
         23    2    4    4    0    0  0.43229227189E+03 -0.27326439418E+03  0.83266017721E+03  0.98174996031E+03  0.94657151762E+02 0.  0.
         23    2    4    4    0    0 -0.22472520378E+03  0.26383395867E+03  0.95174314766E+03  0.10170287895E+04  0.91775621263E+02 0.  0.
          3    1    3    3  502    0 -0.62532876373E+02 -0.12915251953E+02  0.13647081174E+02  0.65294771499E+02  0.00000000000E+00 0.  1.
         -3    1    3    3    0  502 -0.14503419173E+03  0.22345687465E+02 -0.10893038575E+03  0.18275687527E+03  0.00000000000E+00 0. -1.
         11    1    5    5    0    0  0.57886021056E+02 -0.37081301777E+02  0.18409558371E+03  0.19651208186E+03  0.00000000000E+00 0.  1.
        -11    1    5    5    0    0  0.37440625083E+03 -0.23618309241E+03  0.64856459351E+03  0.78523787845E+03  0.00000000000E+00 0. -1.
          3    1    6    6  503    0 -0.75132576164E+02  0.14374931164E+03  0.51695187058E+03  0.54180070606E+03  0.00000000000E+00 0. -1.
         -3    1    6    6    0  503 -0.14959262762E+03  0.12008464703E+03  0.43479127708E+03  0.47522808347E+03  0.00000000000E+00 0.  1.
<mgrwt>
<rscale>  0 0.14815939E+04</rscale>
<asrwt>0</asrwt>
<pdfrwt beam="1">  1        2 0.42900799E-01 0.14815939E+04</pdfrwt>
<pdfrwt beam="2">  1       -2 0.30276541E+00 0.14815939E+04</pdfrwt>
<totfact> 0.35375341E+00</totfact>
</mgrwt>
</event>
<event>
12    2  0.3518828E-008  0.1960481E+04  0.7818608E-02  0.8625323E-01
          2   -1    0    0  501    0  0.00000000000E+00  0.00000000000E+00  0.23464599340E+04  0.23464599340E+04  0.00000000000E+00 0. -1.
         -2   -1    0    0    0  501 -0.00000000000E+00 -0.00000000000E+00 -0.40949819188E+03  0.40949819188E+03  0.00000000000E+00 0.  1.
         23    2    1    2    0    0 -0.12243932369E+03 -0.57540439618E+02  0.18358261148E+04  0.18430476282E+04  0.90910647272E+02 0.  0.
        254    2    1    2    0    0  0.12243932369E+03  0.57540439618E+02  0.10113562730E+03  0.91291049767E+03  0.89714818814E+03 0.  0.
         23    2    4    4    0    0  0.34560473677E+03 -0.26317295276E+03 -0.11376725867E+03  0.45792940348E+03  0.89742477577E+02 0.  0.
         23    2    4    4    0    0 -0.22316541308E+03  0.32071339238E+03  0.21490288597E+03  0.45498109419E+03  0.90358530497E+02 0.  0.
          3    1    3    3  502    0 -0.11508203545E+03 -0.12114466142E+02  0.14107062006E+04  0.14154443188E+04  0.00000000000E+00 0. -1.
         -3    1    3    3    0  502 -0.73572882420E+01 -0.45425973476E+02  0.42511991417E+03  0.42760330937E+03  0.00000000000E+00 0.  1.
         11    1    5    5    0    0  0.79294216435E+02 -0.20647317940E+02 -0.35670174225E+02  0.89365797861E+02  0.00000000000E+00 0.  1.
        -11    1    5    5    0    0  0.26631052034E+03 -0.24252563482E+03 -0.78097084446E+02  0.36856360562E+03  0.00000000000E+00 0. -1.
          4    1    6    6  503    0 -0.36876962486E+02  0.11547920641E+03  0.89917100057E+02  0.15093191299E+03  0.00000000000E+00 0.  1.
         -4    1    6    6    0  503 -0.18628845059E+03  0.20523418597E+03  0.12498578591E+03  0.30404918121E+03  0.00000000000E+00 0. -1.
<mgrwt>
<rscale>  0 0.19604807E+04</rscale>
<asrwt>0</asrwt>
<pdfrwt beam="1">  1        2 0.36099383E+00 0.19604807E+04</pdfrwt>
<pdfrwt beam="2">  1       -2 0.62999723E-01 0.19604807E+04</pdfrwt>
<totfact> 0.92848450E+00</totfact>
</mgrwt>
</event>
<event>
12    2  0.3518828E-008  0.2234044E+04  0.7818608E-02  0.8504390E-01
         -2   -1    0    0    0  501 -0.00000000000E+00  0.00000000000E+00  0.20227329141E+04  0.20227329141E+04  0.00000000000E+00 0.  1.
          2   -1    0    0  501    0  0.00000000000E+00 -0.00000000000E+00 -0.61685769306E+03  0.61685769306E+03  0.00000000000E+00 0. -1.
         23    2    1    2    0    0 -0.89752073117E+03 -0.16855070053E+03  0.36289498690E+03  0.98684596795E+03  0.90660859363E+02 0.  0.
        254    2    1    2    0    0  0.89752073117E+03  0.16855070053E+03  0.10429802342E+04  0.16527446392E+04  0.89989125572E+03 0.  0.
         23    2    4    4    0    0  0.26721021864E+03  0.97330842369E+02  0.96173672546E+03  0.10070187429E+04  0.90964969107E+02 0.  0.
         23    2    4    4    0    0  0.63031051253E+03  0.71219858166E+02  0.81243508694E+02  0.64572589634E+03  0.89430504279E+02 0.  0.
          2    1    3    3  502    0 -0.42879396076E+03 -0.61305972343E+02  0.12781786342E+03  0.45161940751E+03  0.00000000000E+00 0.  1.
         -2    1    3    3    0  502 -0.46872677041E+03 -0.10724472819E+03  0.23507712348E+03  0.53522656044E+03  0.00000000000E+00 0. -1.
         11    1    5    5    0    0  0.25005843860E+03  0.11192048578E+03  0.91511656189E+03  0.95524538193E+03  0.00000000000E+00 0. -1.
        -11    1    5    5    0    0  0.17151780041E+02 -0.14589643413E+02  0.46620163566E+02  0.51773360953E+02  0.00000000000E+00 0.  1.
          3    1    6    6  503    0  0.51624428495E+03  0.24339433369E+02  0.55981498987E+02  0.51984083909E+03  0.00000000000E+00 0. -1.
         -3    1    6    6    0  503  0.11406622758E+03  0.46880424797E+02  0.25262009707E+02  0.12588505725E+03  0.00000000000E+00 0.  1.
<mgrwt>
<rscale>  0 0.22340442E+04</rscale>
<asrwt>0</asrwt>
<pdfrwt beam="1">  1        2 0.94901185E-01 0.22340442E+04</pdfrwt>
<pdfrwt beam="2">  1       -2 0.31118968E+00 0.22340442E+04</pdfrwt>
<totfact> 0.11867980E+00</totfact>
</mgrwt>
</event>
<event>
12    2  0.3518828E-008  0.1321735E+04  0.7818608E-02  0.9012504E-01
          1   -1    0    0  501    0  0.00000000000E+00  0.00000000000E+00  0.58702124526E+03  0.58702124526E+03  0.00000000000E+00 0. -1.
         -1   -1    0    0    0  501 -0.00000000000E+00 -0.00000000000E+00 -0.74400362475E+03  0.74400362475E+03  0.00000000000E+00 0.  1.
         23    2    1    2    0    0  0.30162946213E+03  0.11509955549E+03 -0.13971486012E+03  0.36332504704E+03  0.90865876817E+02 0.  0.
        254    2    1    2    0    0 -0.30162946213E+03 -0.11509955549E+03 -0.17267519373E+02  0.96769982297E+03  0.91209458942E+03 0.  0.
         23    2    4    4    0    0  0.11308532593E+03  0.11162096626E+03 -0.34111293516E+03  0.38727658479E+03  0.91529162281E+02 0.  0.
         23    2    4    4    0    0 -0.41471478805E+03 -0.22672052176E+03  0.32384541578E+03  0.58042323818E+03  0.92869433488E+02 0.  0.
          2    1    3    3  502    0  0.97122592418E+01 -0.34370745365E+01 -0.26673339602E+02  0.28593854348E+02  0.00000000000E+00 0. -1.
         -2    1    3    3    0  502  0.29191720289E+03  0.11853663003E+03 -0.11304152051E+03  0.33473119269E+03  0.00000000000E+00 0.  1.
         11    1    5    5    0    0  0.25732324043E+02  0.97237695420E+01 -0.87965823724E+01  0.28880513433E+02  0.00000000000E+00 0.  1.
        -11    1    5    5    0    0  0.87353001883E+02  0.10189719672E+03 -0.33231635278E+03  0.35839607136E+03  0.00000000000E+00 0. -1.
          2    1    6    6  503    0 -0.40359542550E+03 -0.23253656372E+03  0.32477672920E+03  0.56784015777E+03  0.00000000000E+00 0. -1.
         -2    1    6    6    0  503 -0.11119362553E+02  0.58160419638E+01 -0.93131341815E+00  0.12583080401E+02  0.00000000000E+00 0.  1.
<mgrwt>
<rscale>  0 0.13217351E+04</rscale>
<asrwt>0</asrwt>
<pdfrwt beam="1">  1        1 0.90310961E-01 0.13217351E+04</pdfrwt>
<pdfrwt beam="2">  1       -1 0.11446210E+00 0.13217351E+04</pdfrwt>
<totfact> 0.24079505E+01</totfact>
</mgrwt>
</event>
<event>
12    2  0.3518828E-008  0.1628935E+04  0.7818608E-02  0.8802966E-01
          1   -1    0    0  501    0  0.00000000000E+00  0.00000000000E+00  0.31935109862E+04  0.31935109862E+04  0.00000000000E+00 0. -1.
         -1   -1    0    0    0  501 -0.00000000000E+00 -0.00000000000E+00 -0.20772046891E+03  0.20772046891E+03  0.00000000000E+00 0.  1.
         23    2    1    2    0    0 -0.25492085330E+03  0.30192670636E+03  0.21590399932E+03  0.45952232198E+03  0.91661605977E+02 0.  0.
        254    2    1    2    0    0  0.25492085330E+03 -0.30192670636E+03  0.27698865180E+04  0.29417091331E+04  0.90842551924E+03 0.  0.
         23    2    4    4    0    0 -0.19639773404E+03  0.14586591707E+03  0.14524011497E+04  0.14759245405E+04  0.95053742873E+02 0.  0.
         23    2    4    4    0    0  0.45131858734E+03 -0.44779262344E+03  0.13174853683E+04  0.14657845926E+04  0.92466617471E+02 0.  0.
          3    1    3    3  502    0 -0.32039896235E+02  0.99592178377E+02  0.55935735047E+02  0.11863373635E+03  0.00000000000E+00 0. -1.
         -3    1    3    3    0  502 -0.22288095707E+03  0.20233452799E+03  0.15996826427E+03  0.34088858563E+03  0.00000000000E+00 0.  1.
         11    1    5    5    0    0 -0.74982080008E+02  0.30670576420E+02  0.27490854204E+03  0.28659676039E+03  0.00000000000E+00 0. -1.
        -11    1    5    5    0    0 -0.12141565404E+03  0.11519534065E+03  0.11774926077E+04  0.11893277802E+04  0.00000000000E+00 0.  1.
          1    1    6    6  503    0  0.14446540573E+03 -0.20312983823E+03  0.54652410755E+03  0.60068343140E+03  0.00000000000E+00 0. -1.
         -1    1    6    6    0  503  0.30685318161E+03 -0.24466278521E+03  0.77096126074E+03  0.86510116119E+03  0.00000000000E+00 0.  1.
<mgrwt>
<rscale>  0 0.16289354E+04</rscale>
<asrwt>0</asrwt>
<pdfrwt beam="1">  1        1 0.49130935E+00 0.16289354E+04</pdfrwt>
<pdfrwt beam="2">  1       -1 0.31956997E-01 0.16289354E+04</pdfrwt>
<totfact> 0.37790015E+00</totfact>
</mgrwt>
</event>
<event>
12    2  0.3518828E-008  0.1342432E+04  0.7818608E-02  0.8996577E-01
         -2   -1    0    0    0  501 -0.00000000000E+00  0.00000000000E+00  0.30304844139E+03  0.30304844139E+03  0.00000000000E+00 0.  1.
          2   -1    0    0  501    0  0.00000000000E+00 -0.00000000000E+00 -0.14866624069E+04  0.14866624069E+04  0.00000000000E+00 0. -1.
         23    2    1    2    0    0  0.16096848739E+03  0.29514517083E+03 -0.50501726292E+03  0.61393882397E+03  0.94111199831E+02 0.  0.
        254    2    1    2    0    0 -0.16096848739E+03 -0.29514517083E+03 -0.67859670255E+03  0.11757720243E+04  0.89940249198E+03 0.  0.
         23    2    4    4    0    0 -0.26092361331E+03 -0.56890032611E+03 -0.57076397962E+03  0.85185793829E+03  0.90342202540E+02 0.  0.
         23    2    4    4    0    0  0.99955125913E+02  0.27375515528E+03 -0.10783272293E+03  0.32391408600E+03  0.91430447514E+02 0.  0.
          2    1    3    3  502    0  0.96542044561E+02  0.15225041908E+03 -0.34882490752E+03  0.39265681273E+03  0.00000000000E+00 0. -1.
         -2    1    3    3    0  502  0.64426442834E+02  0.14289475174E+03 -0.15619235540E+03  0.22128201124E+03  0.00000000000E+00 0.  1.
         11    1    5    5    0    0 -0.37309177334E+02 -0.14436886353E+03 -0.99163937465E+02  0.17907492835E+03  0.00000000000E+00 0. -1.
        -11    1    5    5    0    0 -0.22361443597E+03 -0.42453146258E+03 -0.47160004215E+03  0.67278300993E+03  0.00000000000E+00 0.  1.
          3    1    6    6  503    0  0.83940266631E+02  0.27615124922E+03 -0.97253111008E+02  0.30457125341E+03  0.00000000000E+00 0. -1.
         -3    1    6    6    0  503  0.16014859282E+02 -0.23960939314E+01 -0.10579611923E+02  0.19342832585E+02  0.00000000000E+00 0.  1.
<mgrwt>
<rscale>  0 0.13424317E+04</rscale>
<asrwt>0</asrwt>
<pdfrwt beam="1">  1        2 0.22871729E+00 0.13424317E+04</pdfrwt>
<pdfrwt beam="2">  1       -2 0.46622837E-01 0.13424317E+04</pdfrwt>
<totfact> 0.55036893E+01</totfact>
</mgrwt>
</event>
<event>
12    2  0.3518828E-008  0.1859693E+04  0.7818608E-02  0.8675184E-01
          2   -1    0    0  501    0  0.00000000000E+00  0.00000000000E+00  0.19174705566E+04  0.19174705566E+04  0.00000000000E+00 0.  1.
         -2   -1    0    0    0  501 -0.00000000000E+00 -0.00000000000E+00 -0.45091428851E+03  0.45091428851E+03  0.00000000000E+00 0. -1.
         23    2    1    2    0    0 -0.61524139253E+03  0.31223909839E+03  0.36684189130E+03  0.78680417408E+03  0.92046778817E+02 0.  0.
        254    2    1    2    0    0  0.61524139253E+03 -0.31223909839E+03  0.10997143768E+04  0.15815806711E+04  0.90333298559E+03 0.  0.
         23    2    4    4    0    0  0.37650689774E+03  0.23902631153E+03  0.75801811705E+03  0.88423172053E+03  0.91560079536E+02 0.  0.
         23    2    4    4    0    0  0.23873449480E+03 -0.55126540992E+03  0.34169625979E+03  0.69734895055E+03  0.93013513547E+02 0.  0.
          1    1    3    3  502    0 -0.50162400182E+03  0.29029018055E+03  0.29173253763E+03  0.64884736390E+03  0.00000000000E+00 0. -1.
         -1    1    3    3    0  502 -0.11361739072E+03  0.21948917834E+02  0.75109353672E+02  0.13795681018E+03  0.00000000000E+00 0.  1.
         11    1    5    5    0    0  0.31196565603E+03  0.15252633526E+03  0.58579369410E+03  0.68098539304E+03  0.00000000000E+00 0.  1.
        -11    1    5    5    0    0  0.64541241708E+02  0.86499976271E+02  0.17222442294E+03  0.20324632748E+03  0.00000000000E+00 0. -1.
          3    1    6    6  503    0  0.18674731168E+03 -0.32162888522E+03  0.19490042385E+03  0.41988792963E+03  0.00000000000E+00 0. -1.
         -3    1    6    6    0  503  0.51987183114E+02 -0.22963652470E+03  0.14679583594E+03  0.27746102092E+03  0.00000000000E+00 0.  1.
<mgrwt>
<rscale>  0 0.18596934E+04</rscale>
<asrwt>0</asrwt>
<pdfrwt beam="1">  1        2 0.29499547E+00 0.18596934E+04</pdfrwt>
<pdfrwt beam="2">  1       -2 0.69371430E-01 0.18596934E+04</pdfrwt>
<totfact> 0.13226685E+01</totfact>
</mgrwt>
</event>
<event>
12    2  0.3518828E-008  0.1639298E+04  0.7818608E-02  0.8796763E-01
          1   -1    0    0  501    0  0.00000000000E+00  0.00000000000E+00  0.31799703525E+04  0.31799703525E+04  0.00000000000E+00 0. -1.
         -1   -1    0    0    0  501 -0.00000000000E+00 -0.00000000000E+00 -0.21126761486E+03  0.21126761486E+03  0.00000000000E+00 0.  1.
         23    2    1    2    0    0  0.54390005033E+03 -0.62885771784E+02  0.78340805966E+03  0.96061835565E+03  0.96320051011E+02 0.  0.
        254    2    1    2    0    0 -0.54390005033E+03  0.62885771784E+02  0.21852946780E+04  0.24306196117E+04  0.91247848312E+03 0.  0.
         23    2    4    4    0    0  0.16626546881E+03 -0.56014872385E+02  0.99618865349E+02  0.22218648681E+03  0.93064733083E+02 0.  0.
         23    2    4    4    0    0 -0.71016551914E+03  0.11890064417E+03  0.20856758126E+04  0.22084331249E+04  0.93063655411E+02 0.  0.
          3    1    3    3  502    0  0.12254881925E+03 -0.13483041281E+02  0.11290421045E+03  0.16717465789E+03  0.00000000000E+00 0. -1.
         -3    1    3    3    0  502  0.42135123108E+03 -0.49402730503E+02  0.67050384921E+03  0.79344369776E+03  0.00000000000E+00 0.  1.
         11    1    5    5    0    0 -0.36778830737E+01 -0.14538118347E+02  0.30702546718E+02  0.34169139350E+02  0.00000000000E+00 0. -1.
        -11    1    5    5    0    0  0.16994335188E+03 -0.41476754038E+02  0.68916318632E+02  0.18801734746E+03  0.00000000000E+00 0.  1.
          4    1    6    6  503    0 -0.30394965844E+03  0.66541161024E+02  0.10346305200E+04  0.10804042919E+04  0.00000000000E+00 0. -1.
         -4    1    6    6    0  503 -0.40621586070E+03  0.52359483146E+02  0.10510452926E+04  0.11280288330E+04  0.00000000000E+00 0.  1.
<mgrwt>
<rscale>  0 0.16392983E+04</rscale>
<asrwt>0</asrwt>
<pdfrwt beam="1">  1        1 0.48922617E+00 0.16392983E+04</pdfrwt>
<pdfrwt beam="2">  1       -1 0.32502712E-01 0.16392983E+04</pdfrwt>
<totfact> 0.37496848E+00</totfact>
</mgrwt>
</event>
<event>
12    2  0.3518828E-008  0.1103173E+04  0.7818608E-02  0.9202105E-01
          2   -1    0    0  501    0  0.00000000000E+00  0.00000000000E+00  0.24257104315E+04  0.24257104315E+04  0.00000000000E+00 0. -1.
         -2   -1    0    0    0  501 -0.00000000000E+00 -0.00000000000E+00 -0.12542623771E+03  0.12542623771E+03  0.00000000000E+00 0.  1.
         23    2    1    2    0    0  0.55589013031E+02  0.11340097437E+03  0.67524592748E+03  0.69298859821E+03  0.91248097620E+02 0.  0.
        254    2    1    2    0    0 -0.55589013031E+02 -0.11340097437E+03  0.16250382663E+04  0.18581480710E+04  0.89219670890E+03 0.  0.
         23    2    4    4    0    0 -0.19960786385E+03  0.26913216344E+02  0.28733932634E+01  0.22099424300E+03  0.90898726751E+02 0.  0.
         23    2    4    4    0    0  0.14401885082E+03 -0.14031419071E+03  0.16221648730E+04  0.16371538280E+04  0.91783874674E+02 0.  0.
          3    1    3    3  502    0  0.72023471463E+02  0.10302619072E+03  0.64428182186E+03  0.65643037894E+03  0.00000000000E+00 0. -1.
         -3    1    3    3    0  502 -0.16434458432E+02  0.10374783648E+02  0.30964105622E+02  0.36558219276E+02  0.00000000000E+00 0.  1.
         11    1    5    5    0    0 -0.12931723786E+03 -0.23888327046E+02  0.18721723230E+02  0.13283110742E+03  0.00000000000E+00 0.  1.
        -11    1    5    5    0    0 -0.70290625986E+02  0.50801543390E+02 -0.15848329967E+02  0.88163135579E+02  0.00000000000E+00 0. -1.
          1    1    6    6  503    0  0.14388828188E+03 -0.15127653718E+03  0.14933962078E+04  0.15079193155E+04  0.00000000000E+00 0. -1.
         -1    1    6    6    0  503  0.13056893162E+00  0.10962346465E+02  0.12876866520E+03  0.12923451251E+03  0.00000000000E+00 0.  1.
<mgrwt>
<rscale>  0 0.11031731E+04</rscale>
<asrwt>0</asrwt>
<pdfrwt beam="1">  1        2 0.37318619E+00 0.11031731E+04</pdfrwt>
<pdfrwt beam="2">  1       -2 0.19296346E-01 0.11031731E+04</pdfrwt>
<totfact> 0.87477902E+01</totfact>
</mgrwt>
</event>
<event>
12    2  0.3518828E-008  0.2539947E+04  0.7818608E-02  0.8388891E-01
          1   -1    0    0  501    0  0.00000000000E+00  0.00000000000E+00  0.11952747892E+04  0.11952747892E+04  0.00000000000E+00 0. -1.
         -1   -1    0    0    0  501 -0.00000000000E+00 -0.00000000000E+00 -0.13493406340E+04  0.13493406340E+04  0.00000000000E+00 0.  1.
         23    2    1    2    0    0  0.46858970645E+03  0.93274386064E+03  0.30906580167E+03  0.10923968739E+04  0.90674350241E+02 0.  0.
        254    2    1    2    0    0 -0.46858970645E+03 -0.93274386064E+03 -0.46313164640E+03  0.14522185493E+04  0.89714010635E+03 0.  0.
         23    2    4    4    0    0 -0.12053102873E+03 -0.24233126668E+03  0.26223633463E+03  0.38820253284E+03  0.93172633335E+02 0.  0.
         23    2    4    4    0    0 -0.34805867772E+03 -0.69041259395E+03 -0.72536798103E+03  0.10640160164E+04  0.90316013625E+02 0.  0.
          2    1    3    3  502    0  0.40574351157E+03  0.76924280679E+03  0.22622697089E+03  0.89863281453E+03  0.00000000000E+00 0. -1.
         -2    1    3    3    0  502  0.62846194875E+02  0.16350105384E+03  0.82838830779E+02  0.19376405937E+03  0.00000000000E+00 0.  1.
         11    1    5    5    0    0 -0.13255355116E+03 -0.22513483754E+03  0.22207274319E+03  0.34288838164E+03  0.00000000000E+00 0. -1.
        -11    1    5    5    0    0  0.12022522433E+02 -0.17196429147E+02  0.40163591441E+02  0.45314151194E+02  0.00000000000E+00 0.  1.
          3    1    6    6  503    0 -0.32285381532E+03 -0.61888782313E+03 -0.61628887656E+03  0.93116523940E+03  0.00000000000E+00 0. -1.
         -3    1    6    6    0  503 -0.25204862394E+02 -0.71524770820E+02 -0.10907910447E+03  0.13285077704E+03  0.00000000000E+00 0.  1.
<mgrwt>
<rscale>  0 0.25399471E+04</rscale>
<asrwt>0</asrwt>
<pdfrwt beam="1">  1        1 0.18388843E+00 0.25399471E+04</pdfrwt>
<pdfrwt beam="2">  1       -1 0.20759087E+00 0.25399471E+04</pdfrwt>
<totfact> 0.12731140E+00</totfact>
</mgrwt>
</event>
<event>
12    2  0.3518828E-008  0.2352252E+04  0.7818608E-02  0.8457599E-01
          2   -1    0    0  501    0  0.00000000000E+00  0.00000000000E+00  0.27646112080E+04  0.27646112080E+04  0.00000000000E+00 0.  1.
         -2   -1    0    0    0  501 -0.00000000000E+00 -0.00000000000E+00 -0.50034979449E+03  0.50034979449E+03  0.00000000000E+00 0. -1.
         23    2    1    2    0    0  0.36585805368E+03 -0.95564081777E+02  0.22523978316E+04  0.22857446580E+04  0.91367612963E+02 0.  0.
        254    2    1    2    0    0 -0.36585805368E+03  0.95564081777E+02  0.11863581957E+02  0.97921634453E+03  0.90318286943E+03 0.  0.
         23    2    4    4    0    0 -0.14294615399E+03 -0.37071807304E+03 -0.14435910450E+03  0.43196600563E+03  0.88823343508E+02 0.  0.
         23    2    4    4    0    0 -0.22291189969E+03  0.46628215481E+03  0.15622268646E+03  0.54725033889E+03  0.89267254522E+02 0.  0.
          1    1    3    3  502    0  0.20831903757E+03 -0.58283773414E+02  0.10145213301E+04  0.10373270212E+04  0.00000000000E+00 0. -1.
         -1    1    3    3    0  502  0.15753901611E+03 -0.37280308363E+02  0.12378765015E+04  0.12484176368E+04  0.00000000000E+00 0.  1.
         11    1    5    5    0    0 -0.83595832146E+02 -0.11448362588E+03 -0.72955206606E+02  0.15942780786E+03  0.00000000000E+00 0. -1.
        -11    1    5    5    0    0 -0.59350321848E+02 -0.25623444715E+03 -0.71403897899E+02  0.27253819778E+03  0.00000000000E+00 0.  1.
          2    1    6    6  503    0 -0.17094774667E+03  0.34452710493E+03  0.15554283999E+03  0.41486821184E+03  0.00000000000E+00 0. -1.
         -2    1    6    6    0  503 -0.51964153012E+02  0.12175504989E+03  0.67984647119E+00  0.13238212705E+03  0.00000000000E+00 0.  1.
<mgrwt>
<rscale>  0 0.23522522E+04</rscale>
<asrwt>0</asrwt>
<pdfrwt beam="1">  1        2 0.42532479E+00 0.23522522E+04</pdfrwt>
<pdfrwt beam="2">  1       -2 0.76976893E-01 0.23522522E+04</pdfrwt>
<totfact> 0.33051417E+00</totfact>
</mgrwt>
</event>
<event>
12    2  0.3518828E-008  0.1815205E+04  0.7818608E-02  0.8698255E-01
          2   -1    0    0  501    0  0.00000000000E+00  0.00000000000E+00  0.10534645192E+04  0.10534645192E+04  0.00000000000E+00 0. -1.
         -2   -1    0    0    0  501 -0.00000000000E+00 -0.00000000000E+00 -0.78193634046E+03  0.78193634046E+03  0.00000000000E+00 0.  1.
         23    2    1    2    0    0  0.44872081337E+03 -0.30620681023E+03  0.50050219648E+03  0.74427499321E+03  0.91267945375E+02 0.  0.
        254    2    1    2    0    0 -0.44872081337E+03  0.30620681023E+03 -0.22897401777E+03  0.10911258664E+04  0.91815770792E+03 0.  0.
         23    2    4    4    0    0  0.14146397816E+03  0.18121067946E+03  0.22197974398E+03  0.33239230379E+03  0.91434508914E+02 0.  0.
         23    2    4    4    0    0 -0.59018479153E+03  0.12499613077E+03 -0.45095376174E+03  0.75873356264E+03  0.91516135135E+02 0.  0.
          1    1    3    3  502    0  0.43711769051E+03 -0.30731436491E+03  0.50118602323E+03  0.73259908826E+03  0.00000000000E+00 0. -1.
         -1    1    3    3    0  502  0.11603122862E+02  0.11075546819E+01 -0.68382674253E+00  0.11675904956E+02  0.00000000000E+00 0.  1.
         11    1    5    5    0    0  0.54350104851E+02  0.13989905791E+03  0.14886058468E+03  0.21138863256E+03  0.00000000000E+00 0.  1.
        -11    1    5    5    0    0  0.87113873307E+02  0.41311621544E+02  0.73119159295E+02  0.12100367124E+03  0.00000000000E+00 0. -1.
          4    1    6    6  503    0 -0.44773954142E+03  0.96128741995E+02 -0.29084773250E+03  0.54249777464E+03  0.00000000000E+00 0. -1.
         -4    1    6    6    0  503 -0.14244525010E+03  0.28867388777E+02 -0.16010602924E+03  0.21623578800E+03  0.00000000000E+00 0.  1.
<mgrwt>
<rscale>  0 0.18152049E+04</rscale>
<asrwt>0</asrwt>
<pdfrwt beam="1">  1        2 0.16207147E+00 0.18152049E+04</pdfrwt>
<pdfrwt beam="2">  1       -2 0.12029790E+00 0.18152049E+04</pdfrwt>
<totfact> 0.11591118E+01</totfact>
</mgrwt>
</event>
<event>
12    2  0.3518828E-008  0.3306758E+04  0.7818608E-02  0.8161178E-01
          2   -1    0    0  501    0  0.00000000000E+00  0.00000000000E+00  0.25935411508E+04  0.25935411508E+04  0.00000000000E+00 0.  1.
         -2   -1    0    0    0  501 -0.00000000000E+00 -0.00000000000E+00 -0.10540268910E+04  0.10540268910E+04  0.00000000000E+00 0. -1.
         23    2    1    2    0    0 -0.95342319076E+03 -0.58589843811E+03  0.18634811864E+04  0.21756040173E+04  0.91640315827E+02 0.  0.
        254    2    1    2    0    0  0.95342319076E+03  0.58589843811E+03 -0.32396692656E+03  0.14719640245E+04  0.89968369969E+03 0.  0.
         23    2    4    4    0    0 -0.10231196792E+03  0.22431086764E+03 -0.22671763849E+03  0.34802728243E+03  0.94546272232E+02 0.  0.
         23    2    4    4    0    0  0.10557351587E+04  0.36158757048E+03 -0.97249288070E+02  0.11239367421E+04  0.91946069946E+02 0.  0.
          4    1    3    3  502    0 -0.72401724373E+03 -0.45520630227E+03  0.14943292898E+04  0.17217531104E+04  0.00000000000E+00 0.  1.
         -4    1    3    3    0  502 -0.22940594703E+03 -0.13069213584E+03  0.36915189653E+03  0.45385090681E+03  0.00000000000E+00 0. -1.
         11    1    5    5    0    0 -0.54916282591E+02  0.16843654320E+03 -0.10494872314E+03  0.20591479226E+03  0.00000000000E+00 0. -1.
        -11    1    5    5    0    0 -0.47395685327E+02  0.55874324431E+02 -0.12176891535E+03  0.14211249017E+03  0.00000000000E+00 0.  1.
          3    1    6    6  503    0  0.96079048933E+03  0.32625492531E+03 -0.61597764308E+02  0.10165406658E+04  0.00000000000E+00 0. -1.
         -3    1    6    6    0  503  0.94944669343E+02  0.35332645169E+02 -0.35651523762E+02  0.10739607627E+03  0.00000000000E+00 0.  1.
<mgrwt>
<rscale>  0 0.33067580E+04</rscale>
<asrwt>0</asrwt>
<pdfrwt beam="1">  1        2 0.39900633E+00 0.33067580E+04</pdfrwt>
<pdfrwt beam="2">  1       -2 0.16215798E+00 0.33067580E+04</pdfrwt>
<totfact> 0.62214630E-01</totfact>
</mgrwt>
</event>
<event>
12    2  0.3518828E-008  0.2686264E+04  0.7818608E-02  0.8339476E-01
          1   -1    0    0  501    0  0.00000000000E+00  0.00000000000E+00  0.12360969971E+04  0.12360969971E+04  0.00000000000E+00 0. -1.
         -1   -1    0    0    0  501 -0.00000000000E+00 -0.00000000000E+00 -0.14594348217E+04  0.14594348217E+04  0.00000000000E+00 0.  1.
         23    2    1    2    0    0  0.23209132770E+02  0.92365098534E+03  0.64998236426E+03  0.11340101519E+04  0.99157169352E+02 0.  0.
        254    2    1    2    0    0 -0.23209132770E+02 -0.92365098534E+03 -0.87332018890E+03  0.15615216669E+04  0.90663772107E+03 0.  0.
         23    2    4    4    0    0  0.27741128447E+03 -0.80555343184E+03 -0.32009686646E+03  0.91450117565E+03  0.89314299160E+02 0.  0.
         23    2    4    4    0    0 -0.30062041723E+03 -0.11809755350E+03 -0.55322332244E+03  0.64702049124E+03  0.90883464936E+02 0.  0.
          2    1    3    3  502    0  0.28191314367E+01  0.76345957487E+03  0.57605405268E+03  0.95640825047E+03  0.00000000000E+00 0. -1.
         -2    1    3    3    0  502  0.20390001333E+02  0.16019141047E+03  0.73928311578E+02  0.17760190144E+03  0.00000000000E+00 0.  1.
         11    1    5    5    0    0  0.59042723115E+02 -0.83290428548E+02 -0.39051336556E+02  0.10930848790E+03  0.00000000000E+00 0.  1.
        -11    1    5    5    0    0  0.21836856135E+03 -0.72226300330E+03 -0.28104552990E+03  0.80519268774E+03  0.00000000000E+00 0. -1.
          1    1    6    6  503    0 -0.22663333526E+03 -0.12858908903E+03 -0.41976223521E+03  0.49406290751E+03  0.00000000000E+00 0. -1.
         -1    1    6    6    0  503 -0.73987081971E+02  0.10491535538E+02 -0.13346108723E+03  0.15295758373E+03  0.00000000000E+00 0.  1.
<mgrwt>
<rscale>  0 0.26862636E+04</rscale>
<asrwt>0</asrwt>
<pdfrwt beam="1">  1        1 0.19016877E+00 0.26862636E+04</pdfrwt>
<pdfrwt beam="2">  1       -1 0.22452843E+00 0.26862636E+04</pdfrwt>
<totfact> 0.90241256E-01</totfact>
</mgrwt>
</event>
<event>
12    2  0.3518828E-008  0.2312762E+04  0.7818608E-02  0.8472906E-01
         -2   -1    0    0    0  501 -0.00000000000E+00  0.00000000000E+00  0.91841599151E+03  0.91841599151E+03  0.00000000000E+00 0.  1.
          2   -1    0    0  501    0  0.00000000000E+00 -0.00000000000E+00 -0.14560041451E+04  0.14560041451E+04  0.00000000000E+00 0. -1.
         23    2    1    2    0    0  0.20604854443E+03  0.76030153817E+02 -0.12381667658E+04  0.12611296671E+04  0.95679205525E+02 0.  0.
        254    2    1    2    0    0 -0.20604854443E+03 -0.76030153817E+02  0.70057861220E+03  0.11132904695E+04  0.83688033235E+03 0.  0.
         23    2    4    4    0    0 -0.45655897516E+03 -0.15986468869E+03  0.18241039308E+03  0.52474669684E+03  0.89903992401E+02 0.  0.
         23    2    4    4    0    0  0.25051043074E+03  0.83834534870E+02  0.51816821912E+03  0.58854377267E+03  0.90009798877E+02 0.  0.
          3    1    3    3  502    0  0.13188250190E+03 -0.46903406208E+00 -0.62336233686E+03  0.63716074684E+03  0.00000000000E+00 0. -1.
         -3    1    3    3    0  502  0.74166042530E+02  0.76499187879E+02 -0.61480442893E+03  0.62396892025E+03  0.00000000000E+00 0.  1.
         11    1    5    5    0    0 -0.10014927087E+03  0.11851185726E+01  0.25612688883E+02  0.10337935381E+03  0.00000000000E+00 0. -1.
        -11    1    5    5    0    0 -0.35640970429E+03 -0.16104980726E+03  0.15679770420E+03  0.42136734303E+03  0.00000000000E+00 0.  1.
          1    1    6    6  503    0  0.85599444531E+01  0.28121486098E+02  0.38624332866E+02  0.48537920421E+02  0.00000000000E+00 0. -1.
         -1    1    6    6    0  503  0.24195048628E+03  0.55713048772E+02  0.47954388626E+03  0.54000585225E+03  0.00000000000E+00 0.  1.
<mgrwt>
<rscale>  0 0.23127624E+04</rscale>
<asrwt>0</asrwt>
<pdfrwt beam="1">  1        2 0.22400064E+00 0.23127624E+04</pdfrwt>
<pdfrwt beam="2">  1       -2 0.14129477E+00 0.23127624E+04</pdfrwt>
<totfact> 0.42702199E+00</totfact>
</mgrwt>
</event>
<event>
12    2  0.3518828E-008  0.2010659E+04  0.7818608E-02  0.8601653E-01
         -2   -1    0    0    0  501 -0.00000000000E+00  0.00000000000E+00  0.70237662570E+03  0.70237662570E+03  0.00000000000E+00 0.  1.
          2   -1    0    0  501    0  0.00000000000E+00 -0.00000000000E+00 -0.14389536297E+04  0.14389536297E+04  0.00000000000E+00 0. -1.
         23    2    1    2    0    0  0.45555605284E+03  0.84753341825E+01  0.40688456551E+03  0.61761282745E+03  0.91035193234E+02 0.  0.
        254    2    1    2    0    0 -0.45555605284E+03 -0.84753341825E+01 -0.11434615695E+04  0.15237174279E+04  0.89811318367E+03 0.  0.
         23    2    4    4    0    0 -0.20144032114E+03 -0.15899019560E+03  0.60736469817E+02  0.28054566014E+03  0.95712399306E+02 0.  0.
         23    2    4    4    0    0 -0.25411573170E+03  0.15051486142E+03 -0.12041980393E+04  0.12431717678E+04  0.90297274248E+02 0.  0.
          2    1    3    3  502    0  0.38475136155E+03  0.20003637368E+02  0.29733026864E+03  0.48666111861E+03  0.00000000000E+00 0.  1.
         -2    1    3    3    0  502  0.70804691291E+02 -0.11528303186E+02  0.10955429687E+03  0.13095170883E+03  0.00000000000E+00 0. -1.
         11    1    5    5    0    0 -0.12404571686E+03 -0.39609067587E+02  0.43202098553E+02  0.13719562466E+03  0.00000000000E+00 0. -1.
        -11    1    5    5    0    0 -0.77394604279E+02 -0.11938112801E+03  0.17534371264E+02  0.14335003548E+03  0.00000000000E+00 0.  1.
          1    1    6    6  503    0 -0.21922437613E+03  0.12915862407E+03 -0.11314840164E+04  0.11597402108E+04  0.00000000000E+00 0. -1.
         -1    1    6    6    0  503 -0.34891355578E+02  0.21356237347E+02 -0.72714022915E+02  0.83431556956E+02  0.00000000000E+00 0.  1.
<mgrwt>
<rscale>  0 0.20106590E+04</rscale>
<asrwt>0</asrwt>
<pdfrwt beam="1">  1        2 0.22137748E+00 0.20106590E+04</pdfrwt>
<pdfrwt beam="2">  1       -2 0.10805794E+00 0.20106590E+04</pdfrwt>
<totfact> 0.87551823E+00</totfact>
</mgrwt>
</event>
<event>
12    2  0.3518828E-008  0.1676888E+04  0.7818608E-02  0.8774657E-01
         -2   -1    0    0    0  501 -0.00000000000E+00  0.00000000000E+00  0.22352875463E+03  0.22352875463E+03  0.00000000000E+00 0. -1.
          2   -1    0    0  501    0  0.00000000000E+00 -0.00000000000E+00 -0.31449580495E+04  0.31449580495E+04  0.00000000000E+00 0.  1.
         23    2    1    2    0    0  0.40608540904E+03 -0.37142271027E+03 -0.60946458857E+03  0.82661324023E+03  0.94774337556E+02 0.  0.
        254    2    1    2    0    0 -0.40608540904E+03  0.37142271027E+03 -0.23119647063E+04  0.25418735639E+04  0.90170961099E+03 0.  0.
         23    2    4    4    0    0 -0.28939534324E+03 -0.13239864379E+03 -0.17172956740E+04  0.17489131419E+04  0.91179387303E+02 0.  0.
         23    2    4    4    0    0 -0.11669006580E+03  0.50382135407E+03 -0.59466903236E+03  0.79296042199E+03  0.87763571697E+02 0.  0.
          3    1    3    3  502    0  0.33848003599E+03 -0.34622418759E+03 -0.50462927761E+03  0.69935014882E+03  0.00000000000E+00 0. -1.
         -3    1    3    3    0  502  0.67605373049E+02 -0.25198522685E+02 -0.10483531095E+03  0.12726309140E+03  0.00000000000E+00 0.  1.
         11    1    5    5    0    0 -0.15832996504E+03 -0.12138734740E+03 -0.10272984452E+04  0.10464919309E+04  0.00000000000E+00 0.  1.
        -11    1    5    5    0    0 -0.13106537820E+03 -0.11011296395E+02 -0.68999722876E+03  0.70242121103E+03  0.00000000000E+00 0. -1.
          1    1    6    6  503    0  0.11512689067E+02  0.86351944318E+02 -0.83910281797E+02  0.12095509782E+03  0.00000000000E+00 0. -1.
         -1    1    6    6    0  503 -0.12820275487E+03  0.41746940975E+03 -0.51075875057E+03  0.67200532417E+03  0.00000000000E+00 0.  1.
<mgrwt>
<rscale>  0 0.16768883E+04</rscale>
<asrwt>0</asrwt>
<pdfrwt beam="1">  1        2 0.48383964E+00 0.16768883E+04</pdfrwt>
<pdfrwt beam="2">  1       -2 0.34389043E-01 0.16768883E+04</pdfrwt>
<totfact> 0.10703027E+01</totfact>
</mgrwt>
</event>
<event>
12    2  0.3518828E-008  0.1371380E+04  0.7818608E-02  0.8974800E-01
          2   -1    0    0  501    0  0.00000000000E+00  0.00000000000E+00  0.53782396858E+03  0.53782396858E+03  0.00000000000E+00 0. -1.
         -2   -1    0    0    0  501 -0.00000000000E+00 -0.00000000000E+00 -0.87420878160E+03  0.87420878160E+03  0.00000000000E+00 0.  1.
         23    2    1    2    0    0 -0.11986171873E+02 -0.19672679250E+02 -0.48289979119E+03  0.49274829476E+03  0.95278492000E+02 0.  0.
        254    2    1    2    0    0  0.11986171873E+02  0.19672679250E+02  0.14651497817E+03  0.91928445541E+03  0.90724119644E+03 0.  0.
         23    2    4    4    0    0  0.14781417267E+03  0.23560559931E+03  0.43442214759E+03  0.52387338555E+03  0.91442297105E+02 0.  0.
         23    2    4    4    0    0 -0.13582800080E+03 -0.21593292006E+03 -0.28790716942E+03  0.39541106987E+03  0.91559293364E+02 0.  0.
          4    1    3    3  502    0  0.10912737164E+02 -0.37368403204E+02 -0.81642749576E+02  0.90449012979E+02  0.00000000000E+00 0. -1.
         -4    1    3    3    0  502 -0.22898909038E+02  0.17695723954E+02 -0.40125704161E+03  0.40229928178E+03  0.00000000000E+00 0.  1.
         11    1    5    5    0    0  0.14623987838E+02  0.46113056838E+02  0.14691650582E+03  0.15467622543E+03  0.00000000000E+00 0. -1.
        -11    1    5    5    0    0  0.13319018483E+03  0.18949254247E+03  0.28750564177E+03  0.36919716012E+03  0.00000000000E+00 0.  1.
          3    1    6    6  503    0 -0.56452791862E+02 -0.16650857361E+03 -0.20852704558E+03  0.27275547938E+03  0.00000000000E+00 0. -1.
         -3    1    6    6    0  503 -0.79375208937E+02 -0.49424346449E+02 -0.79380123844E+02  0.12265559049E+03  0.00000000000E+00 0.  1.
<mgrwt>
<rscale>  0 0.13713795E+04</rscale>
<asrwt>0</asrwt>
<pdfrwt beam="1">  1        2 0.82742150E-01 0.13713795E+04</pdfrwt>
<pdfrwt beam="2">  1       -2 0.13449366E+00 0.13713795E+04</pdfrwt>
<totfact> 0.21948599E+01</totfact>
</mgrwt>
</event>
<event>
12    2  0.3518828E-008  0.1395834E+04  0.7818608E-02  0.8956839E-01
         -1   -1    0    0    0  501 -0.00000000000E+00  0.00000000000E+00  0.58970842564E+03  0.58970842564E+03  0.00000000000E+00 0.  1.
          1   -1    0    0  501    0  0.00000000000E+00 -0.00000000000E+00 -0.82598156112E+03  0.82598156112E+03  0.00000000000E+00 0. -1.
         23    2    1    2    0    0  0.13409331719E+02  0.32024216455E+03 -0.28924527864E+03  0.44023695500E+03  0.86086533256E+02 0.  0.
        254    2    1    2    0    0 -0.13409331719E+02 -0.32024216455E+03  0.52972143159E+02  0.97545303176E+03  0.91976503254E+03 0.  0.
         23    2    4    4    0    0 -0.45235012119E+02 -0.56936833297E+03 -0.19670461455E+03  0.60982956398E+03  0.83503813182E+02 0.  0.
         23    2    4    4    0    0  0.31825680400E+02  0.24912616842E+03  0.24967675771E+03  0.36562346778E+03  0.90913778524E+02 0.  0.
          3    1    3    3  502    0  0.28388146089E+02  0.28348022146E+03 -0.28004184121E+03  0.39948761636E+03  0.00000000000E+00 0. -1.
         -3    1    3    3    0  502 -0.14978814370E+02  0.36761943086E+02 -0.92034374250E+01  0.40749338643E+02  0.00000000000E+00 0.  1.
         11    1    5    5    0    0 -0.49417775264E+02 -0.57057484753E+03 -0.19645658193E+03  0.60546920791E+03  0.00000000000E+00 0. -1.
        -11    1    5    5    0    0  0.41827631447E+01  0.12065145600E+01 -0.24803261676E+00  0.43603560734E+01  0.00000000000E+00 0.  1.
          3    1    6    6  503    0 -0.56778406435E+00  0.22832197045E+03  0.20760176699E+03  0.30859315972E+03  0.00000000000E+00 0. -1.
         -3    1    6    6    0  503  0.32393464464E+02  0.20804197971E+02  0.42074990720E+02  0.57030308059E+02  0.00000000000E+00 0.  1.
<mgrwt>
<rscale>  0 0.13958342E+04</rscale>
<asrwt>0</asrwt>
<pdfrwt beam="1">  1        1 0.12707409E+00 0.13958342E+04</pdfrwt>
<pdfrwt beam="2">  1       -1 0.90724373E-01 0.13958342E+04</pdfrwt>
<totfact> 0.24309299E+01</totfact>
</mgrwt>
</event>
<event>
12    2  0.3518828E-008  0.1057414E+04  0.7818608E-02  0.9247723E-01
         -2   -1    0    0    0  501 -0.00000000000E+00  0.00000000000E+00  0.31333977085E+03  0.31333977085E+03  0.00000000000E+00 0.  1.
          2   -1    0    0  501    0  0.00000000000E+00 -0.00000000000E+00 -0.89210260660E+03  0.89210260660E+03  0.00000000000E+00 0. -1.
         23    2    1    2    0    0  0.37678390296E+02  0.11393108330E+03 -0.71960299989E+02  0.16179731248E+03  0.81241200831E+02 0.  0.
        254    2    1    2    0    0 -0.37678390296E+02 -0.11393108330E+03 -0.50680253576E+03  0.10436450650E+04  0.90440381388E+03 0.  0.
         23    2    4    4    0    0 -0.30991802832E+03 -0.26100371703E+03 -0.57965023249E+03  0.71310103481E+03  0.91359560267E+02 0.  0.
         23    2    4    4    0    0  0.27223963802E+03  0.14707263372E+03  0.72847696725E+02  0.33054403016E+03  0.90596847951E+02 0.  0.
          1    1    3    3  502    0  0.22489182553E+02  0.69417608798E+01 -0.44436990720E+02  0.50285162029E+02  0.00000000000E+00 0. -1.
         -1    1    3    3    0  502  0.15189207743E+02  0.10698932242E+03 -0.27523309269E+02  0.11151215045E+03  0.00000000000E+00 0.  1.
         11    1    5    5    0    0 -0.46166413571E+02 -0.29907843055E+02 -0.14205867494E+03  0.15233674522E+03  0.00000000000E+00 0.  1.
        -11    1    5    5    0    0 -0.26375161474E+03 -0.23109587397E+03 -0.43759155755E+03  0.56076428959E+03  0.00000000000E+00 0. -1.
          1    1    6    6  503    0  0.24291912229E+03  0.15738359555E+03  0.54752651773E+02  0.29457961402E+03  0.00000000000E+00 0. -1.
         -1    1    6    6    0  503  0.29320515732E+02 -0.10310961825E+02  0.18095044952E+02  0.35964416141E+02  0.00000000000E+00 0.  1.
<mgrwt>
<rscale>  0 0.10574143E+04</rscale>
<asrwt>0</asrwt>
<pdfrwt beam="1">  1        2 0.13724655E+00 0.10574143E+04</pdfrwt>
<pdfrwt beam="2">  1       -2 0.48206119E-01 0.10574143E+04</pdfrwt>
<totfact> 0.12042146E+02</totfact>
</mgrwt>
</event>
<event>
12    2  0.3518828E-008  0.1338301E+04  0.7818608E-02  0.8999732E-01
          1   -1    0    0  501    0  0.00000000000E+00  0.00000000000E+00  0.65726109108E+03  0.65726109108E+03  0.00000000000E+00 0. -1.
         -1   -1    0    0    0  501 -0.00000000000E+00 -0.00000000000E+00 -0.68125489336E+03  0.68125489336E+03  0.00000000000E+00 0.  1.
         23    2    1    2    0    0 -0.57756349398E+02 -0.24138911813E+03 -0.24728993288E+03  0.36195251495E+03  0.90844977440E+02 0.  0.
        254    2    1    2    0    0  0.57756349398E+02  0.24138911813E+03  0.22329613059E+03  0.97656346950E+03  0.91772029823E+03 0.  0.
         23    2    4    4    0    0 -0.96285007237E+02 -0.26639792725E+03 -0.13876785885E+03  0.32785224531E+03  0.89397527071E+02 0.  0.
         23    2    4    4    0    0  0.15404135664E+03  0.50778704538E+03  0.36206398944E+03  0.64871122419E+03  0.90329933749E+02 0.  0.
          1    1    3    3  502    0 -0.70219814793E+01 -0.68916602830E+02 -0.12997102260E+03  0.14727957456E+03  0.00000000000E+00 0. -1.
         -1    1    3    3    0  502 -0.50734367919E+02 -0.17247251530E+03 -0.11731891028E+03  0.21467294038E+03  0.00000000000E+00 0.  1.
         11    1    5    5    0    0 -0.24176471974E+01 -0.10979379796E+02  0.12256700412E+02  0.16631852081E+02  0.00000000000E+00 0. -1.
        -11    1    5    5    0    0 -0.93867360040E+02 -0.25541854745E+03 -0.15102455926E+03  0.31122039323E+03  0.00000000000E+00 0.  1.
          4    1    6    6  503    0  0.71729619489E+02  0.33572966779E+03  0.27086964301E+03  0.43729842402E+03  0.00000000000E+00 0.  1.
         -4    1    6    6    0  503  0.82311737146E+02  0.17205737759E+03  0.91194346437E+02  0.21141280017E+03  0.00000000000E+00 0. -1.
<mgrwt>
<rscale>  0 0.13383009E+04</rscale>
<asrwt>0</asrwt>
<pdfrwt beam="1">  1        1 0.10111709E+00 0.13383009E+04</pdfrwt>
<pdfrwt beam="2">  1       -1 0.10480844E+00 0.13383009E+04</pdfrwt>
<totfact> 0.25105282E+01</totfact>
</mgrwt>
</event>
<event>
12    2  0.3518828E-008  0.2515051E+04  0.7818608E-02  0.8397643E-01
          2   -1    0    0  501    0  0.00000000000E+00  0.00000000000E+00  0.12075547140E+04  0.12075547140E+04  0.00000000000E+00 0. -1.
         -2   -1    0    0    0  501 -0.00000000000E+00 -0.00000000000E+00 -0.13095642640E+04  0.13095642640E+04  0.00000000000E+00 0.  1.
         23    2    1    2    0    0  0.83376430057E+03  0.48043065922E+03 -0.54852426873E+03  0.11114453324E+04  0.91952847754E+02 0.  0.
        254    2    1    2    0    0 -0.83376430057E+03 -0.48043065922E+03  0.44651471873E+03  0.14056736457E+04  0.92226160977E+03 0.  0.
         23    2    4    4    0    0  0.71022614558E+02 -0.33549115199E+03  0.31721015519E+03  0.47565943641E+03  0.89616360404E+02 0.  0.
         23    2    4    4    0    0 -0.90478691513E+03 -0.14493950723E+03  0.12930456355E+03  0.93001420925E+03  0.92519926059E+02 0.  0.
          1    1    3    3  502    0  0.34315261184E+03  0.24758216983E+03 -0.25712705027E+03  0.49514135943E+03  0.00000000000E+00 0. -1.
         -1    1    3    3    0  502  0.49061168873E+03  0.23284848939E+03 -0.29139721846E+03  0.61630397293E+03  0.00000000000E+00 0.  1.
         11    1    5    5    0    0 -0.13693415536E+02 -0.10867009885E+03  0.72128203845E+02  0.13114563586E+03  0.00000000000E+00 0.  1.
        -11    1    5    5    0    0  0.84716030094E+02 -0.22682105314E+03  0.24508195134E+03  0.34451380056E+03  0.00000000000E+00 0. -1.
          3    1    6    6  503    0 -0.72456495186E+03 -0.14960108547E+03  0.88020533138E+02  0.74506541223E+03  0.00000000000E+00 0. -1.
         -3    1    6    6    0  503 -0.18022196327E+03  0.46615782469E+01  0.41284030409E+02  0.18494879703E+03  0.00000000000E+00 0.  1.
<mgrwt>
<rscale>  0 0.25150511E+04</rscale>
<asrwt>0</asrwt>
<pdfrwt beam="1">  1        2 0.18577765E+00 0.25150511E+04</pdfrwt>
<pdfrwt beam="2">  1       -2 0.20147143E+00 0.25150511E+04</pdfrwt>
<totfact> 0.21718830E+00</totfact>
</mgrwt>
</event>
<event>
12    2  0.3518828E-008  0.1796029E+04  0.7818608E-02  0.8708414E-01
          1   -1    0    0  501    0  0.00000000000E+00  0.00000000000E+00  0.11351290315E+04  0.11351290315E+04  0.00000000000E+00 0. -1.
         -1   -1    0    0    0  501 -0.00000000000E+00 -0.00000000000E+00 -0.71043040074E+03  0.71043040074E+03  0.00000000000E+00 0.  1.
         23    2    1    2    0    0 -0.16064457775E+03  0.31763347226E+03 -0.42261989977E+03  0.56059623789E+03  0.94672378219E+02 0.  0.
        254    2    1    2    0    0  0.16064457775E+03 -0.31763347226E+03  0.84731853058E+03  0.12849631944E+04  0.89804455102E+03 0.  0.
         23    2    4    4    0    0  0.35225002044E+03 -0.51086063179E+03  0.75999200063E+03  0.98581248636E+03  0.95811039154E+02 0.  0.
         23    2    4    4    0    0 -0.19160544269E+03  0.19322715953E+03  0.87326529955E+02  0.29915070803E+03  0.88407253280E+02 0.  0.
          1    1    3    3  502    0 -0.36050914855E+02  0.14497180901E+03 -0.22513801782E+03  0.27019182249E+03  0.00000000000E+00 0. -1.
         -1    1    3    3    0  502 -0.12459366290E+03  0.17266166325E+03 -0.19748188195E+03  0.29040441540E+03  0.00000000000E+00 0.  1.
         11    1    5    5    0    0  0.27010888348E+03 -0.44101560350E+03  0.66248367098E+03  0.84043928144E+03  0.00000000000E+00 0.  1.
        -11    1    5    5    0    0  0.82141136961E+02 -0.69845028294E+02  0.97508329644E+02  0.14537320492E+03  0.00000000000E+00 0. -1.
          4    1    6    6  503    0 -0.43249443085E+01 -0.10015108661E+01 -0.11093048139E+02  0.11948384171E+02  0.00000000000E+00 0. -1.
         -4    1    6    6    0  503 -0.18728049838E+03  0.19422867040E+03  0.98419578094E+02  0.28720232386E+03  0.00000000000E+00 0.  1.
<mgrwt>
<rscale>  0 0.17960291E+04</rscale>
<asrwt>0</asrwt>
<pdfrwt beam="1">  1        1 0.17463524E+00 0.17960291E+04</pdfrwt>
<pdfrwt beam="2">  1       -1 0.10929698E+00 0.17960291E+04</pdfrwt>
<totfact> 0.87286241E+00</totfact>
</mgrwt>
</event>
<event>
12    2  0.3518828E-008  0.1847566E+04  0.7818608E-02  0.8681405E-01
          2   -1    0    0  501    0  0.00000000000E+00  0.00000000000E+00  0.11014828799E+04  0.11014828799E+04  0.00000000000E+00 0. -1.
         -2   -1    0    0    0  501 -0.00000000000E+00 -0.00000000000E+00 -0.77475134608E+03  0.77475134608E+03  0.00000000000E+00 0.  1.
         23    2    1    2    0    0  0.42808194560E+03 -0.26446435143E+03 -0.37206059723E+03  0.63253017233E+03  0.92031437922E+02 0.  0.
        254    2    1    2    0    0 -0.42808194560E+03  0.26446435143E+03  0.69879213109E+03  0.12437040537E+04  0.89738162751E+03 0.  0.
         23    2    4    4    0    0 -0.20641173745E+03  0.46496833993E+03  0.76619442320E+03  0.92395792211E+03  0.88560629992E+02 0.  0.
         23    2    4    4    0    0 -0.22167020816E+03 -0.20050398850E+03 -0.67402292107E+02  0.31974613160E+03  0.91405629491E+02 0.  0.
          4    1    3    3  502    0  0.12398352105E+03 -0.96673460444E+02 -0.69447892128E+02  0.17187402703E+03  0.00000000000E+00 0. -1.
         -4    1    3    3    0  502  0.30409842455E+03 -0.16779089099E+03 -0.30261270510E+03  0.46065614530E+03  0.00000000000E+00 0.  1.
         11    1    5    5    0    0 -0.11558770928E+03  0.35704120422E+03  0.56153669195E+03  0.67539795414E+03  0.00000000000E+00 0. -1.
        -11    1    5    5    0    0 -0.90824028171E+02  0.10792713571E+03  0.20465773125E+03  0.24855996797E+03  0.00000000000E+00 0.  1.
          3    1    6    6  503    0 -0.12259256029E+03 -0.61297139851E+02 -0.28469971520E+01  0.13709259858E+03  0.00000000000E+00 0. -1.
         -3    1    6    6    0  503 -0.99077647863E+02 -0.13920684865E+03 -0.64555294955E+02  0.18265353302E+03  0.00000000000E+00 0.  1.
<mgrwt>
<rscale>  0 0.18475663E+04</rscale>
<asrwt>0</asrwt>
<pdfrwt beam="1">  1        2 0.16945890E+00 0.18475663E+04</pdfrwt>
<pdfrwt beam="2">  1       -2 0.11919251E+00 0.18475663E+04</pdfrwt>
<totfact> 0.11042264E+01</totfact>
</mgrwt>
</event>
<event>
12    2  0.3518828E-008  0.2762763E+04  0.7818608E-02  0.8314923E-01
         -2   -1    0    0    0  501 -0.00000000000E+00  0.00000000000E+00  0.67286826097E+03  0.67286826097E+03  0.00000000000E+00 0.  1.
          2   -1    0    0  501    0  0.00000000000E+00 -0.00000000000E+00 -0.28359409577E+04  0.28359409577E+04  0.00000000000E+00 0. -1.
         23    2    1    2    0    0  0.56417880320E+03  0.17419129411E+03  0.40661977635E+03  0.72251632460E+03  0.89721055874E+02 0.  0.
        254    2    1    2    0    0 -0.56417880320E+03 -0.17419129411E+03 -0.25696924730E+04  0.27862928940E+04  0.90081538423E+03 0.  0.
         23    2    4    4    0    0 -0.49174710083E+03 -0.46387659284E+03 -0.11870658252E+04  0.13693078691E+04  0.94244694314E+02 0.  0.
         23    2    4    4    0    0 -0.72431702367E+02  0.28968529873E+03 -0.13826266478E+04  0.14169850249E+04  0.83822370759E+02 0.  0.
          2    1    3    3  502    0  0.71819131544E+02  0.21253557351E+02  0.18384198176E+02  0.77121203948E+02  0.00000000000E+00 0. -1.
         -2    1    3    3    0  502  0.49235967166E+03  0.15293773676E+03  0.38823557817E+03  0.64539512065E+03  0.00000000000E+00 0.  1.
         11    1    5    5    0    0 -0.13669612757E+03 -0.19029283543E+03 -0.41280175539E+03  0.47466038782E+03  0.00000000000E+00 0.  1.
        -11    1    5    5    0    0 -0.35505097327E+03 -0.27358375741E+03 -0.77426406982E+03  0.89464748127E+03  0.00000000000E+00 0. -1.
          3    1    6    6  503    0 -0.11492693437E+02  0.16366591101E+03 -0.88331200636E+03  0.89842012055E+03  0.00000000000E+00 0. -1.
         -3    1    6    6    0  503 -0.60939008930E+02  0.12601938772E+03 -0.49931464146E+03  0.51856490439E+03  0.00000000000E+00 0.  1.
<mgrwt>
<rscale>  0 0.27627629E+04</rscale>
<asrwt>0</asrwt>
<pdfrwt beam="1">  1        2 0.43629862E+00 0.27627629E+04</pdfrwt>
<pdfrwt beam="2">  1       -2 0.10351819E+00 0.27627629E+04</pdfrwt>
<totfact> 0.14592935E+00</totfact>
</mgrwt>
</event>
<event>
12    2  0.3518828E-008  0.2242972E+04  0.7818608E-02  0.8500752E-01
          2   -1    0    0  501    0  0.00000000000E+00  0.00000000000E+00  0.33250521708E+04  0.33250521708E+04  0.00000000000E+00 0. -1.
         -2   -1    0    0    0  501 -0.00000000000E+00 -0.00000000000E+00 -0.37825896491E+03  0.37825896491E+03  0.00000000000E+00 0.  1.
         23    2    1    2    0    0  0.72295998961E+03  0.34454332575E+03  0.44140444485E+03  0.91858616553E+03  0.87071290814E+02 0.  0.
        254    2    1    2    0    0 -0.72295998961E+03 -0.34454332575E+03  0.25053887611E+04  0.27847249702E+04  0.91451575477E+03 0.  0.
         23    2    4    4    0    0 -0.46886262718E+03  0.25832895197E+03  0.13246941082E+04  0.14316482698E+04  0.90753939997E+02 0.  0.
         23    2    4    4    0    0 -0.25409736243E+03 -0.60287227771E+03  0.11806946529E+04  0.13530767004E+04  0.93574788051E+02 0.  0.
          3    1    3    3  502    0  0.42682480765E+03  0.25018756934E+03  0.26706662139E+03  0.56222577008E+03  0.00000000000E+00 0. -1.
         -3    1    3    3    0  502  0.29613518196E+03  0.94355756404E+02  0.17433782346E+03  0.35636039546E+03  0.00000000000E+00 0.  1.
         11    1    5    5    0    0 -0.88225221010E+02  0.10757679735E+02  0.21337037146E+03  0.23114136954E+03  0.00000000000E+00 0.  1.
        -11    1    5    5    0    0 -0.38063740616E+03  0.24757127223E+03  0.11113237368E+04  0.12005069003E+04  0.00000000000E+00 0. -1.
          4    1    6    6  503    0 -0.17166742082E+03 -0.49645010442E+03  0.96860523232E+03  0.11018749955E+04  0.00000000000E+00 0. -1.
         -4    1    6    6    0  503 -0.82429941609E+02 -0.10642217330E+03  0.21208942053E+03  0.25120170490E+03  0.00000000000E+00 0.  1.
<mgrwt>
<rscale>  0 0.22429720E+04</rscale>
<asrwt>0</asrwt>
<pdfrwt beam="1">  1        2 0.51154647E+00 0.22429720E+04</pdfrwt>
<pdfrwt beam="2">  1       -2 0.58193689E-01 0.22429720E+04</pdfrwt>
<totfact> 0.27026153E+00</totfact>
</mgrwt>
</event>
<event>
12    2  0.3518828E-008  0.1969821E+04  0.7818608E-02  0.8620862E-01
         -3   -1    0    0    0  501 -0.00000000000E+00  0.00000000000E+00  0.38911313379E+04  0.38911313379E+04  0.00000000000E+00 0.  1.
          3   -1    0    0  501    0  0.00000000000E+00 -0.00000000000E+00 -0.24929742779E+03  0.24929742779E+03  0.00000000000E+00 0. -1.
         23    2    1    2    0    0 -0.17696707869E+03  0.14078971313E+03 -0.11334791150E+03  0.26843179517E+03  0.89826440176E+02 0.  0.
        254    2    1    2    0    0  0.17696707869E+03 -0.14078971313E+03  0.37551818216E+04  0.38719969705E+04  0.91642290244E+03 0.  0.
         23    2    4    4    0    0  0.51899514285E+03  0.69016063889E+02  0.20344689170E+04  0.21027214934E+04  0.90855540687E+02 0.  0.
         23    2    4    4    0    0 -0.34202806416E+03 -0.20980577702E+03  0.17207129046E+04  0.17692754771E+04  0.92093175847E+02 0.  0.
          1    1    3    3  502    0 -0.14641869302E+03  0.14941475557E+03 -0.11043244091E+03  0.23655554707E+03  0.00000000000E+00 0. -1.
         -1    1    3    3    0  502 -0.30548385670E+02 -0.86250424367E+01 -0.29154705964E+01  0.31876248100E+02  0.00000000000E+00 0.  1.
         11    1    5    5    0    0  0.53517357967E+02 -0.12150730650E+02  0.14411854351E+03  0.15421382053E+03  0.00000000000E+00 0. -1.
        -11    1    5    5    0    0  0.46547778488E+03  0.81166794538E+02  0.18903503735E+04  0.19485076729E+04  0.00000000000E+00 0.  1.
          1    1    6    6  503    0 -0.22264373944E+02 -0.41283405186E+02  0.13591453398E+03  0.14378032702E+03  0.00000000000E+00 0. -1.
         -1    1    6    6    0  503 -0.31976369022E+03 -0.16852237184E+03  0.15847983706E+04  0.16254951501E+04  0.00000000000E+00 0.  1.
<mgrwt>
<rscale>  0 0.19698213E+04</rscale>
<asrwt>0</asrwt>
<pdfrwt beam="1">  1        3 0.38353453E-01 0.19698213E+04</pdfrwt>
<pdfrwt beam="2">  1       -3 0.59863555E+00 0.19698213E+04</pdfrwt>
<totfact> 0.15280930E-02</totfact>
</mgrwt>
</event>
<event>
12    2  0.3518828E-008  0.2127246E+04  0.7818608E-02  0.8549335E-01
          1   -1    0    0  501    0  0.00000000000E+00  0.00000000000E+00  0.19638821938E+04  0.19638821938E+04  0.00000000000E+00 0. -1.
         -1   -1    0    0    0  501 -0.00000000000E+00 -0.00000000000E+00 -0.57604998885E+03  0.57604998885E+03  0.00000000000E+00 0.  1.
         23    2    1    2    0    0 -0.57330917868E+03 -0.81768115130E+02 -0.20572209219E+03  0.62131911247E+03  0.91358750507E+02 0.  0.
        254    2    1    2    0    0  0.57330917868E+03  0.81768115130E+02  0.15935542971E+04  0.19186130702E+04  0.89793728964E+03 0.  0.
         23    2    4    4    0    0  0.48316431565E+03 -0.67981176174E+02  0.24095377926E+03  0.55178563120E+03  0.91320659343E+02 0.  0.
         23    2    4    4    0    0  0.90144863027E+02  0.14974929130E+03  0.13526005179E+04  0.13668274390E+04  0.90211642253E+02 0.  0.
          2    1    3    3  502    0 -0.31862351090E+03 -0.36120929526E+02 -0.66462905742E+02  0.32747974149E+03  0.00000000000E+00 0.  1.
         -2    1    3    3    0  502 -0.25468566778E+03 -0.45647185604E+02 -0.13925918645E+03  0.29383937098E+03  0.00000000000E+00 0. -1.
         11    1    5    5    0    0  0.22929562509E+03  0.46126369439E+01  0.81844599593E+02  0.24350831318E+03  0.00000000000E+00 0.  1.
        -11    1    5    5    0    0  0.25386869057E+03 -0.72593813118E+02  0.15910917966E+03  0.30827731802E+03  0.00000000000E+00 0. -1.
          1    1    6    6  503    0 -0.70714837879E+01  0.36846316757E+02  0.13402297648E+03  0.13917548335E+03  0.00000000000E+00 0. -1.
         -1    1    6    6    0  503  0.97216346815E+02  0.11290297455E+03  0.12185775414E+04  0.12276519556E+04  0.00000000000E+00 0.  1.
<mgrwt>
<rscale>  0 0.21272464E+04</rscale>
<asrwt>0</asrwt>
<pdfrwt beam="1">  1        1 0.30213572E+00 0.21272464E+04</pdfrwt>
<pdfrwt beam="2">  1       -1 0.88623076E-01 0.21272464E+04</pdfrwt>
<totfact> 0.36148488E+00</totfact>
</mgrwt>
</event>
<event>
12    2  0.3518828E-008  0.1602615E+04  0.7818608E-02  0.8818943E-01
          2   -1    0    0  501    0  0.00000000000E+00  0.00000000000E+00  0.25673938981E+04  0.25673938981E+04  0.00000000000E+00 0. -1.
         -2   -1    0    0    0  501 -0.00000000000E+00 -0.00000000000E+00 -0.25009566116E+03  0.25009566116E+03  0.00000000000E+00 0.  1.
         23    2    1    2    0    0  0.18796656785E+03  0.52782079184E+00  0.17221081780E+04  0.17346264493E+04  0.89110228104E+02 0.  0.
        254    2    1    2    0    0 -0.18796656785E+03 -0.52782079184E+00  0.59519005894E+03  0.10828631099E+04  0.88487829636E+03 0.  0.
         23    2    4    4    0    0  0.25376521303E+03 -0.10868814645E+03 -0.42990790704E+02  0.29406038210E+03  0.91724607979E+02 0.  0.
         23    2    4    4    0    0 -0.44173178088E+03  0.10816032566E+03  0.63818084965E+03  0.78880272783E+03  0.90051786714E+02 0.  0.
          1    1    3    3  502    0  0.15346415978E+03 -0.21637937372E+02  0.15486895648E+04  0.15564250116E+04  0.00000000000E+00 0. -1.
         -1    1    3    3    0  502  0.34502408066E+02  0.22165758164E+02  0.17341861314E+03  0.17820143765E+03  0.00000000000E+00 0.  1.
         11    1    5    5    0    0  0.27183969436E+02  0.16459047636E+02 -0.87435559607E+01  0.32959341835E+02  0.00000000000E+00 0. -1.
        -11    1    5    5    0    0  0.22658124360E+03 -0.12514719409E+03 -0.34247234744E+02  0.26110104026E+03  0.00000000000E+00 0.  1.
          4    1    6    6  503    0 -0.20140633252E+03  0.17167852876E+02  0.33614363312E+03  0.39223945243E+03  0.00000000000E+00 0. -1.
         -4    1    6    6    0  503 -0.24032544837E+03  0.90992472782E+02  0.30203721653E+03  0.39656327541E+03  0.00000000000E+00 0.  1.
<mgrwt>
<rscale>  0 0.16026155E+04</rscale>
<asrwt>0</asrwt>
<pdfrwt beam="1">  1        2 0.39498366E+00 0.16026155E+04</pdfrwt>
<pdfrwt beam="2">  1       -2 0.38476257E-01 0.16026155E+04</pdfrwt>
<totfact> 0.19503534E+01</totfact>
</mgrwt>
</event>
<event>
12    2  0.3518828E-008  0.1503846E+04  0.7818608E-02  0.8881899E-01
          1   -1    0    0  501    0  0.00000000000E+00  0.00000000000E+00  0.10323495410E+04  0.10323495410E+04  0.00000000000E+00 0. -1.
         -1   -1    0    0    0  501 -0.00000000000E+00 -0.00000000000E+00 -0.54767140943E+03  0.54767140943E+03  0.00000000000E+00 0.  1.
         23    2    1    2    0    0  0.35717125086E+03 -0.10267575430E+02 -0.16844426734E+03  0.40517492069E+03  0.90091728868E+02 0.  0.
        254    2    1    2    0    0 -0.35717125086E+03  0.10267575430E+02  0.65312239892E+03  0.11748460298E+04  0.90885510402E+03 0.  0.
         23    2    4    4    0    0  0.23367062004E+03 -0.10642059053E+02 -0.46728506872E+02  0.25367748381E+03  0.86333657109E+02 0.  0.
         23    2    4    4    0    0 -0.59084187090E+03  0.20909634483E+02  0.69985090579E+03  0.92116854594E+03  0.96067010332E+02 0.  0.
          1    1    3    3  502    0  0.18353588854E+02 -0.90699434714E+01  0.93878420314E+01  0.22522204075E+02  0.00000000000E+00 0. -1.
         -1    1    3    3    0  502  0.33881766201E+03 -0.11976319583E+01 -0.17783210937E+03  0.38265271661E+03  0.00000000000E+00 0.  1.
         11    1    5    5    0    0  0.39217504006E+02 -0.35452006227E+02 -0.16144177404E+02  0.55276503418E+02  0.00000000000E+00 0. -1.
        -11    1    5    5    0    0  0.19445311603E+03  0.24809947174E+02 -0.30584329468E+02  0.19840098039E+03  0.00000000000E+00 0.  1.
          1    1    6    6  503    0 -0.25788172826E+03  0.56006771444E+02  0.29484457801E+03  0.39569315056E+03  0.00000000000E+00 0. -1.
         -1    1    6    6    0  503 -0.33296014264E+03 -0.35097136961E+02  0.40500632778E+03  0.52547539538E+03  0.00000000000E+00 0.  1.
<mgrwt>
<rscale>  0 0.15038462E+04</rscale>
<asrwt>0</asrwt>
<pdfrwt beam="1">  1        1 0.15882301E+00 0.15038462E+04</pdfrwt>
<pdfrwt beam="2">  1       -1 0.84257140E-01 0.15038462E+04</pdfrwt>
<totfact> 0.19273028E+01</totfact>
</mgrwt>
</event>
<event>
12    2  0.3518828E-008  0.3023597E+04  0.7818608E-02  0.8237025E-01
          1   -1    0    0  501    0  0.00000000000E+00  0.00000000000E+00  0.13854187382E+04  0.13854187382E+04  0.00000000000E+00 0. -1.
         -1   -1    0    0    0  501 -0.00000000000E+00 -0.00000000000E+00 -0.16497064349E+04  0.16497064349E+04  0.00000000000E+00 0.  1.
         23    2    1    2    0    0  0.66077762944E+03  0.25927140473E+03 -0.13041562488E+04  0.14876471065E+04  0.91769576599E+02 0.  0.
        254    2    1    2    0    0 -0.66077762944E+03 -0.25927140473E+03  0.10398685520E+04  0.15474780666E+04  0.89972941727E+03 0.  0.
         23    2    4    4    0    0  0.15963482434E+02 -0.42773752545E+03  0.47214063509E+03  0.64376462330E+03  0.91114693938E+02 0.  0.
         23    2    4    4    0    0 -0.67674111188E+03  0.16846612072E+03  0.56772791695E+03  0.90371344334E+03  0.89574737778E+02 0.  0.
          4    1    3    3  502    0  0.23528140707E+02  0.17982287782E+02 -0.26946951261E+02  0.40038409824E+02  0.00000000000E+00 0. -1.
         -4    1    3    3    0  502  0.63724948873E+03  0.24128911695E+03 -0.12772092976E+04  0.14476086966E+04  0.00000000000E+00 0.  1.
         11    1    5    5    0    0  0.36460760747E+01 -0.40861355717E+03  0.41569170505E+03  0.58290473203E+03  0.00000000000E+00 0. -1.
        -11    1    5    5    0    0  0.12317406359E+02 -0.19123968284E+02  0.56448930044E+02  0.60859891270E+02  0.00000000000E+00 0.  1.
          1    1    6    6  503    0 -0.66132957006E+03  0.17817238904E+03  0.55300744387E+03  0.88029508315E+03  0.00000000000E+00 0. -1.
         -1    1    6    6    0  503 -0.15411541816E+02 -0.97062683199E+01  0.14720473088E+02  0.23418360185E+02  0.00000000000E+00 0.  1.
<mgrwt>
<rscale>  0 0.30235967E+04</rscale>
<asrwt>0</asrwt>
<pdfrwt beam="1">  1        1 0.21314134E+00 0.30235967E+04</pdfrwt>
<pdfrwt beam="2">  1       -1 0.25380099E+00 0.30235967E+04</pdfrwt>
<totfact> 0.43994011E-01</totfact>
</mgrwt>
</event>
<event>
12    2  0.3518828E-008  0.1201144E+04  0.7818608E-02  0.9111856E-01
         -1   -1    0    0    0  501 -0.00000000000E+00  0.00000000000E+00  0.22703027683E+03  0.22703027683E+03  0.00000000000E+00 0.  1.
          1   -1    0    0  501    0  0.00000000000E+00 -0.00000000000E+00 -0.15887161038E+04  0.15887161038E+04  0.00000000000E+00 0. -1.
         23    2    1    2    0    0  0.60891029342E+02  0.44314142395E+02 -0.66056661896E+03  0.67111048121E+03  0.91485295175E+02 0.  0.
        254    2    1    2    0    0 -0.60891029342E+02 -0.44314142395E+02 -0.70111920805E+03  0.11446358994E+04  0.90163836306E+03 0.  0.
         23    2    4    4    0    0  0.25236371721E+03  0.31847362526E+03 -0.30725429002E+03  0.51795003619E+03  0.93563590682E+02 0.  0.
         23    2    4    4    0    0 -0.31325474656E+03 -0.36278776765E+03 -0.39386491803E+03  0.62668586326E+03  0.88668466536E+02 0.  0.
          1    1    3    3  502    0  0.70217198565E+02  0.35922351510E+02 -0.29599968876E+03  0.30632774288E+03  0.00000000000E+00 0. -1.
         -1    1    3    3    0  502 -0.93261692236E+01  0.83917908855E+01 -0.36456693020E+03  0.36478273833E+03  0.00000000000E+00 0.  1.
         11    1    5    5    0    0  0.83669506756E+02  0.10745545160E+03 -0.16053590895E+03  0.21052087427E+03  0.00000000000E+00 0.  1.
        -11    1    5    5    0    0  0.16869421046E+03  0.21101817366E+03 -0.14671838107E+03  0.30742916192E+03  0.00000000000E+00 0. -1.
          4    1    6    6  503    0 -0.25325789791E+03 -0.30296859339E+03 -0.36341774811E+03  0.53665816967E+03  0.00000000000E+00 0. -1.
         -4    1    6    6    0  503 -0.59996848644E+02 -0.59819174263E+02 -0.30447169922E+02  0.90027693589E+02  0.00000000000E+00 0.  1.
<mgrwt>
<rscale>  0 0.12011439E+04</rscale>
<asrwt>0</asrwt>
<pdfrwt beam="1">  1        1 0.24441787E+00 0.12011439E+04</pdfrwt>
<pdfrwt beam="2">  1       -1 0.34927733E-01 0.12011439E+04</pdfrwt>
<totfact> 0.43785752E+01</totfact>
</mgrwt>
</event>
<event>
12    2  0.3518828E-008  0.1734027E+04  0.7818608E-02  0.8742192E-01
         -1   -1    0    0    0  501 -0.00000000000E+00  0.00000000000E+00  0.14186919078E+04  0.14186919078E+04  0.00000000000E+00 0.  1.
          1   -1    0    0  501    0  0.00000000000E+00 -0.00000000000E+00 -0.52986299783E+03  0.52986299783E+03  0.00000000000E+00 0. -1.
         23    2    1    2    0    0 -0.22013672802E+03 -0.35761545033E+03  0.83646062081E+03  0.94136791446E+03  0.10078785081E+03 0.  0.
        254    2    1    2    0    0  0.22013672802E+03  0.35761545033E+03  0.52368289144E+02  0.10071869912E+04  0.91396619638E+03 0.  0.
         23    2    4    4    0    0  0.13282296737E+03 -0.27489837244E+03  0.15453060692E+03  0.35437701273E+03  0.92153691467E+02 0.  0.
         23    2    4    4    0    0  0.87313760649E+02  0.63251382276E+03 -0.10216231777E+03  0.65280997843E+03  0.89589619828E+02 0.  0.
          4    1    3    3  502    0 -0.26710046806E+02 -0.69660287168E+02  0.24045685928E+03  0.25176473817E+03  0.00000000000E+00 0. -1.
         -4    1    3    3    0  502 -0.19342668121E+03 -0.28795516316E+03  0.59600376153E+03  0.68960317629E+03  0.00000000000E+00 0.  1.
         11    1    5    5    0    0  0.64751574322E+02 -0.22095293882E+03  0.94975223386E+02  0.24906477191E+03  0.00000000000E+00 0.  1.
        -11    1    5    5    0    0  0.68071393049E+02 -0.53945433618E+02  0.59555383530E+02  0.10531224082E+03  0.00000000000E+00 0. -1.
          2    1    6    6  503    0  0.40911996139E+02  0.52140035428E+03 -0.99400978266E+02  0.53236517106E+03  0.00000000000E+00 0. -1.
         -2    1    6    6    0  503  0.46401764510E+02  0.11111346848E+03 -0.27613395054E+01  0.12044480737E+03  0.00000000000E+00 0.  1.
<mgrwt>
<rscale>  0 0.17340269E+04</rscale>
<asrwt>0</asrwt>
<pdfrwt beam="1">  1        1 0.81517385E-01 0.17340269E+04</pdfrwt>
<pdfrwt beam="2">  1       -1 0.21826029E+00 0.17340269E+04</pdfrwt>
<totfact> 0.43849966E+00</totfact>
</mgrwt>
</event>
<event>
12    2  0.3518828E-008  0.2073888E+04  0.7818608E-02  0.8572834E-01
          1   -1    0    0  501    0  0.00000000000E+00  0.00000000000E+00  0.14609541518E+04  0.14609541518E+04  0.00000000000E+00 0. -1.
         -1   -1    0    0    0  501 -0.00000000000E+00 -0.00000000000E+00 -0.73599327598E+03  0.73599327598E+03  0.00000000000E+00 0.  1.
         23    2    1    2    0    0  0.63604161448E+03 -0.77782781883E+02 -0.28131745422E+03  0.70574233059E+03  0.91288721252E+02 0.  0.
        254    2    1    2    0    0 -0.63604161448E+03  0.77782781883E+02  0.10062783301E+04  0.14912050972E+04  0.89470524080E+03 0.  0.
         23    2    4    4    0    0 -0.80415083578E+03  0.54550134699E+02  0.10133923237E+04  0.12979566671E+04  0.89962347905E+02 0.  0.
         23    2    4    4    0    0  0.16810922130E+03  0.23232647184E+02 -0.71139935581E+01  0.19324843018E+03  0.92162251943E+02 0.  0.
          1    1    3    3  502    0  0.56425210349E+03 -0.81412626614E+02 -0.27674395193E+03  0.63371576200E+03  0.00000000000E+00 0. -1.
         -1    1    3    3    0  502  0.71789510982E+02  0.36298447315E+01 -0.45735022907E+01  0.72026568591E+02  0.00000000000E+00 0.  1.
         11    1    5    5    0    0 -0.30772453386E+03 -0.12951046549E+02  0.43079439910E+03  0.52957146132E+03  0.00000000000E+00 0.  1.
        -11    1    5    5    0    0 -0.49642630191E+03  0.67501181248E+02  0.58259792455E+03  0.76838520574E+03  0.00000000000E+00 0. -1.
          4    1    6    6  503    0  0.79168674652E+02 -0.28106316078E+02  0.21354268475E+02  0.86681306126E+02  0.00000000000E+00 0. -1.
         -4    1    6    6    0  503  0.88940546648E+02  0.51338963263E+02 -0.28468262033E+02  0.10656712406E+03  0.00000000000E+00 0.  1.
<mgrwt>
<rscale>  0 0.20738876E+04</rscale>
<asrwt>0</asrwt>
<pdfrwt beam="1">  1        1 0.22476218E+00 0.20738876E+04</pdfrwt>
<pdfrwt beam="2">  1       -1 0.11322974E+00 0.20738876E+04</pdfrwt>
<totfact> 0.45728704E+00</totfact>
</mgrwt>
</event>
<event>
12    2  0.3518828E-008  0.1913074E+04  0.7818608E-02  0.8648376E-01
         -2   -1    0    0    0  501 -0.00000000000E+00  0.00000000000E+00  0.12266494152E+04  0.12266494152E+04  0.00000000000E+00 0.  1.
          2   -1    0    0  501    0  0.00000000000E+00 -0.00000000000E+00 -0.74590426428E+03  0.74590426428E+03  0.00000000000E+00 0. -1.
         23    2    1    2    0    0  0.23030721983E+03  0.39442186793E+02  0.91198164534E+03  0.94590748657E+03  0.91833273456E+02 0.  0.
        254    2    1    2    0    0 -0.23030721983E+03 -0.39442186793E+02 -0.43123649446E+03  0.10266461929E+04  0.90190930230E+03 0.  0.
         23    2    4    4    0    0  0.15960127971E+03  0.42957891701E+02 -0.56498279648E+03  0.59559643392E+03  0.90617894697E+02 0.  0.
         23    2    4    4    0    0 -0.38990849954E+03 -0.82400078494E+02  0.13374630202E+03  0.43104975895E+03  0.95380346162E+02 0.  0.
          3    1    3    3  502    0  0.56678413519E+02  0.51524461079E+02  0.30425211069E+03  0.31374601114E+03  0.00000000000E+00 0. -1.
         -3    1    3    3    0  502  0.17362880631E+03 -0.12082274286E+02  0.60772953465E+03  0.63216147543E+03  0.00000000000E+00 0.  1.
         11    1    5    5    0    0  0.25730999009E+02 -0.18739941724E+02 -0.44973031065E+02  0.55098486812E+02  0.00000000000E+00 0. -1.
        -11    1    5    5    0    0  0.13387028070E+03  0.61697833425E+02 -0.52000976541E+03  0.54049794711E+03  0.00000000000E+00 0.  1.
          3    1    6    6  503    0 -0.34802267977E+03 -0.48110010901E+02  0.93396812853E+02  0.36353448727E+03  0.00000000000E+00 0. -1.
         -3    1    6    6    0  503 -0.41885819767E+02 -0.34290067593E+02  0.40349489169E+02  0.67515271674E+02  0.00000000000E+00 0.  1.
<mgrwt>
<rscale>  0 0.19130740E+04</rscale>
<asrwt>0</asrwt>
<pdfrwt beam="1">  1        2 0.11475450E+00 0.19130740E+04</pdfrwt>
<pdfrwt beam="2">  1       -2 0.18871530E+00 0.19130740E+04</pdfrwt>
<totfact> 0.55835061E+00</totfact>
</mgrwt>
</event>
<event>
12    2  0.3518828E-008  0.1632540E+04  0.7818608E-02  0.8800803E-01
          4   -1    0    0  501    0  0.00000000000E+00  0.00000000000E+00  0.57614257455E+03  0.57614257455E+03  0.00000000000E+00 0.  1.
         -4   -1    0    0    0  501 -0.00000000000E+00 -0.00000000000E+00 -0.11564787721E+04  0.11564787721E+04  0.00000000000E+00 0. -1.
         23    2    1    2    0    0  0.93945212168E+02  0.10738004623E+03 -0.83600857971E+03  0.85386699357E+03  0.99107619015E+02 0.  0.
        254    2    1    2    0    0 -0.93945212168E+02 -0.10738004623E+03  0.25567238212E+03  0.87875435311E+03  0.82854370368E+03 0.  0.
         23    2    4    4    0    0 -0.21304858215E+03 -0.14743706496E+03 -0.23665084453E+03  0.36260544769E+03  0.91387646852E+02 0.  0.
         23    2    4    4    0    0  0.11910336998E+03  0.40057018722E+02  0.49232322665E+03  0.51614890543E+03  0.90759878717E+02 0.  0.
          3    1    3    3  502    0  0.36720470812E+02  0.78015925128E+02 -0.67502822214E+03  0.68051302576E+03  0.00000000000E+00 0. -1.
         -3    1    3    3    0  502  0.57224741356E+02  0.29364121107E+02 -0.16098035757E+03  0.17335396781E+03  0.00000000000E+00 0.  1.
         11    1    5    5    0    0 -0.20922926647E+01 -0.33162487754E+02 -0.42639092649E+02  0.54057566580E+02  0.00000000000E+00 0. -1.
        -11    1    5    5    0    0 -0.21095628949E+03 -0.11427457720E+03 -0.19401175188E+03  0.30854788111E+03  0.00000000000E+00 0.  1.
          4    1    6    6  503    0  0.12363673571E+02  0.42167644886E+02  0.93957841072E+02  0.10372582416E+03  0.00000000000E+00 0. -1.
         -4    1    6    6    0  503  0.10673969641E+03 -0.21106261637E+01  0.39836538558E+03  0.41242308126E+03  0.00000000000E+00 0.  1.
<mgrwt>
<rscale>  0 0.16325399E+04</rscale>
<asrwt>0</asrwt>
<pdfrwt beam="1">  1        4 0.88637320E-01 0.16325399E+04</pdfrwt>
<pdfrwt beam="2">  1       -4 0.17791981E+00 0.16325399E+04</pdfrwt>
<totfact> 0.38996276E-01</totfact>
</mgrwt>
</event>
<event>
12    2  0.3518828E-008  0.1220976E+04  0.7818608E-02  0.9094692E-01
         -1   -1    0    0    0  501 -0.00000000000E+00  0.00000000000E+00  0.83918610033E+03  0.83918610033E+03  0.00000000000E+00 0.  1.
          1   -1    0    0  501    0  0.00000000000E+00 -0.00000000000E+00 -0.44411567706E+03  0.44411567706E+03  0.00000000000E+00 0. -1.
         23    2    1    2    0    0 -0.18111444429E+03 -0.35546415826E+02 -0.10318100260E+03  0.23012636994E+03  0.90806592470E+02 0.  0.
        254    2    1    2    0    0  0.18111444429E+03  0.35546415826E+02  0.49825142588E+03  0.10531754074E+04  0.90931730757E+03 0.  0.
         23    2    4    4    0    0  0.49630314341E+03 -0.10120859798E+03  0.11059605325E+03  0.52677011577E+03  0.93248471340E+02 0.  0.
         23    2    4    4    0    0 -0.31518869912E+03  0.13675501381E+03  0.38765537263E+03  0.52640529168E+03  0.93701618573E+02 0.  0.
          2    1    3    3  502    0 -0.11471758782E+03 -0.29128931446E+02 -0.11186528762E+03  0.16285718337E+03  0.00000000000E+00 0.  1.
         -2    1    3    3    0  502 -0.66396856477E+02 -0.64174843803E+01  0.86842850180E+01  0.67269186572E+02  0.00000000000E+00 0. -1.
         11    1    5    5    0    0  0.42720996961E+03 -0.75451686614E+02  0.61443169036E+02  0.43815131881E+03  0.00000000000E+00 0.  1.
        -11    1    5    5    0    0  0.69093173797E+02 -0.25756911368E+02  0.49152884212E+02  0.88618796962E+02  0.00000000000E+00 0. -1.
          4    1    6    6  503    0 -0.18364215812E+03  0.45302503566E+02  0.26017051873E+03  0.32166046988E+03  0.00000000000E+00 0.  1.
         -4    1    6    6    0  503 -0.13154654100E+03  0.91452510243E+02  0.12748485390E+03  0.20474482180E+03  0.00000000000E+00 0. -1.
<mgrwt>
<rscale>  0 0.12209762E+04</rscale>
<asrwt>0</asrwt>
<pdfrwt beam="1">  1        1 0.68325489E-01 0.12209762E+04</pdfrwt>
<pdfrwt beam="2">  1       -1 0.12910555E+00 0.12209762E+04</pdfrwt>
<totfact> 0.26591867E+01</totfact>
</mgrwt>
</event>
<event>
12    2  0.3518828E-008  0.1273619E+04  0.7818608E-02  0.9050751E-01
          1   -1    0    0  501    0  0.00000000000E+00  0.00000000000E+00  0.19516331722E+04  0.19516331722E+04  0.00000000000E+00 0. -1.
         -1   -1    0    0    0  501 -0.00000000000E+00 -0.00000000000E+00 -0.20778814221E+03  0.20778814221E+03  0.00000000000E+00 0.  1.
         23    2    1    2    0    0 -0.19711575961E+03 -0.20385061553E+03  0.25834447535E+03  0.39433007058E+03  0.91349003747E+02 0.  0.
        254    2    1    2    0    0  0.19711575961E+03  0.20385061553E+03  0.14855005547E+04  0.17650912439E+04  0.91017883139E+03 0.  0.
         23    2    4    4    0    0  0.30033313764E+03 -0.21739491275E+03  0.11423610307E+04  0.12044416914E+04  0.90722222991E+02 0.  0.
         23    2    4    4    0    0 -0.10321737803E+03  0.42124552828E+03  0.34313952395E+03  0.56064955250E+03  0.92095415711E+02 0.  0.
          4    1    3    3  502    0 -0.54556202096E+01  0.31453810347E+01 -0.52836259979E+01  0.82203356021E+01  0.00000000000E+00 0. -1.
         -4    1    3    3    0  502 -0.19166013940E+03 -0.20699599656E+03  0.26362810134E+03  0.38610973498E+03  0.00000000000E+00 0.  1.
         11    1    5    5    0    0  0.28133447961E+03 -0.16590032055E+03  0.96386440317E+03  0.10176967100E+04  0.00000000000E+00 0.  1.
        -11    1    5    5    0    0  0.18998658032E+02 -0.51494592197E+02  0.17849662756E+03  0.18674498141E+03  0.00000000000E+00 0. -1.
          3    1    6    6  503    0  0.55324669418E+01  0.60552986828E+02  0.82751833807E+02  0.10268952431E+03  0.00000000000E+00 0. -1.
         -3    1    6    6    0  503 -0.10874984497E+03  0.36069254145E+03  0.26038769014E+03  0.45796002819E+03  0.00000000000E+00 0.  1.
<mgrwt>
<rscale>  0 0.12736188E+04</rscale>
<asrwt>0</asrwt>
<pdfrwt beam="1">  1        1 0.30025125E+00 0.12736188E+04</pdfrwt>
<pdfrwt beam="2">  1       -1 0.31967408E-01 0.12736188E+04</pdfrwt>
<totfact> 0.28894212E+01</totfact>
</mgrwt>
</event>
<event>
12    2  0.3518828E-008  0.2496013E+04  0.7818608E-02  0.8404407E-01
          1   -1    0    0  501    0  0.00000000000E+00  0.00000000000E+00  0.33016076967E+04  0.33016076967E+04  0.00000000000E+00 0. -1.
         -1   -1    0    0    0  501 -0.00000000000E+00 -0.00000000000E+00 -0.47174609740E+03  0.47174609740E+03  0.00000000000E+00 0.  1.
         23    2    1    2    0    0  0.84038374687E+03  0.68483524689E+03  0.10605726171E+04  0.15193082341E+04  0.90769359773E+02 0.  0.
        254    2    1    2    0    0 -0.84038374687E+03 -0.68483524689E+03  0.17692889822E+04  0.22540455600E+04  0.88039407460E+03 0.  0.
         23    2    4    4    0    0 -0.49456330959E+03 -0.86092448535E+03  0.12274554135E+04  0.15813810786E+04  0.91298887627E+02 0.  0.
         23    2    4    4    0    0 -0.34582043728E+03  0.17608923846E+03  0.54183356866E+03  0.67266448139E+03  0.91075208738E+02 0.  0.
          4    1    3    3  502    0  0.16274916105E+03  0.13600994743E+03  0.15947380129E+03  0.26536369104E+03  0.00000000000E+00 0. -1.
         -4    1    3    3    0  502  0.67763458582E+03  0.54882529946E+03  0.90109881577E+03  0.12539445430E+04  0.00000000000E+00 0.  1.
         11    1    5    5    0    0 -0.28336628425E+03 -0.58032507572E+03  0.78791506348E+03  0.10187658179E+04  0.00000000000E+00 0. -1.
        -11    1    5    5    0    0 -0.21119702534E+03 -0.28059940963E+03  0.43954035006E+03  0.56261526066E+03  0.00000000000E+00 0.  1.
          3    1    6    6  503    0 -0.16618324907E+03  0.13477998981E+03  0.27759502119E+03  0.35048753717E+03  0.00000000000E+00 0. -1.
         -3    1    6    6    0  503 -0.17963718822E+03  0.41309248655E+02  0.26423854747E+03  0.32217694421E+03  0.00000000000E+00 0.  1.
<mgrwt>
<rscale>  0 0.24960133E+04</rscale>
<asrwt>0</asrwt>
<pdfrwt beam="1">  1        1 0.50793963E+00 0.24960133E+04</pdfrwt>
<pdfrwt beam="2">  1       -1 0.72576325E-01 0.24960133E+04</pdfrwt>
<totfact> 0.60627052E-01</totfact>
</mgrwt>
</event>
<event>
12    2  0.3518828E-008  0.1387405E+04  0.7818608E-02  0.8962986E-01
         -1   -1    0    0    0  501 -0.00000000000E+00  0.00000000000E+00  0.78468933142E+03  0.78468933142E+03  0.00000000000E+00 0.  1.
          1   -1    0    0  501    0  0.00000000000E+00 -0.00000000000E+00 -0.61326570401E+03  0.61326570401E+03  0.00000000000E+00 0. -1.
         23    2    1    2    0    0  0.23076639680E+03  0.22371079293E+02 -0.27281882918E+03  0.36959914714E+03  0.91759582233E+02 0.  0.
        254    2    1    2    0    0 -0.23076639680E+03 -0.22371079293E+02  0.44424245659E+03  0.10283558883E+04  0.89800382942E+03 0.  0.
         23    2    4    4    0    0 -0.35272401296E+03  0.27519555051E+03  0.51337197205E+03  0.68701124642E+03  0.91032140921E+02 0.  0.
         23    2    4    4    0    0  0.12195761616E+03 -0.29756662981E+03 -0.69129515462E+02  0.34134464186E+03  0.91201509346E+02 0.  0.
          2    1    3    3  502    0  0.19614853220E+03  0.94203557922E+01 -0.16792209831E+03  0.25838115428E+03  0.00000000000E+00 0. -1.
         -2    1    3    3    0  502  0.34617864605E+02  0.12950723501E+02 -0.10489673087E+03  0.11121799286E+03  0.00000000000E+00 0.  1.
         11    1    5    5    0    0 -0.22957528078E+02  0.38739498776E+02  0.23144839196E+02  0.50630825021E+02  0.00000000000E+00 0.  1.
        -11    1    5    5    0    0 -0.32976648488E+03  0.23645605174E+03  0.49022713286E+03  0.63638042140E+03  0.00000000000E+00 0. -1.
          4    1    6    6  503    0  0.77259420891E+02 -0.22226075668E+03 -0.88950498769E+02  0.25155725652E+03  0.00000000000E+00 0. -1.
         -4    1    6    6    0  503  0.44698195267E+02 -0.75305873128E+02  0.19820983307E+02  0.89787385344E+02  0.00000000000E+00 0.  1.
<mgrwt>
<rscale>  0 0.13874049E+04</rscale>
<asrwt>0</asrwt>
<pdfrwt beam="1">  1        1 0.94348570E-01 0.13874049E+04</pdfrwt>
<pdfrwt beam="2">  1       -1 0.12072144E+00 0.13874049E+04</pdfrwt>
<totfact> 0.19760771E+01</totfact>
</mgrwt>
</event>
<event>
12    2  0.3518828E-008  0.1589649E+04  0.7818608E-02  0.8826932E-01
         -1   -1    0    0    0  501 -0.00000000000E+00  0.00000000000E+00  0.10528302285E+04  0.10528302285E+04  0.00000000000E+00 0. -1.
          1   -1    0    0  501    0  0.00000000000E+00 -0.00000000000E+00 -0.60004565437E+03  0.60004565437E+03  0.00000000000E+00 0.  1.
         23    2    1    2    0    0  0.15593209253E+03  0.23365063281E+03 -0.31855359856E+03  0.43386502945E+03  0.88628623673E+02 0.  0.
        254    2    1    2    0    0 -0.15593209253E+03 -0.23365063281E+03  0.77133817273E+03  0.12190108535E+04  0.90117559246E+03 0.  0.
         23    2    4    4    0    0 -0.25872459180E+03  0.28998514481E+03  0.27633331782E+03  0.48545135600E+03  0.90956681398E+02 0.  0.
         23    2    4    4    0    0  0.10279249927E+03 -0.52363577762E+03  0.49500485492E+03  0.73355949747E+03  0.91208576471E+02 0.  0.
          3    1    3    3  502    0  0.13238037047E+03  0.13606366298E+03 -0.24224090101E+03  0.30776376816E+03  0.00000000000E+00 0. -1.
         -3    1    3    3    0  502  0.23551722058E+02  0.97586969830E+02 -0.76312697549E+02  0.12610126129E+03  0.00000000000E+00 0.  1.
         11    1    5    5    0    0 -0.15942782128E+03  0.15520793336E+03  0.10542295821E+03  0.24621277971E+03  0.00000000000E+00 0.  1.
        -11    1    5    5    0    0 -0.99296770523E+02  0.13477721145E+03  0.17091035961E+03  0.23923857629E+03  0.00000000000E+00 0. -1.
          4    1    6    6  503    0  0.68767240695E+02 -0.14799915529E+03  0.17031092851E+03  0.23587813745E+03  0.00000000000E+00 0.  1.
         -4    1    6    6    0  503  0.34025258574E+02 -0.37563662233E+03  0.32469392641E+03  0.49768136002E+03  0.00000000000E+00 0. -1.
<mgrwt>
<rscale>  0 0.15896493E+04</rscale>
<asrwt>0</asrwt>
<pdfrwt beam="1">  1        1 0.92314716E-01 0.15896493E+04</pdfrwt>
<pdfrwt beam="2">  1       -1 0.16197388E+00 0.15896493E+04</pdfrwt>
<totfact> 0.92859344E+00</totfact>
</mgrwt>
</event>
<event>
12    2  0.3518828E-008  0.1645032E+04  0.7818608E-02  0.8793351E-01
         -1   -1    0    0    0  501 -0.00000000000E+00  0.00000000000E+00  0.71397760915E+03  0.71397760915E+03  0.00000000000E+00 0.  1.
          1   -1    0    0  501    0  0.00000000000E+00 -0.00000000000E+00 -0.94755385926E+03  0.94755385926E+03  0.00000000000E+00 0. -1.
         23    2    1    2    0    0 -0.57566180181E+02  0.53526544354E+03  0.93138048976E+02  0.55329415928E+03  0.87388616963E+02 0.  0.
        254    2    1    2    0    0  0.57566180181E+02 -0.53526544354E+03 -0.32671429909E+03  0.11082373091E+04  0.91193461388E+03 0.  0.
         23    2    4    4    0    0 -0.36071058381E+03 -0.36247421115E+03 -0.37953307556E+03  0.64343930138E+03  0.92027713661E+02 0.  0.
         23    2    4    4    0    0  0.41827676400E+03 -0.17279123239E+03  0.52818776477E+02  0.46479800776E+03  0.91842819984E+02 0.  0.
          3    1    3    3  502    0 -0.54600774065E+02  0.34235882053E+03  0.21005636596E+02  0.34732123933E+03  0.00000000000E+00 0. -1.
         -3    1    3    3    0  502 -0.29654061158E+01  0.19290662301E+03  0.72132412380E+02  0.20597291995E+03  0.00000000000E+00 0.  1.
         11    1    5    5    0    0 -0.33055774663E+03 -0.34369667297E+03 -0.37689385461E+03  0.60781971382E+03  0.00000000000E+00 0.  1.
        -11    1    5    5    0    0 -0.30152837182E+02 -0.18777538184E+02 -0.26392209574E+01  0.35619587556E+02  0.00000000000E+00 0. -1.
          2    1    6    6  503    0  0.10505035156E+03 -0.85556727251E+02  0.59675117410E+00  0.13548389591E+03  0.00000000000E+00 0. -1.
         -2    1    6    6    0  503  0.31322641244E+03 -0.87234505138E+02  0.52222025303E+02  0.32931411185E+03  0.00000000000E+00 0.  1.
<mgrwt>
<rscale>  0 0.16450316E+04</rscale>
<asrwt>0</asrwt>
<pdfrwt beam="1">  1        1 0.14577752E+00 0.16450316E+04</pdfrwt>
<pdfrwt beam="2">  1       -1 0.10984271E+00 0.16450316E+04</pdfrwt>
<totfact> 0.12191549E+01</totfact>
</mgrwt>
</event>
<event>
12    2  0.3518828E-008  0.2684666E+04  0.7818608E-02  0.8339998E-01
         -1   -1    0    0    0  501 -0.00000000000E+00  0.00000000000E+00  0.95387251518E+03  0.95387251518E+03  0.00000000000E+00 0.  1.
          1   -1    0    0  501    0  0.00000000000E+00 -0.00000000000E+00 -0.18889919531E+04  0.18889919531E+04  0.00000000000E+00 0. -1.
         23    2    1    2    0    0 -0.92088621567E+02  0.78194152642E+03  0.52672781664E+03  0.95198924562E+03  0.94490560411E+02 0.  0.
        254    2    1    2    0    0  0.92088621567E+02 -0.78194152642E+03 -0.14618472546E+04  0.18908752227E+04  0.90470926108E+03 0.  0.
         23    2    4    4    0    0  0.20275059481E+03 -0.13696961554E+01 -0.87828977651E+03  0.90603091141E+03  0.91593674161E+02 0.  0.
         23    2    4    4    0    0 -0.11066197325E+03 -0.78057183026E+03 -0.58355747805E+03  0.98484431126E+03  0.88546782620E+02 0.  0.
          3    1    3    3  502    0 -0.32889182334E+02  0.13682151286E+03  0.13458476687E+03  0.19471744701E+03  0.00000000000E+00 0. -1.
         -3    1    3    3    0  502 -0.59199439232E+02  0.64512001356E+03  0.39214304976E+03  0.75727179862E+03  0.00000000000E+00 0.  1.
         11    1    5    5    0    0  0.28354599286E+02 -0.22986694820E+02 -0.28301698587E+03  0.28536114965E+03  0.00000000000E+00 0. -1.
        -11    1    5    5    0    0  0.17439599553E+03  0.21616998665E+02 -0.59527279065E+03  0.62066976177E+03  0.00000000000E+00 0.  1.
          2    1    6    6  503    0 -0.25700993288E+02 -0.29092109049E+03 -0.16728726415E+03  0.33657191014E+03  0.00000000000E+00 0. -1.
         -2    1    6    6    0  503 -0.84960979958E+02 -0.48965073977E+03 -0.41627021390E+03  0.64827240112E+03  0.00000000000E+00 0.  1.
<mgrwt>
<rscale>  0 0.26846657E+04</rscale>
<asrwt>0</asrwt>
<pdfrwt beam="1">  1        1 0.29061414E+00 0.26846657E+04</pdfrwt>
<pdfrwt beam="2">  1       -1 0.14674962E+00 0.26846657E+04</pdfrwt>
<totfact> 0.11467188E+00</totfact>
</mgrwt>
</event>
<event>
12    2  0.3518828E-008  0.1499543E+04  0.7818608E-02  0.8884757E-01
         -2   -1    0    0    0  501 -0.00000000000E+00  0.00000000000E+00  0.14686490122E+03  0.14686490122E+03  0.00000000000E+00 0.  1.
          2   -1    0    0  501    0  0.00000000000E+00 -0.00000000000E+00 -0.38277194080E+04  0.38277194080E+04  0.00000000000E+00 0. -1.
         23    2    1    2    0    0  0.10465020150E+03  0.12126701880E+03 -0.83839670173E+01  0.18460462570E+03  0.91385022865E+02 0.  0.
        254    2    1    2    0    0 -0.10465020150E+03 -0.12126701880E+03 -0.36724705398E+04  0.37899796835E+04  0.92263144405E+03 0.  0.
         23    2    4    4    0    0 -0.45054625291E+03 -0.20432339042E+03 -0.27700128346E+04  0.28153732980E+04  0.92820954692E+02 0.  0.
         23    2    4    4    0    0  0.34589605141E+03  0.83056371618E+02 -0.90245770520E+03  0.97460638551E+03  0.94261645199E+02 0.  0.
          1    1    3    3  502    0  0.27932443881E+02  0.77480352129E+02 -0.38982541357E+02  0.91121155161E+02  0.00000000000E+00 0. -1.
         -1    1    3    3    0  502  0.76717757622E+02  0.43786666672E+02  0.30598574340E+02  0.93483470541E+02  0.00000000000E+00 0.  1.
         11    1    5    5    0    0 -0.10841317790E+03 -0.29222777518E+02 -0.83936578462E+03  0.84684255223E+03  0.00000000000E+00 0. -1.
        -11    1    5    5    0    0 -0.34213307501E+03 -0.17510061290E+03 -0.19306470499E+04  0.19685307458E+04  0.00000000000E+00 0.  1.
          4    1    6    6  503    0  0.54283146734E+01 -0.10562817736E+02 -0.12923386592E+02  0.17551456912E+02  0.00000000000E+00 0. -1.
         -4    1    6    6    0  503  0.34046773673E+03  0.93619189354E+02 -0.88953431861E+03  0.95705492860E+03  0.00000000000E+00 0.  1.
<mgrwt>
<rscale>  0 0.14995434E+04</rscale>
<asrwt>0</asrwt>
<pdfrwt beam="1">  1        2 0.58887984E+00 0.14995434E+04</pdfrwt>
<pdfrwt beam="2">  1       -2 0.22594603E-01 0.14995434E+04</pdfrwt>
<totfact> 0.79390648E+00</totfact>
</mgrwt>
</event>
<event>
12    2  0.3518828E-008  0.1731996E+04  0.7818608E-02  0.8743323E-01
         -1   -1    0    0    0  501 -0.00000000000E+00  0.00000000000E+00  0.98538258018E+03  0.98538258018E+03  0.00000000000E+00 0.  1.
          1   -1    0    0  501    0  0.00000000000E+00 -0.00000000000E+00 -0.76107753685E+03  0.76107753685E+03  0.00000000000E+00 0. -1.
         23    2    1    2    0    0  0.31536817290E+03  0.54453008461E+03  0.94986928451E+01  0.63648870994E+03  0.95171188838E+02 0.  0.
        254    2    1    2    0    0 -0.31536817290E+03 -0.54453008461E+03  0.21480635048E+03  0.11099714071E+04  0.88877705800E+03 0.  0.
         23    2    4    4    0    0 -0.20612231160E+03 -0.40832188403E+03  0.54997038361E+03  0.72112076248E+03  0.91293827355E+02 0.  0.
         23    2    4    4    0    0 -0.10924586130E+03 -0.13620820058E+03 -0.33516403313E+03  0.38885064462E+03  0.91556335640E+02 0.  0.
          1    1    3    3  502    0  0.28556746726E+03  0.42159576292E+03  0.19660631876E+02  0.50958640692E+03  0.00000000000E+00 0. -1.
         -1    1    3    3    0  502  0.29800705638E+02  0.12293432169E+03 -0.10161939031E+02  0.12690230302E+03  0.00000000000E+00 0.  1.
         11    1    5    5    0    0 -0.71280210908E+02 -0.88324257136E+02  0.90333818708E+02  0.14505944184E+03  0.00000000000E+00 0.  1.
        -11    1    5    5    0    0 -0.13484210069E+03 -0.31999762689E+03  0.45963656490E+03  0.57606132064E+03  0.00000000000E+00 0. -1.
          2    1    6    6  503    0 -0.79217413374E+02 -0.14408172586E+03 -0.26128905920E+03  0.30871818017E+03  0.00000000000E+00 0. -1.
         -2    1    6    6    0  503 -0.30028447931E+02  0.78735252758E+01 -0.73874973932E+02  0.80132464450E+02  0.00000000000E+00 0.  1.
<mgrwt>
<rscale>  0 0.17319960E+04</rscale>
<asrwt>0</asrwt>
<pdfrwt beam="1">  1        1 0.11708885E+00 0.17319960E+04</pdfrwt>
<pdfrwt beam="2">  1       -1 0.15159732E+00 0.17319960E+04</pdfrwt>
<totfact> 0.77023215E+00</totfact>
</mgrwt>
</event>
<event>
12    2  0.3518828E-008  0.3774138E+04  0.7818608E-02  0.8051728E-01
         -1   -1    0    0    0  501 -0.00000000000E+00  0.00000000000E+00  0.71269638335E+03  0.71269638335E+03  0.00000000000E+00 0.  1.
          1   -1    0    0  501    0  0.00000000000E+00 -0.00000000000E+00 -0.49965584255E+04  0.49965584255E+04  0.00000000000E+00 0. -1.
         23    2    1    2    0    0 -0.78893573741E+03  0.15534733916E+04 -0.25259577536E+04  0.30702329198E+04  0.10083864451E+03 0.  0.
        254    2    1    2    0    0  0.78893573741E+03 -0.15534733916E+04 -0.17579042885E+04  0.26390218891E+04  0.91570184406E+03 0.  0.
         23    2    4    4    0    0  0.80750903646E+03 -0.15018238267E+04 -0.12405278919E+04  0.21103053638E+04  0.83268408063E+02 0.  0.
         23    2    4    4    0    0 -0.18573299044E+02 -0.51649564952E+02 -0.51737639665E+03  0.52871652526E+03  0.94075412660E+02 0.  0.
          4    1    3    3  502    0 -0.61874903927E+03  0.12901953573E+04 -0.21080961941E+04  0.25478469337E+04  0.00000000000E+00 0. -1.
         -4    1    3    3    0  502 -0.17018669814E+03  0.26327803433E+03 -0.41786155951E+03  0.52238598613E+03  0.00000000000E+00 0.  1.
         11    1    5    5    0    0  0.72334004938E+03 -0.12850554045E+04 -0.10712514864E+04  0.18226815319E+04  0.00000000000E+00 0. -1.
        -11    1    5    5    0    0  0.84168987076E+02 -0.21676842216E+03 -0.16927640547E+03  0.28762383191E+03  0.00000000000E+00 0.  1.
          4    1    6    6  503    0 -0.19368648690E+02 -0.41818914380E+02 -0.51678513619E+03  0.51883604649E+03  0.00000000000E+00 0. -1.
         -4    1    6    6    0  503  0.79534964523E+00 -0.98306505719E+01 -0.59126046627E+00  0.98804787670E+01  0.00000000000E+00 0.  1.
<mgrwt>
<rscale>  0 0.37741378E+04</rscale>
<asrwt>0</asrwt>
<pdfrwt beam="1">  1        1 0.76870131E+00 0.37741378E+04</pdfrwt>
<pdfrwt beam="2">  1       -1 0.10964560E+00 0.37741378E+04</pdfrwt>
<totfact> 0.53110681E-03</totfact>
</mgrwt>
</event>
<event>
12    2  0.3518828E-008  0.1615932E+04  0.7818608E-02  0.8810820E-01
          2   -1    0    0  501    0  0.00000000000E+00  0.00000000000E+00  0.13971824174E+04  0.13971824174E+04  0.00000000000E+00 0.  1.
         -2   -1    0    0    0  501 -0.00000000000E+00 -0.00000000000E+00 -0.46723226864E+03  0.46723226864E+03  0.00000000000E+00 0. -1.
         23    2    1    2    0    0 -0.18495388560E+03  0.28800723865E+03  0.83336125250E+03  0.90552878974E+03  0.91297878168E+02 0.  0.
        254    2    1    2    0    0  0.18495388560E+03 -0.28800723865E+03  0.96588896242E+02  0.95888589629E+03  0.89049235702E+03 0.  0.
         23    2    4    4    0    0  0.30967063648E+03  0.14469910261E+03 -0.20392707382E+03  0.40950415225E+03  0.96299874739E+02 0.  0.
         23    2    4    4    0    0 -0.12471675088E+03 -0.43270634126E+03  0.30051597006E+03  0.54938174404E+03  0.93388472017E+02 0.  0.
          4    1    3    3  502    0 -0.48531391295E+02  0.14247447406E+03  0.42909555062E+03  0.45472768033E+03  0.00000000000E+00 0. -1.
         -4    1    3    3    0  502 -0.13642249430E+03  0.14553276459E+03  0.40426570189E+03  0.45080110941E+03  0.00000000000E+00 0.  1.
         11    1    5    5    0    0  0.60224834718E+01  0.20892986761E+01  0.98332692003E+01  0.11718731130E+02  0.00000000000E+00 0.  1.
        -11    1    5    5    0    0  0.30364815301E+03  0.14260980393E+03 -0.21376034302E+03  0.39778542112E+03  0.00000000000E+00 0. -1.
          1    1    6    6  503    0 -0.55972436125E+02 -0.11613585338E+03  0.44171783002E+02  0.13627764476E+03  0.00000000000E+00 0. -1.
         -1    1    6    6    0  503 -0.68744314759E+02 -0.31657048787E+03  0.25634418706E+03  0.41310409928E+03  0.00000000000E+00 0.  1.
<mgrwt>
<rscale>  0 0.16159316E+04</rscale>
<asrwt>0</asrwt>
<pdfrwt beam="1">  1        2 0.21495114E+00 0.16159316E+04</pdfrwt>
<pdfrwt beam="2">  1       -2 0.71881888E-01 0.16159316E+04</pdfrwt>
<totfact> 0.24397787E+01</totfact>
</mgrwt>
</event>
<event>
12    2  0.3518828E-008  0.2112798E+04  0.7818608E-02  0.8555626E-01
         -2   -1    0    0    0  501 -0.00000000000E+00  0.00000000000E+00  0.66927849114E+03  0.66927849114E+03  0.00000000000E+00 0.  1.
          2   -1    0    0  501    0  0.00000000000E+00 -0.00000000000E+00 -0.16674363573E+04  0.16674363573E+04  0.00000000000E+00 0. -1.
         23    2    1    2    0    0  0.47401326225E+03  0.49207513308E+03 -0.94874739120E+03  0.11730839667E+04  0.95801206557E+02 0.  0.
        254    2    1    2    0    0 -0.47401326225E+03 -0.49207513308E+03 -0.49410474938E+02  0.11636308817E+04  0.94062156286E+03 0.  0.
         23    2    4    4    0    0 -0.16553256496E+03 -0.70941733025E+03  0.11273764939E+03  0.74294641578E+03  0.92658624056E+02 0.  0.
         23    2    4    4    0    0 -0.30848069729E+03  0.21734219717E+03 -0.16214812433E+03  0.42068446596E+03  0.91024361576E+02 0.  0.
          2    1    3    3  502    0  0.47227887676E+03  0.49304546739E+03 -0.95059354376E+03  0.11703714179E+04  0.00000000000E+00 0. -1.
         -2    1    3    3    0  502  0.17343854894E+01 -0.97033430279E+00  0.18461525643E+01  0.27125487969E+01  0.00000000000E+00 0.  1.
         11    1    5    5    0    0 -0.13407661390E+03 -0.43990719615E+03  0.37733124613E+02  0.46143110896E+03  0.00000000000E+00 0. -1.
        -11    1    5    5    0    0 -0.31455951055E+02 -0.26951013410E+03  0.75004524779E+02  0.28151530682E+03  0.00000000000E+00 0.  1.
          4    1    6    6  503    0 -0.27316965847E+03  0.18832655970E+03 -0.10606309113E+03  0.34833595091E+03  0.00000000000E+00 0. -1.
         -4    1    6    6    0  503 -0.35311038827E+02  0.29015637467E+02 -0.56085033197E+02  0.72348515046E+02  0.00000000000E+00 0.  1.
<mgrwt>
<rscale>  0 0.21127984E+04</rscale>
<asrwt>0</asrwt>
<pdfrwt beam="1">  1        2 0.25652867E+00 0.21127984E+04</pdfrwt>
<pdfrwt beam="2">  1       -2 0.10296592E+00 0.21127984E+04</pdfrwt>
<totfact> 0.72523257E+00</totfact>
</mgrwt>
</event>
<event>
12    2  0.3518828E-008  0.4160808E+04  0.7818608E-02  0.7972870E-01
          2   -1    0    0  501    0  0.00000000000E+00  0.00000000000E+00  0.18740109949E+04  0.18740109949E+04  0.00000000000E+00 0. -1.
         -2   -1    0    0    0  501 -0.00000000000E+00 -0.00000000000E+00 -0.23095277237E+04  0.23095277237E+04  0.00000000000E+00 0.  1.
         23    2    1    2    0    0 -0.15190813032E+04 -0.12693385406E+04 -0.14814156337E+03  0.19871820727E+04  0.90101781089E+02 0.  0.
        254    2    1    2    0    0  0.15190813032E+04  0.12693385406E+04 -0.28737516544E+03  0.21963566459E+04  0.90695627995E+03 0.  0.
         23    2    4    4    0    0  0.95892288061E+03  0.74844083036E+03 -0.60642315099E+03  0.13623675667E+04  0.92733927825E+02 0.  0.
         23    2    4    4    0    0  0.56015842260E+03  0.52089771023E+03  0.31904798555E+03  0.83398907912E+03  0.92920848438E+02 0.  0.
          4    1    3    3  502    0 -0.92283093042E+02 -0.10703216239E+03 -0.13314127921E+02  0.14194829710E+03  0.00000000000E+00 0. -1.
         -4    1    3    3    0  502 -0.14267982102E+04 -0.11623063782E+04 -0.13482743545E+03  0.18452337756E+04  0.00000000000E+00 0.  1.
         11    1    5    5    0    0  0.81252341385E+03  0.67389243817E+03 -0.52912275778E+03  0.11808032051E+04  0.00000000000E+00 0. -1.
        -11    1    5    5    0    0  0.14639946676E+03  0.74548392183E+02 -0.77300393205E+02  0.18156436168E+03  0.00000000000E+00 0.  1.
          1    1    6    6  503    0  0.55297086750E+03  0.49401229222E+03  0.31587610579E+03  0.80597930456E+03  0.00000000000E+00 0. -1.
         -1    1    6    6    0  503  0.71875551041E+01  0.26885418004E+02  0.31718797575E+01  0.28009774559E+02  0.00000000000E+00 0.  1.
<mgrwt>
<rscale>  0 0.41608078E+04</rscale>
<asrwt>0</asrwt>
<pdfrwt beam="1">  1        2 0.28830939E+00 0.41608078E+04</pdfrwt>
<pdfrwt beam="2">  1       -2 0.35531195E+00 0.41608078E+04</pdfrwt>
<totfact> 0.88014139E-02</totfact>
</mgrwt>
</event>
<event>
12    2  0.3518828E-008  0.2168778E+04  0.7818608E-02  0.8531537E-01
          1   -1    0    0  501    0  0.00000000000E+00  0.00000000000E+00  0.81295419831E+03  0.81295419831E+03  0.00000000000E+00 0. -1.
         -1   -1    0    0    0  501 -0.00000000000E+00 -0.00000000000E+00 -0.14464529593E+04  0.14464529593E+04  0.00000000000E+00 0.  1.
         23    2    1    2    0    0  0.41353244942E+03  0.59041117869E+02  0.56250631763E+03  0.70666154641E+03  0.91990453260E+02 0.  0.
        254    2    1    2    0    0 -0.41353244942E+03 -0.59041117869E+02 -0.11960050786E+04  0.15527456112E+04  0.89782840492E+03 0.  0.
         23    2    4    4    0    0  0.11020738895E+02 -0.26707735409E+03 -0.98806577965E+03  0.10276297463E+04  0.91088642956E+02 0.  0.
         23    2    4    4    0    0 -0.42455318831E+03  0.20803623622E+03 -0.20793929895E+03  0.52511586485E+03  0.94780980071E+02 0.  0.
          2    1    3    3  502    0  0.19892274788E+03  0.55528402960E+02  0.33767590362E+03  0.39582657698E+03  0.00000000000E+00 0. -1.
         -2    1    3    3    0  502  0.21460970154E+03  0.35127149098E+01  0.22483041401E+03  0.31083496944E+03  0.00000000000E+00 0.  1.
         11    1    5    5    0    0  0.30790846895E+02 -0.30825480482E+02 -0.19922077712E+03  0.20392941067E+03  0.00000000000E+00 0. -1.
        -11    1    5    5    0    0 -0.19770108000E+02 -0.23625187361E+03 -0.78884500254E+03  0.82370033567E+03  0.00000000000E+00 0.  1.
          1    1    6    6  503    0 -0.11325702211E+03  0.71182450506E+02 -0.16233623288E+02  0.13475023132E+03  0.00000000000E+00 0. -1.
         -1    1    6    6    0  503 -0.31129616620E+03  0.13685378571E+03 -0.19170567566E+03  0.39036563352E+03  0.00000000000E+00 0.  1.
<mgrwt>
<rscale>  0 0.21687785E+04</rscale>
<asrwt>0</asrwt>
<pdfrwt beam="1">  1        1 0.12506988E+00 0.21687785E+04</pdfrwt>
<pdfrwt beam="2">  1       -1 0.22253122E+00 0.21687785E+04</pdfrwt>
<totfact> 0.20843116E+00</totfact>
</mgrwt>
</event>
<event>
12    2  0.3518828E-008  0.1576593E+04  0.7818608E-02  0.8835058E-01
         -1   -1    0    0    0  501 -0.00000000000E+00  0.00000000000E+00  0.54397348157E+03  0.54397348157E+03  0.00000000000E+00 0.  1.
          1   -1    0    0  501    0  0.00000000000E+00 -0.00000000000E+00 -0.11423563189E+04  0.11423563189E+04  0.00000000000E+00 0. -1.
         23    2    1    2    0    0  0.19479967838E+03  0.48125133619E+03 -0.10808330354E+03  0.53787753469E+03  0.89891482004E+02 0.  0.
        254    2    1    2    0    0 -0.19479967838E+03 -0.48125133619E+03 -0.49029953380E+03  0.11484522658E+04  0.89944383408E+03 0.  0.
         23    2    4    4    0    0  0.16181910505E+02  0.17862340898E+03  0.10770559435E+03  0.22867895794E+03  0.92333061726E+02 0.  0.
         23    2    4    4    0    0 -0.21098158889E+03 -0.65987474517E+03 -0.59800512815E+03  0.91977330785E+03  0.91787223352E+02 0.  0.
          4    1    3    3  502    0  0.18072524914E+03  0.44337759549E+03 -0.12377077033E+03  0.49453464130E+03  0.00000000000E+00 0. -1.
         -4    1    3    3    0  502  0.14074429239E+02  0.37873740704E+02  0.15687466787E+02  0.43342893391E+02  0.00000000000E+00 0.  1.
         11    1    5    5    0    0  0.39083926545E+02  0.13947601610E+03  0.11203266177E+03  0.18311862190E+03  0.00000000000E+00 0. -1.
        -11    1    5    5    0    0 -0.22902016040E+02  0.39147392877E+02 -0.43270674249E+01  0.45560336042E+02  0.00000000000E+00 0.  1.
          1    1    6    6  503    0 -0.10557186537E+03 -0.45528601316E+03 -0.37369352527E+03  0.59839587513E+03  0.00000000000E+00 0. -1.
         -1    1    6    6    0  503 -0.10540972351E+03 -0.20458873201E+03 -0.22431160288E+03  0.32137743272E+03  0.00000000000E+00 0.  1.
<mgrwt>
<rscale>  0 0.15765932E+04</rscale>
<asrwt>0</asrwt>
<pdfrwt beam="1">  1        1 0.17574713E+00 0.15765932E+04</pdfrwt>
<pdfrwt beam="2">  1       -1 0.83688228E-01 0.15765932E+04</pdfrwt>
<totfact> 0.16045925E+01</totfact>
</mgrwt>
</event>
<event>
12    2  0.3518828E-008  0.2468258E+04  0.7818608E-02  0.8414382E-01
          2   -1    0    0  501    0  0.00000000000E+00  0.00000000000E+00  0.15555262394E+04  0.15555262394E+04  0.00000000000E+00 0. -1.
         -2   -1    0    0    0  501 -0.00000000000E+00 -0.00000000000E+00 -0.97913767880E+03  0.97913767880E+03  0.00000000000E+00 0.  1.
         23    2    1    2    0    0 -0.69811609892E+03  0.64029799841E+03 -0.25852587423E+03  0.98720675820E+03  0.10195068146E+03 0.  0.
        254    2    1    2    0    0  0.69811609892E+03 -0.64029799841E+03  0.83491443486E+03  0.15474571600E+04  0.89453559699E+03 0.  0.
         23    2    4    4    0    0 -0.53921708506E+02 -0.51848152148E+03  0.41605950268E+03  0.67318539686E+03  0.91336903915E+02 0.  0.
         23    2    4    4    0    0  0.75203780742E+03 -0.12181647693E+03  0.41885493218E+03  0.87427176318E+03  0.92258028535E+02 0.  0.
          2    1    3    3  502    0 -0.32981641017E+03  0.29564178128E+03 -0.17341577340E+03  0.47566370234E+03  0.00000000000E+00 0.  1.
         -2    1    3    3    0  502 -0.36829968875E+03  0.34465621713E+03 -0.85110100832E+02  0.51154305586E+03  0.00000000000E+00 0. -1.
         11    1    5    5    0    0 -0.26456618149E+02 -0.33520453301E+02  0.24155912036E+02  0.49062017077E+02  0.00000000000E+00 0. -1.
        -11    1    5    5    0    0 -0.27465090357E+02 -0.48496106817E+03  0.39190359065E+03  0.62412337978E+03  0.00000000000E+00 0.  1.
          3    1    6    6  503    0  0.25688999071E+03 -0.85812064938E+02  0.14088142656E+03  0.30529289898E+03  0.00000000000E+00 0. -1.
         -3    1    6    6    0  503  0.49514781671E+03 -0.36004411993E+02  0.27797350563E+03  0.56897886420E+03  0.00000000000E+00 0.  1.
<mgrwt>
<rscale>  0 0.24682580E+04</rscale>
<asrwt>0</asrwt>
<pdfrwt beam="1">  1        2 0.23931173E+00 0.24682580E+04</pdfrwt>
<pdfrwt beam="2">  1       -2 0.15063657E+00 0.24682580E+04</pdfrwt>
<totfact> 0.31296437E+00</totfact>
</mgrwt>
</event>
<event>
12    2  0.3518828E-008  0.1299061E+04  0.7818608E-02  0.9030310E-01
          1   -1    0    0  501    0  0.00000000000E+00  0.00000000000E+00  0.38555638285E+03  0.38555638285E+03  0.00000000000E+00 0. -1.
         -1   -1    0    0    0  501 -0.00000000000E+00 -0.00000000000E+00 -0.10942358900E+04  0.10942358900E+04  0.00000000000E+00 0.  1.
         23    2    1    2    0    0 -0.24829026639E+03  0.18356406296E+03 -0.36912889359E+02  0.32296454997E+03  0.87176358843E+02 0.  0.
        254    2    1    2    0    0  0.24829026639E+03 -0.18356406296E+03 -0.67176661776E+03  0.11568277229E+04  0.88973938321E+03 0.  0.
         23    2    4    4    0    0  0.13476550819E+03 -0.51267474146E+03 -0.56896862990E+03  0.78294450120E+03  0.90992622895E+02 0.  0.
         23    2    4    4    0    0  0.11352475820E+03  0.32911067851E+03 -0.10279798786E+03  0.37388322166E+03  0.89551815713E+02 0.  0.
          4    1    3    3  502    0 -0.14384064105E+03  0.73158587469E+02  0.15684615465E+02  0.16213672039E+03  0.00000000000E+00 0. -1.
         -4    1    3    3    0  502 -0.10444962534E+03  0.11040547549E+03 -0.52597504824E+02  0.16082782958E+03  0.00000000000E+00 0.  1.
         11    1    5    5    0    0  0.16050716551E+02 -0.17173302057E+03 -0.13906033244E+03  0.22155728811E+03  0.00000000000E+00 0. -1.
        -11    1    5    5    0    0  0.11871479164E+03 -0.34094172089E+03 -0.42990829746E+03  0.56138721309E+03  0.00000000000E+00 0.  1.
          3    1    6    6  503    0  0.74457432179E+02  0.16212702505E+03 -0.95209701427E+02  0.20222257219E+03  0.00000000000E+00 0. -1.
         -3    1    6    6    0  503  0.39067326022E+02  0.16698365346E+03 -0.75882864368E+01  0.17166064947E+03  0.00000000000E+00 0.  1.
<mgrwt>
<rscale>  0 0.12990606E+04</rscale>
<asrwt>0</asrwt>
<pdfrwt beam="1">  1        1 0.59316368E-01 0.12990606E+04</pdfrwt>
<pdfrwt beam="2">  1       -1 0.16834398E+00 0.12990606E+04</pdfrwt>
<totfact> 0.15668154E+01</totfact>
</mgrwt>
</event>
<event>
12    2  0.3518828E-008  0.1542424E+04  0.7818608E-02  0.8856721E-01
          2   -1    0    0  501    0  0.00000000000E+00  0.00000000000E+00  0.46593679592E+03  0.46593679592E+03  0.00000000000E+00 0. -1.
         -2   -1    0    0    0  501 -0.00000000000E+00 -0.00000000000E+00 -0.12764997397E+04  0.12764997397E+04  0.00000000000E+00 0.  1.
         23    2    1    2    0    0  0.53932830000E+02  0.14128977999E+03  0.27328062577E+03  0.32573438657E+03  0.92461008519E+02 0.  0.
        254    2    1    2    0    0 -0.53932830000E+02 -0.14128977999E+03 -0.10838435695E+04  0.14167021490E+04  0.89969802923E+03 0.  0.
         23    2    4    4    0    0 -0.27898975041E+03 -0.19124312073E+03 -0.11111488877E+04  0.11653126284E+04  0.94299836897E+02 0.  0.
         23    2    4    4    0    0  0.22505692041E+03  0.49953340746E+02  0.27305318145E+02  0.25138952065E+03  0.96463241808E+02 0.  0.
          1    1    3    3  502    0  0.61584016549E+02  0.74053116928E+02  0.21809195155E+03  0.23841257214E+03  0.00000000000E+00 0. -1.
         -1    1    3    3    0  502 -0.76511865499E+01  0.67236663058E+02  0.55188674213E+02  0.87321814435E+02  0.00000000000E+00 0.  1.
         11    1    5    5    0    0 -0.22795792758E+03 -0.14659798504E+03 -0.74111858939E+03  0.78912137818E+03  0.00000000000E+00 0. -1.
        -11    1    5    5    0    0 -0.51031822824E+02 -0.44645135690E+02 -0.37003029828E+03  0.37619125020E+03  0.00000000000E+00 0.  1.
          4    1    6    6  503    0  0.23222304548E+03  0.52136079057E+02  0.35100879578E+02  0.24057802339E+03  0.00000000000E+00 0. -1.
         -4    1    6    6    0  503 -0.71661250699E+01 -0.21827383106E+01 -0.77955614331E+01  0.10811497265E+02  0.00000000000E+00 0.  1.
<mgrwt>
<rscale>  0 0.15424243E+04</rscale>
<asrwt>0</asrwt>
<pdfrwt beam="1">  1        2 0.71682586E-01 0.15424243E+04</pdfrwt>
<pdfrwt beam="2">  1       -2 0.19638457E+00 0.15424243E+04</pdfrwt>
<totfact> 0.90337420E+00</totfact>
</mgrwt>
</event>
<event>
12    2  0.3518828E-008  0.3206739E+04  0.7818608E-02  0.8187040E-01
         -1   -1    0    0    0  501 -0.00000000000E+00  0.00000000000E+00  0.25683886818E+04  0.25683886818E+04  0.00000000000E+00 0.  1.
          1   -1    0    0  501    0  0.00000000000E+00 -0.00000000000E+00 -0.10009362459E+04  0.10009362459E+04  0.00000000000E+00 0. -1.
         23    2    1    2    0    0  0.59390200944E+03 -0.27972724837E+03 -0.75344145497E+03  0.10028265491E+04  0.83786223452E+02 0.  0.
        254    2    1    2    0    0 -0.59390200944E+03  0.27972724837E+03  0.23208938909E+04  0.25664983787E+04  0.87715366083E+03 0.  0.
         23    2    4    4    0    0 -0.61412166896E+03  0.30525474676E+03  0.23619252382E+04  0.24611386670E+04  0.90481063140E+02 0.  0.
         23    2    4    4    0    0  0.20219659514E+02 -0.25527498394E+02 -0.41031347330E+02  0.10535971164E+03  0.91414493204E+02 0.  0.
          3    1    3    3  502    0  0.52165301752E+03 -0.27407154623E+03 -0.66639084152E+03  0.88955822564E+03  0.00000000000E+00 0. -1.
         -3    1    3    3    0  502  0.72248991921E+02 -0.56557021341E+01 -0.87050613445E+02  0.11326832347E+03  0.00000000000E+00 0.  1.
         11    1    5    5    0    0 -0.32790019918E+02  0.65526412643E+01  0.19309604902E+03  0.19596991265E+03  0.00000000000E+00 0. -1.
        -11    1    5    5    0    0 -0.58133164904E+03  0.29870210550E+03  0.21688291892E+04  0.22651687544E+04  0.00000000000E+00 0.  1.
          1    1    6    6  503    0  0.27968645017E+02  0.29419584474E+02 -0.24694898444E+02  0.47514156457E+02  0.00000000000E+00 0. -1.
         -1    1    6    6    0  503 -0.77489855022E+01 -0.54947082868E+02 -0.16336448886E+02  0.57845555181E+02  0.00000000000E+00 0.  1.
<mgrwt>
<rscale>  0 0.32067387E+04</rscale>
<asrwt>0</asrwt>
<pdfrwt beam="1">  1        1 0.15399019E+00 0.32067387E+04</pdfrwt>
<pdfrwt beam="2">  1       -1 0.39513672E+00 0.32067387E+04</pdfrwt>
<totfact> 0.97462143E-02</totfact>
</mgrwt>
</event>
<event>
12    2  0.3518828E-008  0.1534419E+04  0.7818608E-02  0.8861882E-01
          2   -1    0    0  501    0  0.00000000000E+00  0.00000000000E+00  0.13157472647E+04  0.13157472647E+04  0.00000000000E+00 0. -1.
         -2   -1    0    0    0  501 -0.00000000000E+00 -0.00000000000E+00 -0.44735840620E+03  0.44735840620E+03  0.00000000000E+00 0.  1.
         23    2    1    2    0    0 -0.29443132626E+02 -0.24681906100E+02 -0.28296167233E+03  0.29980253260E+03  0.91313503917E+02 0.  0.
        254    2    1    2    0    0  0.29443132626E+02  0.24681906100E+02  0.11513505308E+04  0.14633031383E+04  0.90231476502E+03 0.  0.
         23    2    4    4    0    0 -0.25937384162E+03  0.81970730162E+00  0.48938827105E+00  0.27324356030E+03  0.85943831120E+02 0.  0.
         23    2    4    4    0    0  0.28881697425E+03  0.23862198799E+02  0.11508611425E+04  0.11900595780E+04  0.88180386713E+02 0.  0.
          1    1    3    3  502    0  0.21716570115E+02  0.21026444652E+02 -0.77297602870E+02  0.82997832512E+02  0.00000000000E+00 0. -1.
         -1    1    3    3    0  502 -0.51159702741E+02 -0.45708350752E+02 -0.20566406946E+03  0.21680470009E+03  0.00000000000E+00 0.  1.
         11    1    5    5    0    0 -0.21595060573E+03  0.79671262845E+00 -0.32930972606E+02  0.21844850153E+03  0.00000000000E+00 0.  1.
        -11    1    5    5    0    0 -0.43423235891E+02  0.22994673177E-01  0.33420360877E+02  0.54795058766E+02  0.00000000000E+00 0. -1.
          2    1    6    6  503    0  0.37761472447E+02  0.35058337845E+02  0.20681783412E+03  0.21313993611E+03  0.00000000000E+00 0. -1.
         -2    1    6    6    0  503  0.25105550180E+03 -0.11196139047E+02  0.94404330841E+03  0.97691964187E+03  0.00000000000E+00 0.  1.
<mgrwt>
<rscale>  0 0.15344192E+04</rscale>
<asrwt>0</asrwt>
<pdfrwt beam="1">  1        2 0.20242265E+00 0.15344192E+04</pdfrwt>
<pdfrwt beam="2">  1       -2 0.68824371E-01 0.15344192E+04</pdfrwt>
<totfact> 0.30087831E+01</totfact>
</mgrwt>
</event>
<event>
12    2  0.3518828E-008  0.2167714E+04  0.7818608E-02  0.8531988E-01
         -2   -1    0    0    0  501 -0.00000000000E+00  0.00000000000E+00  0.46485942665E+03  0.46485942665E+03  0.00000000000E+00 0.  1.
          2   -1    0    0  501    0  0.00000000000E+00 -0.00000000000E+00 -0.25270989962E+04  0.25270989962E+04  0.00000000000E+00 0. -1.
         23    2    1    2    0    0  0.82346387280E+03  0.27308329184E+03 -0.96384556497E+03  0.13000221760E+04  0.91608683185E+02 0.  0.
        254    2    1    2    0    0 -0.82346387280E+03 -0.27308329184E+03 -0.10983940046E+04  0.16919362469E+04  0.95053229303E+03 0.  0.
         23    2    4    4    0    0 -0.95237749536E+03 -0.21115737126E+03 -0.11565630246E+04  0.15157427457E+04  0.90706736828E+02 0.  0.
         23    2    4    4    0    0  0.12891362256E+03 -0.61925920580E+02  0.58169020022E+02  0.17619350119E+03  0.84893894074E+02 0.  0.
          4    1    3    3  502    0  0.78459567962E+03  0.23775984366E+03 -0.90294740658E+03  0.12196040926E+04  0.00000000000E+00 0. -1.
         -4    1    3    3    0  502  0.38868193176E+02  0.35323448180E+02 -0.60898158386E+02  0.80418083333E+02  0.00000000000E+00 0.  1.
         11    1    5    5    0    0 -0.40338939840E+03 -0.49724807005E+02 -0.51492859741E+03  0.65600840208E+03  0.00000000000E+00 0. -1.
        -11    1    5    5    0    0 -0.54898809696E+03 -0.16143256425E+03 -0.64163442718E+03  0.85973434359E+03  0.00000000000E+00 0.  1.
          4    1    6    6  503    0  0.64052116933E+02  0.11527263678E+02  0.64749287605E+01  0.65402417340E+02  0.00000000000E+00 0. -1.
         -4    1    6    6    0  503  0.64861505625E+02 -0.73453184258E+02  0.51694091261E+02  0.11079108385E+03  0.00000000000E+00 0.  1.
<mgrwt>
<rscale>  0 0.21677138E+04</rscale>
<asrwt>0</asrwt>
<pdfrwt beam="1">  1        2 0.38878445E+00 0.21677138E+04</pdfrwt>
<pdfrwt beam="2">  1       -2 0.71516836E-01 0.21677138E+04</pdfrwt>
<totfact> 0.54579677E+00</totfact>
</mgrwt>
</event>
<event>
12    2  0.3518828E-008  0.2293857E+04  0.7818608E-02  0.8480347E-01
          1   -1    0    0  501    0  0.00000000000E+00  0.00000000000E+00  0.64628097743E+03  0.64628097743E+03  0.00000000000E+00 0. -1.
         -1   -1    0    0    0  501 -0.00000000000E+00 -0.00000000000E+00 -0.20354071851E+04  0.20354071851E+04  0.00000000000E+00 0.  1.
         23    2    1    2    0    0  0.77747052634E+03 -0.43979943806E+03 -0.14758392391E+03  0.90995194496E+03  0.91364995974E+02 0.  0.
        254    2    1    2    0    0 -0.77747052634E+03  0.43979943806E+03 -0.12415422838E+04  0.17717362176E+04  0.89428072623E+03 0.  0.
         23    2    4    4    0    0 -0.46921393913E+02  0.41488344478E+03 -0.81471802456E+03  0.92036303071E+03  0.94724647272E+02 0.  0.
         23    2    4    4    0    0 -0.73054913243E+03  0.24915993278E+02 -0.42682425924E+03  0.85137318690E+03  0.91293556677E+02 0.  0.
          2    1    3    3  502    0  0.46124168920E+02 -0.39553727927E+02  0.97279203018E+01  0.61535102054E+02  0.00000000000E+00 0.  1.
         -2    1    3    3    0  502  0.73134635742E+03 -0.40024571013E+03 -0.15731184421E+03  0.84841684290E+03  0.00000000000E+00 0. -1.
         11    1    5    5    0    0  0.15755667757E+02  0.10752088968E+02 -0.40610769555E+02  0.44867394480E+02  0.00000000000E+00 0. -1.
        -11    1    5    5    0    0 -0.62677061670E+02  0.40413135581E+03 -0.77410725500E+03  0.87549563623E+03  0.00000000000E+00 0.  1.
          1    1    6    6  503    0 -0.17465021166E+03 -0.43950302023E+01 -0.60060734960E+02  0.18474118275E+03  0.00000000000E+00 0. -1.
         -1    1    6    6    0  503 -0.55589892077E+03  0.29311023481E+02 -0.36676352428E+03  0.66663200415E+03  0.00000000000E+00 0.  1.
<mgrwt>
<rscale>  0 0.22938570E+04</rscale>
<asrwt>0</asrwt>
<pdfrwt beam="1">  1        1 0.99427845E-01 0.22938570E+04</pdfrwt>
<pdfrwt beam="2">  1       -1 0.31313956E+00 0.22938570E+04</pdfrwt>
<totfact> 0.75393413E-01</totfact>
</mgrwt>
</event>
<event>
12    2  0.3518828E-008  0.1972247E+04  0.7818608E-02  0.8619707E-01
         -1   -1    0    0    0  501 -0.00000000000E+00  0.00000000000E+00  0.70930591071E+03  0.70930591071E+03  0.00000000000E+00 0.  1.
          1   -1    0    0  501    0  0.00000000000E+00 -0.00000000000E+00 -0.13709727411E+04  0.13709727411E+04  0.00000000000E+00 0. -1.
         23    2    1    2    0    0 -0.37481177397E+03  0.47305111820E+02 -0.99124101943E+03  0.10647662894E+04  0.91906762172E+02 0.  0.
        254    2    1    2    0    0  0.37481177397E+03 -0.47305111820E+02  0.32957418900E+03  0.10155123624E+04  0.88313338331E+03 0.  0.
         23    2    4    4    0    0  0.42968674033E+03 -0.90758758736E+02  0.58363285434E+03  0.73612542328E+03  0.91572283029E+02 0.  0.
         23    2    4    4    0    0 -0.54874966362E+02  0.43453646916E+02 -0.25405866535E+03  0.27938693917E+03  0.92799649660E+02 0.  0.
          2    1    3    3  502    0 -0.23700291194E+03 -0.14985107112E+02 -0.59405759536E+03  0.63976508212E+03  0.00000000000E+00 0. -1.
         -2    1    3    3    0  502 -0.13780886203E+03  0.62290218933E+02 -0.39718342408E+03  0.42500120728E+03  0.00000000000E+00 0.  1.
         11    1    5    5    0    0  0.79095992619E+02 -0.35077965104E+02  0.67686930536E+02  0.10985517853E+03  0.00000000000E+00 0. -1.
        -11    1    5    5    0    0  0.35059074771E+03 -0.55680793632E+02  0.51594592381E+03  0.62627024475E+03  0.00000000000E+00 0.  1.
          3    1    6    6  503    0 -0.13736101491E+02  0.32705358226E+00  0.41782610169E+01  0.14361243447E+02  0.00000000000E+00 0. -1.
         -3    1    6    6    0  503 -0.41138864871E+02  0.43126593334E+02 -0.25823692636E+03  0.26502569572E+03  0.00000000000E+00 0.  1.
<mgrwt>
<rscale>  0 0.19722465E+04</rscale>
<asrwt>0</asrwt>
<pdfrwt beam="1">  1        1 0.21091888E+00 0.19722465E+04</pdfrwt>
<pdfrwt beam="2">  1       -1 0.10912399E+00 0.19722465E+04</pdfrwt>
<totfact> 0.58243854E+00</totfact>
</mgrwt>
</event>
<event>
12    2  0.3518828E-008  0.2266140E+04  0.7818608E-02  0.8491393E-01
         -2   -1    0    0    0  501 -0.00000000000E+00  0.00000000000E+00  0.79922241437E+03  0.79922241437E+03  0.00000000000E+00 0. -1.
          2   -1    0    0  501    0  0.00000000000E+00 -0.00000000000E+00 -0.16063703528E+04  0.16063703528E+04  0.00000000000E+00 0.  1.
         23    2    1    2    0    0  0.45354953062E+03 -0.16941810557E+03 -0.12162269186E+04  0.13122077251E+04  0.90947925630E+02 0.  0.
        254    2    1    2    0    0 -0.45354953062E+03  0.16941810557E+03  0.40907898019E+03  0.10933850420E+04  0.89091838394E+03 0.  0.
         23    2    4    4    0    0  0.24003744045E+03  0.52591212883E+01  0.24659045077E+03  0.35651150230E+03  0.92994460546E+02 0.  0.
         23    2    4    4    0    0 -0.69358697107E+03  0.16415898428E+03  0.16248852942E+03  0.73687353971E+03  0.92569070285E+02 0.  0.
          3    1    3    3  502    0  0.14337623234E+03 -0.90854884422E+02 -0.35583755019E+03  0.39424829252E+03  0.00000000000E+00 0. -1.
         -3    1    3    3    0  502  0.31017329828E+03 -0.78563221146E+02 -0.86038936841E+03  0.91795943263E+03  0.00000000000E+00 0.  1.
         11    1    5    5    0    0  0.23266812114E+02 -0.19214152294E+02  0.68672976321E+02  0.75010038469E+02  0.00000000000E+00 0. -1.
        -11    1    5    5    0    0  0.21677062834E+03  0.24473273583E+02  0.17791747444E+03  0.28150146384E+03  0.00000000000E+00 0.  1.
          3    1    6    6  503    0 -0.16704391848E+02 -0.96456158165E+01 -0.42956264830E+00  0.19294018129E+02  0.00000000000E+00 0. -1.
         -3    1    6    6    0  503 -0.67688257922E+03  0.17380460010E+03  0.16291809207E+03  0.71757952158E+03  0.00000000000E+00 0.  1.
<mgrwt>
<rscale>  0 0.22661396E+04</rscale>
<asrwt>0</asrwt>
<pdfrwt beam="1">  1        2 0.24713390E+00 0.22661396E+04</pdfrwt>
<pdfrwt beam="2">  1       -2 0.12295729E+00 0.22661396E+04</pdfrwt>
<totfact> 0.50255191E+00</totfact>
</mgrwt>
</event>
<event>
12    2  0.3518828E-008  0.2105897E+04  0.7818608E-02  0.8558650E-01
         -1   -1    0    0    0  501 -0.00000000000E+00  0.00000000000E+00  0.20593744948E+04  0.20593744948E+04  0.00000000000E+00 0.  1.
          1   -1    0    0  501    0  0.00000000000E+00 -0.00000000000E+00 -0.53836770293E+03  0.53836770293E+03  0.00000000000E+00 0. -1.
         23    2    1    2    0    0 -0.62924213922E+03 -0.40898590053E+03  0.12136528074E+03  0.76701491289E+03  0.10181949039E+03 0.  0.
        254    2    1    2    0    0  0.62924213922E+03  0.40898590053E+03  0.13996415111E+04  0.18307272848E+04  0.91068704569E+03 0.  0.
         23    2    4    4    0    0 -0.19042949593E+03 -0.73472516955E+02  0.32583607524E+03  0.39345318261E+03  0.83514401823E+02 0.  0.
         23    2    4    4    0    0  0.81967163515E+03  0.48245841749E+03  0.10738054359E+04  0.14372741022E+04  0.89838837595E+02 0.  0.
          1    1    3    3  502    0 -0.51585080080E+03 -0.30612866240E+03  0.12965072258E+03  0.61369871801E+03  0.00000000000E+00 0. -1.
         -1    1    3    3    0  502 -0.11339133842E+03 -0.10285723813E+03 -0.82854418350E+01  0.15331619488E+03  0.00000000000E+00 0.  1.
         11    1    5    5    0    0 -0.18046039225E+02  0.17302291220E+02  0.47949332964E+02  0.54075570685E+02  0.00000000000E+00 0. -1.
        -11    1    5    5    0    0 -0.17238345670E+03 -0.90774808175E+02  0.27788674228E+03  0.33937761193E+03  0.00000000000E+00 0.  1.
          1    1    6    6  503    0  0.41379536601E+03  0.23243003882E+03  0.46970657456E+03  0.66773841739E+03  0.00000000000E+00 0. -1.
         -1    1    6    6    0  503  0.40587626914E+03  0.25002837866E+03  0.60409886131E+03  0.76953568483E+03  0.00000000000E+00 0.  1.
<mgrwt>
<rscale>  0 0.21058972E+04</rscale>
<asrwt>0</asrwt>
<pdfrwt beam="1">  1        1 0.82825802E-01 0.21058972E+04</pdfrwt>
<pdfrwt beam="2">  1       -1 0.31682684E+00 0.21058972E+04</pdfrwt>
<totfact> 0.94406003E-01</totfact>
</mgrwt>
</event>
<event>
12    2  0.3518828E-008  0.1476452E+04  0.7818608E-02  0.8900265E-01
         -2   -1    0    0    0  501 -0.00000000000E+00  0.00000000000E+00  0.28797362696E+03  0.28797362696E+03  0.00000000000E+00 0.  1.
          2   -1    0    0  501    0  0.00000000000E+00 -0.00000000000E+00 -0.18924561558E+04  0.18924561558E+04  0.00000000000E+00 0. -1.
         23    2    1    2    0    0  0.11137425969E+03  0.83868883101E+02  0.13009353002E+03  0.21099838994E+03  0.90320422539E+02 0.  0.
        254    2    1    2    0    0 -0.11137425969E+03 -0.83868883101E+02 -0.17345760588E+04  0.19694313928E+04  0.92220805233E+03 0.  0.
         23    2    4    4    0    0 -0.51148396482E+02 -0.31690347292E+03 -0.16712996053E+04  0.17043992525E+04  0.93222699312E+02 0.  0.
         23    2    4    4    0    0 -0.60225863213E+02  0.23303458982E+03 -0.63276453501E+02  0.26503214026E+03  0.91136442491E+02 0.  0.
          1    1    3    3  502    0  0.25406469731E+02 -0.11333603608E+02 -0.66400119629E+00  0.27827687157E+02  0.00000000000E+00 0. -1.
         -1    1    3    3    0  502  0.85967789963E+02  0.95202486708E+02  0.13075753122E+03  0.18317070278E+03  0.00000000000E+00 0.  1.
         11    1    5    5    0    0  0.73078903056E+01 -0.10005274194E+02 -0.19559024709E+03  0.19598228371E+03  0.00000000000E+00 0. -1.
        -11    1    5    5    0    0 -0.58456286788E+02 -0.30689819873E+03 -0.14757093583E+04  0.15084169688E+04  0.00000000000E+00 0.  1.
          4    1    6    6  503    0 -0.38753327341E+02  0.10416060866E+03  0.15892335525E+02  0.11226673196E+03  0.00000000000E+00 0. -1.
         -4    1    6    6    0  503 -0.21472535871E+02  0.12887398116E+03 -0.79168789026E+02  0.15276540830E+03  0.00000000000E+00 0.  1.
<mgrwt>
<rscale>  0 0.14764518E+04</rscale>
<asrwt>0</asrwt>
<pdfrwt beam="1">  1        2 0.29114710E+00 0.14764518E+04</pdfrwt>
<pdfrwt beam="2">  1       -2 0.44303635E-01 0.14764518E+04</pdfrwt>
<totfact> 0.35859781E+01</totfact>
</mgrwt>
</event>
<event>
12    2  0.3518828E-008  0.1651054E+04  0.7818608E-02  0.8789783E-01
          2   -1    0    0  501    0  0.00000000000E+00  0.00000000000E+00  0.16838826379E+04  0.16838826379E+04  0.00000000000E+00 0. -1.
         -2   -1    0    0    0  501 -0.00000000000E+00 -0.00000000000E+00 -0.40471614885E+03  0.40471614885E+03  0.00000000000E+00 0.  1.
         23    2    1    2    0    0  0.25198231122E+03 -0.42497936813E+03  0.71109885829E+02  0.50741015004E+03  0.91136688543E+02 0.  0.
        254    2    1    2    0    0 -0.25198231122E+03  0.42497936813E+03  0.12080566032E+04  0.15811886367E+04  0.89255487212E+03 0.  0.
         23    2    4    4    0    0 -0.53197676871E+03  0.45341122513E+03  0.70755047427E+03  0.99874121714E+03  0.90968805948E+02 0.  0.
         23    2    4    4    0    0  0.27999445749E+03 -0.28431856998E+02  0.50050612893E+03  0.58244741954E+03  0.97638848392E+02 0.  0.
          3    1    3    3  502    0  0.66293624085E+02 -0.11394804393E+03  0.60400856706E+02  0.14500780945E+03  0.00000000000E+00 0. -1.
         -3    1    3    3    0  502  0.18568868713E+03 -0.31103132420E+03  0.10709029123E+02  0.36240234060E+03  0.00000000000E+00 0.  1.
         11    1    5    5    0    0 -0.33886726590E+03  0.34248714807E+03  0.46843767091E+03  0.67198387035E+03  0.00000000000E+00 0.  1.
        -11    1    5    5    0    0 -0.19310950282E+03  0.11092407706E+03  0.23911280336E+03  0.32675734679E+03  0.00000000000E+00 0. -1.
          3    1    6    6  503    0  0.97196224175E+02  0.61593851729E+01  0.93831469875E+02  0.13523826662E+03  0.00000000000E+00 0. -1.
         -3    1    6    6    0  503  0.18279823332E+03 -0.34591242170E+02  0.40667465906E+03  0.44720915292E+03  0.00000000000E+00 0.  1.
<mgrwt>
<rscale>  0 0.16510536E+04</rscale>
<asrwt>0</asrwt>
<pdfrwt beam="1">  1        2 0.25905886E+00 0.16510536E+04</pdfrwt>
<pdfrwt beam="2">  1       -2 0.62264024E-01 0.16510536E+04</pdfrwt>
<totfact> 0.22890030E+01</totfact>
</mgrwt>
</event>
<event>
12    2  0.3518828E-008  0.1615384E+04  0.7818608E-02  0.8811152E-01
         -2   -1    0    0    0  501 -0.00000000000E+00  0.00000000000E+00  0.49340192139E+03  0.49340192139E+03  0.00000000000E+00 0.  1.
          2   -1    0    0  501    0  0.00000000000E+00 -0.00000000000E+00 -0.13221808434E+04  0.13221808434E+04  0.00000000000E+00 0. -1.
         23    2    1    2    0    0  0.38553891872E+03  0.15063063855E+03  0.12587708262E+03  0.44247380795E+03  0.92780297885E+02 0.  0.
        254    2    1    2    0    0 -0.38553891872E+03 -0.15063063855E+03 -0.95465600457E+03  0.13731089568E+04  0.89595216002E+03 0.  0.
         23    2    4    4    0    0 -0.33778647711E+03 -0.48548464343E+03 -0.77453750228E+03  0.97884959700E+03  0.91886603905E+02 0.  0.
         23    2    4    4    0    0 -0.47752441613E+02  0.33485400488E+03 -0.18011850229E+03  0.39425935980E+03  0.92683696828E+02 0.  0.
          1    1    3    3  502    0  0.67602109930E+02  0.81527467861E+01 -0.93866350592E+01  0.68735881931E+02  0.00000000000E+00 0. -1.
         -1    1    3    3    0  502  0.31793680879E+03  0.14247789176E+03  0.13526371768E+03  0.37373792602E+03  0.00000000000E+00 0.  1.
         11    1    5    5    0    0 -0.22159289291E+03 -0.31522927587E+03 -0.43021703968E+03  0.57754619537E+03  0.00000000000E+00 0.  1.
        -11    1    5    5    0    0 -0.11619358420E+03 -0.17025536756E+03 -0.34432046260E+03  0.40130340163E+03  0.00000000000E+00 0. -1.
          1    1    6    6  503    0 -0.26229094761E+02  0.95632056299E+02 -0.10058069115E+03  0.14124422479E+03  0.00000000000E+00 0.  1.
         -1    1    6    6    0  503 -0.21523346852E+02  0.23922194858E+03 -0.79537811137E+02  0.25301513501E+03  0.00000000000E+00 0. -1.
<mgrwt>
<rscale>  0 0.16153842E+04</rscale>
<asrwt>0</asrwt>
<pdfrwt beam="1">  1        2 0.20341244E+00 0.16153842E+04</pdfrwt>
<pdfrwt beam="2">  1       -2 0.75907988E-01 0.16153842E+04</pdfrwt>
<totfact> 0.23895882E+01</totfact>
</mgrwt>
</event>
<event>
12    2  0.3518828E-008  0.2618230E+04  0.7818608E-02  0.8362035E-01
         -2   -1    0    0    0  501 -0.00000000000E+00  0.00000000000E+00  0.88739383941E+03  0.88739383941E+03  0.00000000000E+00 0.  1.
          2   -1    0    0  501    0  0.00000000000E+00 -0.00000000000E+00 -0.19312523780E+04  0.19312523780E+04  0.00000000000E+00 0. -1.
         23    2    1    2    0    0 -0.18204983283E+03  0.52600864691E+03 -0.15451549399E+04  0.16449616642E+04  0.92562682126E+02 0.  0.
        254    2    1    2    0    0  0.18204983283E+03 -0.52600864691E+03  0.50129640126E+03  0.11736845533E+04  0.90355415466E+03 0.  0.
         23    2    4    4    0    0  0.17428967840E+03  0.35598383673E+02  0.56681890959E+03  0.60107339932E+03  0.91440790561E+02 0.  0.
         23    2    4    4    0    0  0.77601544375E+01 -0.56160703059E+03 -0.65522508334E+02  0.57261115395E+03  0.90153523141E+02 0.  0.
          2    1    3    3  502    0 -0.91685429073E+02  0.35728174746E+03 -0.92096125040E+03  0.99208169507E+03  0.00000000000E+00 0. -1.
         -2    1    3    3    0  502 -0.90364403762E+02  0.16872689946E+03 -0.62419368949E+03  0.65287996912E+03  0.00000000000E+00 0.  1.
         11    1    5    5    0    0  0.13077846861E+03 -0.16849488137E+02  0.37615188892E+03  0.39859397466E+03  0.00000000000E+00 0. -1.
        -11    1    5    5    0    0  0.43511209788E+02  0.52447871810E+02  0.19066702068E+03  0.20247942465E+03  0.00000000000E+00 0.  1.
          2    1    6    6  503    0  0.21835941837E+02 -0.13150597457E+03  0.17166903708E+02  0.13440733717E+03  0.00000000000E+00 0.  1.
         -2    1    6    6    0  503 -0.14075787399E+02 -0.43010105602E+03 -0.82689412041E+02  0.43820381678E+03  0.00000000000E+00 0. -1.
<mgrwt>
<rscale>  0 0.26182295E+04</rscale>
<asrwt>0</asrwt>
<pdfrwt beam="1">  1        2 0.29711575E+00 0.26182295E+04</pdfrwt>
<pdfrwt beam="2">  1       -2 0.13652213E+00 0.26182295E+04</pdfrwt>
<totfact> 0.24704707E+00</totfact>
</mgrwt>
</event>
<event>
12    2  0.3518828E-008  0.2239099E+04  0.7818608E-02  0.8502328E-01
         -2   -1    0    0    0  501 -0.00000000000E+00  0.00000000000E+00  0.53805204295E+03  0.53805204295E+03  0.00000000000E+00 0.  1.
          2   -1    0    0  501    0  0.00000000000E+00 -0.00000000000E+00 -0.23294984026E+04  0.23294984026E+04  0.00000000000E+00 0. -1.
         23    2    1    2    0    0 -0.30576045045E+03 -0.87842040884E+03 -0.88378338661E+03  0.12862094896E+04  0.90276845745E+02 0.  0.
        254    2    1    2    0    0  0.30576045045E+03  0.87842040884E+03 -0.90766297308E+03  0.15813409560E+04  0.90093022969E+03 0.  0.
         23    2    4    4    0    0  0.54808571961E+03  0.53531385492E+03 -0.27991057730E+03  0.82068026925E+03  0.90594115407E+02 0.  0.
         23    2    4    4    0    0 -0.24232526916E+03  0.34310655393E+03 -0.62775239578E+03  0.76066068677E+03  0.89933122766E+02 0.  0.
          3    1    3    3  502    0 -0.25581328106E+03 -0.81026161402E+03 -0.81295405516E+03  0.11759500898E+04  0.00000000000E+00 0. -1.
         -3    1    3    3    0  502 -0.49947169387E+02 -0.68158794822E+02 -0.70829331444E+02  0.11025939975E+03  0.00000000000E+00 0.  1.
         11    1    5    5    0    0  0.12850004735E+03  0.10456170405E+03 -0.97788348643E+02  0.19237456499E+03  0.00000000000E+00 0.  1.
        -11    1    5    5    0    0  0.41958567226E+03  0.43075215087E+03 -0.18212222866E+03  0.62830570426E+03  0.00000000000E+00 0. -1.
          1    1    6    6  503    0 -0.22769410893E+03  0.26249557048E+03 -0.51586177758E+03  0.62198223876E+03  0.00000000000E+00 0. -1.
         -1    1    6    6    0  503 -0.14631160226E+02  0.80610983442E+02 -0.11189061820E+03  0.13867844801E+03  0.00000000000E+00 0.  1.
<mgrwt>
<rscale>  0 0.22390993E+04</rscale>
<asrwt>0</asrwt>
<pdfrwt beam="1">  1        2 0.35838437E+00 0.22390993E+04</pdfrwt>
<pdfrwt beam="2">  1       -2 0.82777236E-01 0.22390993E+04</pdfrwt>
<totfact> 0.50853492E+00</totfact>
</mgrwt>
</event>
<event>
12    2  0.3518828E-008  0.1379013E+04  0.7818608E-02  0.8969152E-01
         -2   -1    0    0    0  501 -0.00000000000E+00  0.00000000000E+00  0.32350320534E+03  0.32350320534E+03  0.00000000000E+00 0.  1.
          2   -1    0    0  501    0  0.00000000000E+00 -0.00000000000E+00 -0.14695959637E+04  0.14695959637E+04  0.00000000000E+00 0. -1.
         23    2    1    2    0    0 -0.75464013021E+02  0.19931267286E+03 -0.75136365577E+03  0.78651615953E+03  0.92951423683E+02 0.  0.
        254    2    1    2    0    0  0.75464013021E+02 -0.19931267286E+03 -0.39472910263E+03  0.10065830096E+04  0.90109818102E+03 0.  0.
         23    2    4    4    0    0  0.47513046284E+03 -0.17187807695E+03 -0.19275821062E+03  0.54840357980E+03  0.91102845840E+02 0.  0.
         23    2    4    4    0    0 -0.39966644982E+03 -0.27434595908E+02 -0.20197089201E+03  0.45817942976E+03  0.93006561460E+02 0.  0.
          1    1    3    3  502    0 -0.86895547620E+02  0.15915177193E+03 -0.68069578368E+03  0.70443372479E+03  0.00000000000E+00 0. -1.
         -1    1    3    3    0  502  0.11431534600E+02  0.40160900926E+02 -0.70667872088E+02  0.82082434735E+02  0.00000000000E+00 0.  1.
         11    1    5    5    0    0  0.38011113195E+01 -0.16787419536E+02 -0.58947798114E+01  0.18193799245E+02  0.00000000000E+00 0.  1.
        -11    1    5    5    0    0  0.47132935152E+03 -0.15509065742E+03 -0.18686343081E+03  0.53020978055E+03  0.00000000000E+00 0. -1.
          2    1    6    6  503    0 -0.29947173361E+03  0.83339751494E+01 -0.18013711421E+03  0.34957424718E+03  0.00000000000E+00 0. -1.
         -2    1    6    6    0  503 -0.10019471620E+03 -0.35768571057E+02 -0.21833777800E+02  0.10860518258E+03  0.00000000000E+00 0.  1.
<mgrwt>
<rscale>  0 0.13790127E+04</rscale>
<asrwt>0</asrwt>
<pdfrwt beam="1">  1        2 0.22609169E+00 0.13790127E+04</pdfrwt>
<pdfrwt beam="2">  1       -2 0.49769724E-01 0.13790127E+04</pdfrwt>
<totfact> 0.49167783E+01</totfact>
</mgrwt>
</event>
<event>
12    2  0.3518828E-008  0.1392024E+04  0.7818608E-02  0.8959612E-01
         -2   -1    0    0    0  501 -0.00000000000E+00  0.00000000000E+00  0.20660509792E+03  0.20660509792E+03  0.00000000000E+00 0.  1.
          2   -1    0    0  501    0  0.00000000000E+00 -0.00000000000E+00 -0.23447287019E+04  0.23447287019E+04  0.00000000000E+00 0. -1.
         23    2    1    2    0    0  0.32110731594E+03 -0.23741191897E+03 -0.78447504235E+03  0.88497001370E+03  0.91085154994E+02 0.  0.
        254    2    1    2    0    0 -0.32110731594E+03  0.23741191897E+03 -0.13536485616E+04  0.16663637861E+04  0.88596247756E+03 0.  0.
         23    2    4    4    0    0 -0.42366047237E+03 -0.14538550426E+03 -0.32702361766E+03  0.56223560107E+03  0.92408245852E+02 0.  0.
         23    2    4    4    0    0  0.10255315643E+03  0.38279742322E+03 -0.10266249439E+04  0.11041281850E+04  0.89940293147E+02 0.  0.
          2    1    3    3  502    0  0.15742528360E+03 -0.14793532732E+03 -0.33857333182E+03  0.40162106769E+03  0.00000000000E+00 0.  1.
         -2    1    3    3    0  502  0.16368203233E+03 -0.89476591648E+02 -0.44590171053E+03  0.48334894601E+03  0.00000000000E+00 0. -1.
         11    1    5    5    0    0 -0.17610478400E+03 -0.73368323388E+02 -0.85866691828E+02  0.20921016846E+03  0.00000000000E+00 0. -1.
        -11    1    5    5    0    0 -0.24755568837E+03 -0.72017180868E+02 -0.24115692584E+03  0.35302543260E+03  0.00000000000E+00 0.  1.
          3    1    6    6  503    0  0.10685272939E+03  0.28065597292E+03 -0.69509299349E+03  0.75719188487E+03  0.00000000000E+00 0. -1.
         -3    1    6    6    0  503 -0.42995729596E+01  0.10214145030E+03 -0.33153195045E+03  0.34693630016E+03  0.00000000000E+00 0.  1.
<mgrwt>
<rscale>  0 0.13920243E+04</rscale>
<asrwt>0</asrwt>
<pdfrwt beam="1">  1        2 0.36072748E+00 0.13920243E+04</pdfrwt>
<pdfrwt beam="2">  1       -2 0.31785401E-01 0.13920243E+04</pdfrwt>
<totfact> 0.38404426E+01</totfact>
</mgrwt>
</event>
<event>
12    2  0.3518828E-008  0.1593666E+04  0.7818608E-02  0.8824448E-01
         -1   -1    0    0    0  501 -0.00000000000E+00  0.00000000000E+00  0.85799836915E+03  0.85799836915E+03  0.00000000000E+00 0.  1.
          1   -1    0    0  501    0  0.00000000000E+00 -0.00000000000E+00 -0.74002841685E+03  0.74002841685E+03  0.00000000000E+00 0. -1.
         23    2    1    2    0    0 -0.31193719880E+02  0.14917123447E+03  0.57806772210E+03  0.60458826701E+03  0.90219598296E+02 0.  0.
        254    2    1    2    0    0  0.31193719880E+02 -0.14917123447E+03 -0.46009776981E+03  0.99343851899E+03  0.86718223452E+03 0.  0.
         23    2    4    4    0    0  0.37065085376E+03 -0.80616366122E+02  0.27103668943E+02  0.38967626570E+03  0.85040750799E+02 0.  0.
         23    2    4    4    0    0 -0.33945713388E+03 -0.68554868351E+02 -0.48720143875E+03  0.60376225329E+03  0.85045287128E+02 0.  0.
          3    1    3    3  502    0  0.73654331454E+01 -0.18588031041E+01  0.12925498030E+03  0.12947800850E+03  0.00000000000E+00 0. -1.
         -3    1    3    3    0  502 -0.38559153025E+02  0.15103003758E+03  0.44881274180E+03  0.47511025851E+03  0.00000000000E+00 0.  1.
         11    1    5    5    0    0  0.22826472577E+03 -0.91162577543E+01  0.25186388553E+01  0.22846057588E+03  0.00000000000E+00 0. -1.
        -11    1    5    5    0    0  0.14238612799E+03 -0.71500108368E+02  0.24585030087E+02  0.16121568982E+03  0.00000000000E+00 0.  1.
          2    1    6    6  503    0 -0.31970456984E+03 -0.84645306576E+02 -0.44446385279E+03  0.55400718076E+03  0.00000000000E+00 0. -1.
         -2    1    6    6    0  503 -0.19752564042E+02  0.16090438226E+02 -0.42737585962E+02  0.49755072529E+02  0.00000000000E+00 0.  1.
<mgrwt>
<rscale>  0 0.15936664E+04</rscale>
<asrwt>0</asrwt>
<pdfrwt beam="1">  1        1 0.11385053E+00 0.15936664E+04</pdfrwt>
<pdfrwt beam="2">  1       -1 0.13199975E+00 0.15936664E+04</pdfrwt>
<totfact> 0.11716184E+01</totfact>
</mgrwt>
</event>
<event>
12    2  0.3518828E-008  0.1667558E+04  0.7818608E-02  0.8780087E-01
          2   -1    0    0  501    0  0.00000000000E+00  0.00000000000E+00  0.45209479278E+03  0.45209479278E+03  0.00000000000E+00 0. -1.
         -2   -1    0    0    0  501 -0.00000000000E+00 -0.00000000000E+00 -0.15377019001E+04  0.15377019001E+04  0.00000000000E+00 0.  1.
         23    2    1    2    0    0  0.34421297175E+03  0.40829401462E+03 -0.69455740672E+03  0.88081559721E+03  0.90771982243E+02 0.  0.
        254    2    1    2    0    0 -0.34421297175E+03 -0.40829401462E+03 -0.39104970061E+03  0.11089810957E+04  0.88979358839E+03 0.  0.
         23    2    4    4    0    0 -0.13858892529E+03  0.63271006314E+02 -0.53816399979E+03  0.56620532946E+03  0.88078794145E+02 0.  0.
         23    2    4    4    0    0 -0.20562404646E+03 -0.47156502094E+03  0.14711429918E+03  0.54277576622E+03  0.91148768090E+02 0.  0.
          3    1    3    3  502    0  0.58527157359E+02  0.27359606703E+02 -0.67171613420E+02  0.93198722506E+02  0.00000000000E+00 0. -1.
         -3    1    3    3    0  502  0.28568581439E+03  0.38093440792E+03 -0.62738579331E+03  0.78761687471E+03  0.00000000000E+00 0.  1.
         11    1    5    5    0    0 -0.78461659459E+02  0.76471073239E+02 -0.27692233450E+03  0.29780872450E+03  0.00000000000E+00 0.  1.
        -11    1    5    5    0    0 -0.60127265830E+02 -0.13200066924E+02 -0.26124166530E+03  0.26839660495E+03  0.00000000000E+00 0. -1.
          1    1    6    6  503    0 -0.82477242421E+02 -0.22616593894E+03  0.11353611769E+03  0.26616531982E+03  0.00000000000E+00 0. -1.
         -1    1    6    6    0  503 -0.12314680403E+03 -0.24539908200E+03  0.33578181494E+02  0.27661044641E+03  0.00000000000E+00 0.  1.
<mgrwt>
<rscale>  0 0.16675575E+04</rscale>
<asrwt>0</asrwt>
<pdfrwt beam="1">  1        2 0.69553046E-01 0.16675575E+04</pdfrwt>
<pdfrwt beam="2">  1       -2 0.23656952E+00 0.16675575E+04</pdfrwt>
<totfact> 0.51325896E+00</totfact>
</mgrwt>
</event>
<event>
12    2  0.3518828E-008  0.2122006E+04  0.7818608E-02  0.8551611E-01
          1   -1    0    0  501    0  0.00000000000E+00  0.00000000000E+00  0.13118030712E+04  0.13118030712E+04  0.00000000000E+00 0. -1.
         -1   -1    0    0    0  501 -0.00000000000E+00 -0.00000000000E+00 -0.85815274692E+03  0.85815274692E+03  0.00000000000E+00 0.  1.
         23    2    1    2    0    0  0.77933771449E+03  0.33949221370E+03 -0.34152721722E+02  0.85578894756E+03  0.92661092002E+02 0.  0.
        254    2    1    2    0    0 -0.77933771449E+03 -0.33949221370E+03  0.48780304599E+03  0.13141668705E+04  0.87547730729E+03 0.  0.
         23    2    4    4    0    0 -0.10206539144E+03 -0.14241705724E+03  0.56539991568E+03  0.59902596658E+03  0.91951518011E+02 0.  0.
         23    2    4    4    0    0 -0.67727232305E+03 -0.19707515646E+03 -0.77596869693E+02  0.71514090396E+03  0.88706377833E+02 0.  0.
          2    1    3    3  502    0  0.97373755805E+02  0.42057847637E+02  0.26462996955E+02  0.10931971952E+03  0.00000000000E+00 0. -1.
         -2    1    3    3    0  502  0.68196395868E+03  0.29743436606E+03 -0.60615718677E+02  0.74646922804E+03  0.00000000000E+00 0.  1.
         11    1    5    5    0    0 -0.18661231302E+02 -0.31155215457E+02  0.34049147821E+02  0.49781858856E+02  0.00000000000E+00 0. -1.
        -11    1    5    5    0    0 -0.83404160133E+02 -0.11126184178E+03  0.53135076786E+03  0.54924410772E+03  0.00000000000E+00 0.  1.
          1    1    6    6  503    0 -0.10517356540E+03 -0.23116218100E+02 -0.43717218873E+02  0.11621976434E+03  0.00000000000E+00 0. -1.
         -1    1    6    6    0  503 -0.57209875765E+03 -0.17395893836E+03 -0.33879650820E+02  0.59892113962E+03  0.00000000000E+00 0.  1.
<mgrwt>
<rscale>  0 0.21220060E+04</rscale>
<asrwt>0</asrwt>
<pdfrwt beam="1">  1        1 0.20181586E+00 0.21220060E+04</pdfrwt>
<pdfrwt beam="2">  1       -1 0.13202350E+00 0.21220060E+04</pdfrwt>
<totfact> 0.39714533E+00</totfact>
</mgrwt>
</event>
<event>
12    2  0.3518828E-008  0.1591465E+04  0.7818608E-02  0.8825809E-01
         -1   -1    0    0    0  501 -0.00000000000E+00  0.00000000000E+00  0.26189000929E+03  0.26189000929E+03  0.00000000000E+00 0.  1.
          1   -1    0    0  501    0  0.00000000000E+00 -0.00000000000E+00 -0.24177719585E+04  0.24177719585E+04  0.00000000000E+00 0. -1.
         23    2    1    2    0    0 -0.53691137998E+02  0.17900644586E+03  0.11102156190E+03  0.23544832433E+03  0.90465906646E+02 0.  0.
        254    2    1    2    0    0  0.53691137998E+02 -0.17900644586E+03 -0.22669035112E+04  0.24442136435E+04  0.89465231248E+03 0.  0.
         23    2    4    4    0    0  0.27959257242E+03 -0.43252677885E+03 -0.99195442751E+03  0.11214384434E+04  0.91647014119E+02 0.  0.
         23    2    4    4    0    0 -0.22590143442E+03  0.25352033299E+03 -0.12749490837E+04  0.13227752001E+04  0.94525375908E+02 0.  0.
          4    1    3    3  502    0 -0.68806059861E+02  0.17524622722E+03  0.11326109740E+03  0.21971251719E+03  0.00000000000E+00 0.  1.
         -4    1    3    3    0  502  0.15114921864E+02  0.37602186404E+01 -0.22395354908E+01  0.15735807141E+02  0.00000000000E+00 0. -1.
         11    1    5    5    0    0  0.49903970630E+02 -0.58451878433E+02 -0.22479340533E+03  0.23756915510E+03  0.00000000000E+00 0.  1.
        -11    1    5    5    0    0  0.22968860179E+03 -0.37407490041E+03 -0.76716102218E+03  0.88386928834E+03  0.00000000000E+00 0. -1.
          2    1    6    6  503    0 -0.20470566116E+03  0.25604869941E+03 -0.11418742530E+04  0.11879992230E+04  0.00000000000E+00 0. -1.
         -2    1    6    6    0  503 -0.21195773263E+02 -0.25283664222E+01 -0.13307483070E+03  0.13477597711E+03  0.00000000000E+00 0.  1.
<mgrwt>
<rscale>  0 0.15914651E+04</rscale>
<asrwt>0</asrwt>
<pdfrwt beam="1">  1        1 0.37196492E+00 0.15914651E+04</pdfrwt>
<pdfrwt beam="2">  1       -1 0.40290770E-01 0.15914651E+04</pdfrwt>
<totfact> 0.89289586E+00</totfact>
</mgrwt>
</event>
<event>
12    2  0.3518828E-008  0.2491182E+04  0.7818608E-02  0.8406134E-01
         -2   -1    0    0    0  501 -0.00000000000E+00  0.00000000000E+00  0.11941578062E+04  0.11941578062E+04  0.00000000000E+00 0.  1.
          2   -1    0    0  501    0  0.00000000000E+00 -0.00000000000E+00 -0.12992392472E+04  0.12992392472E+04  0.00000000000E+00 0. -1.
         23    2    1    2    0    0  0.10485956975E+03 -0.74599286691E+03 -0.81177074160E+03  0.11108372010E+04  0.86525506709E+02 0.  0.
        254    2    1    2    0    0 -0.10485956975E+03  0.74599286691E+03  0.70668930065E+03  0.13825598525E+04  0.91900004961E+03 0.  0.
         23    2    4    4    0    0 -0.38716799204E+02  0.82143835806E+03  0.84862814411E+03  0.11854941896E+04  0.94693082892E+02 0.  0.
         23    2    4    4    0    0 -0.66142770542E+02 -0.75445491158E+02 -0.14193884346E+03  0.19706566288E+03  0.92851235721E+02 0.  0.
          2    1    3    3  502    0  0.93442052819E+02 -0.69892863585E+03 -0.72435075642E+03  0.10108989433E+04  0.00000000000E+00 0. -1.
         -2    1    3    3    0  502  0.11417516927E+02 -0.47064231056E+02 -0.87419985177E+02  0.99938257670E+02  0.00000000000E+00 0.  1.
         11    1    5    5    0    0  0.26374990032E+02  0.11832549116E+03  0.11105962724E+03  0.16441047035E+03  0.00000000000E+00 0. -1.
        -11    1    5    5    0    0 -0.65091789237E+02  0.70311286690E+03  0.73756851686E+03  0.10210837192E+04  0.00000000000E+00 0.  1.
          3    1    6    6  503    0  0.15661366387E+02 -0.13500686775E+02  0.14677780458E+01  0.20729238117E+02  0.00000000000E+00 0. -1.
         -3    1    6    6    0  503 -0.81804136929E+02 -0.61944804383E+02 -0.14340662150E+03  0.17633642477E+03  0.00000000000E+00 0.  1.
<mgrwt>
<rscale>  0 0.24911818E+04</rscale>
<asrwt>0</asrwt>
<pdfrwt beam="1">  1        2 0.19988296E+00 0.24911818E+04</pdfrwt>
<pdfrwt beam="2">  1       -2 0.18371659E+00 0.24911818E+04</pdfrwt>
<totfact> 0.25252789E+00</totfact>
</mgrwt>
</event>
<event>
12    2  0.3518828E-008  0.1682241E+04  0.7818608E-02  0.8771558E-01
         -2   -1    0    0    0  501 -0.00000000000E+00  0.00000000000E+00  0.69872627420E+03  0.69872627420E+03  0.00000000000E+00 0.  1.
          2   -1    0    0  501    0  0.00000000000E+00 -0.00000000000E+00 -0.10125337203E+04  0.10125337203E+04  0.00000000000E+00 0. -1.
         23    2    1    2    0    0  0.48213353864E+01  0.37039251708E+03  0.34171258890E+03  0.51386309775E+03  0.10036895851E+03 0.  0.
        254    2    1    2    0    0 -0.48213353864E+01 -0.37039251708E+03 -0.65552003502E+03  0.11973968968E+04  0.93104186269E+03 0.  0.
         23    2    4    4    0    0  0.31709810547E+02 -0.24717617464E+03  0.19747809799E+03  0.32990599111E+03  0.87970394960E+02 0.  0.
         23    2    4    4    0    0 -0.36531145933E+02 -0.12321634244E+03 -0.85299813301E+03  0.86749090565E+03  0.91748922633E+02 0.  0.
          1    1    3    3  502    0 -0.40191431243E+02  0.82726457204E+02  0.69632246004E+02  0.11535886420E+03  0.00000000000E+00 0. -1.
         -1    1    3    3    0  502  0.45012766629E+02  0.28766605987E+03  0.27208034290E+03  0.39850423355E+03  0.00000000000E+00 0.  1.
         11    1    5    5    0    0  0.17909916482E+02 -0.15697958347E+03  0.17531704075E+03  0.23600724461E+03  0.00000000000E+00 0. -1.
        -11    1    5    5    0    0  0.13799894065E+02 -0.90196591170E+02  0.22161057243E+02  0.93898746493E+02  0.00000000000E+00 0.  1.
          4    1    6    6  503    0 -0.43907404551E+02 -0.13725551129E+02 -0.19121625322E+03  0.19667207840E+03  0.00000000000E+00 0.  1.
         -4    1    6    6    0  503  0.73762586183E+01 -0.10949079131E+03 -0.66178187979E+03  0.67081882725E+03  0.00000000000E+00 0. -1.
<mgrwt>
<rscale>  0 0.16822413E+04</rscale>
<asrwt>0</asrwt>
<pdfrwt beam="1">  1        2 0.15577442E+00 0.16822413E+04</pdfrwt>
<pdfrwt beam="2">  1       -2 0.10749635E+00 0.16822413E+04</pdfrwt>
<totfact> 0.16368886E+01</totfact>
</mgrwt>
</event>
<event>
12    2  0.3518828E-008  0.1797750E+04  0.7818608E-02  0.8707497E-01
         -1   -1    0    0    0  501 -0.00000000000E+00  0.00000000000E+00  0.54692225332E+03  0.54692225332E+03  0.00000000000E+00 0.  1.
          1   -1    0    0  501    0  0.00000000000E+00 -0.00000000000E+00 -0.14773154553E+04  0.14773154553E+04  0.00000000000E+00 0. -1.
         23    2    1    2    0    0 -0.11991984268E+03 -0.24030660149E+03 -0.10530028871E+04  0.10906022337E+04  0.92033257374E+02 0.  0.
        254    2    1    2    0    0  0.11991984268E+03  0.24030660149E+03  0.12260968519E+03  0.93363547488E+03  0.88572796821E+03 0.  0.
         23    2    4    4    0    0  0.63249050518E+02  0.37839654281E+03  0.42692235963E+03  0.58120429087E+03  0.91385669420E+02 0.  0.
         23    2    4    4    0    0  0.56670792163E+02 -0.13808994132E+03 -0.30431267444E+03  0.35243118401E+03  0.96545973817E+02 0.  0.
          3    1    3    3  502    0 -0.33191416582E+02 -0.82474855798E+02 -0.53138986591E+03  0.53877542777E+03  0.00000000000E+00 0. -1.
         -3    1    3    3    0  502 -0.86728426099E+02 -0.15783174569E+03 -0.52161302121E+03  0.55182680593E+03  0.00000000000E+00 0.  1.
         11    1    5    5    0    0  0.13665454617E+02  0.14152344520E+02  0.26811157289E+01  0.19855021703E+02  0.00000000000E+00 0.  1.
        -11    1    5    5    0    0  0.49583595901E+02  0.36424419829E+03  0.42424124390E+03  0.56134926917E+03  0.00000000000E+00 0. -1.
          1    1    6    6  503    0  0.65501685606E+02 -0.14814863537E+03 -0.29346739283E+03  0.33520381804E+03  0.00000000000E+00 0. -1.
         -1    1    6    6    0  503 -0.88308934427E+01  0.10058694047E+02 -0.10845281615E+02  0.17227365969E+02  0.00000000000E+00 0.  1.
<mgrwt>
<rscale>  0 0.17977505E+04</rscale>
<asrwt>0</asrwt>
<pdfrwt beam="1">  1        1 0.22727930E+00 0.17977505E+04</pdfrwt>
<pdfrwt beam="2">  1       -1 0.84141884E-01 0.17977505E+04</pdfrwt>
<totfact> 0.89598081E+00</totfact>
</mgrwt>
</event>
<event>
12    2  0.3518828E-008  0.1560989E+04  0.7818608E-02  0.8844879E-01
          2   -1    0    0  501    0  0.00000000000E+00  0.00000000000E+00  0.90349033498E+03  0.90349033498E+03  0.00000000000E+00 0.  1.
         -2   -1    0    0    0  501 -0.00000000000E+00 -0.00000000000E+00 -0.67424295012E+03  0.67424295012E+03  0.00000000000E+00 0. -1.
         23    2    1    2    0    0 -0.10832503768E+03  0.51754352155E+02 -0.44272612787E+03  0.46708297353E+03  0.88018481614E+02 0.  0.
        254    2    1    2    0    0  0.10832503768E+03 -0.51754352155E+02  0.67197351273E+03  0.11106503116E+04  0.87611807768E+03 0.  0.
         23    2    4    4    0    0 -0.33207663861E+03  0.15505514626E+03  0.37417957523E+03  0.53242069005E+03  0.95626588269E+02 0.  0.
         23    2    4    4    0    0  0.44040167629E+03 -0.20680949842E+03  0.29779393750E+03  0.57822962152E+03  0.94575159955E+02 0.  0.
          3    1    3    3  502    0 -0.71311379906E+02  0.66230828717E+02 -0.38421895037E+03  0.39635342486E+03  0.00000000000E+00 0. -1.
         -3    1    3    3    0  502 -0.37013657776E+02 -0.14476476561E+02 -0.58507177503E+02  0.70729548670E+02  0.00000000000E+00 0.  1.
         11    1    5    5    0    0 -0.28585433314E+03  0.11042561473E+03  0.34619476534E+03  0.46233897923E+03  0.00000000000E+00 0. -1.
        -11    1    5    5    0    0 -0.46222305467E+02  0.44629531530E+02  0.27984809886E+02  0.70081710821E+02  0.00000000000E+00 0.  1.
          1    1    6    6  503    0  0.29754046703E+03 -0.17441958011E+03  0.17329568632E+03  0.38598434469E+03  0.00000000000E+00 0. -1.
         -1    1    6    6    0  503  0.14286120926E+03 -0.32389918306E+02  0.12449825118E+03  0.19224527684E+03  0.00000000000E+00 0.  1.
<mgrwt>
<rscale>  0 0.15609894E+04</rscale>
<asrwt>0</asrwt>
<pdfrwt beam="1">  1        2 0.13899851E+00 0.15609894E+04</pdfrwt>
<pdfrwt beam="2">  1       -2 0.10372969E+00 0.15609894E+04</pdfrwt>
<totfact> 0.21232264E+01</totfact>
</mgrwt>
</event>
<event>
12    2  0.3518828E-008  0.2130429E+04  0.7818608E-02  0.8547956E-01
         -2   -1    0    0    0  501 -0.00000000000E+00  0.00000000000E+00  0.62851837105E+03  0.62851837105E+03  0.00000000000E+00 0.  1.
          2   -1    0    0  501    0  0.00000000000E+00 -0.00000000000E+00 -0.18053280021E+04  0.18053280021E+04  0.00000000000E+00 0. -1.
         23    2    1    2    0    0 -0.91931489345E+02 -0.15037366500E+03 -0.14617578750E+04  0.14753584505E+04  0.94248791071E+02 0.  0.
        254    2    1    2    0    0  0.91931489345E+02  0.15037366500E+03  0.28494824392E+03  0.95848792264E+03  0.89802002108E+03 0.  0.
         23    2    4    4    0    0  0.22008728730E+03  0.39376606873E+03 -0.10567677711E+03  0.47206356331E+03  0.90478150233E+02 0.  0.
         23    2    4    4    0    0 -0.12815579796E+03 -0.24339240373E+03  0.39062502103E+03  0.48642435933E+03  0.91416516840E+02 0.  0.
          2    1    3    3  502    0 -0.61106482114E+02 -0.12950790440E+03 -0.13498014625E+04  0.13573762513E+04  0.00000000000E+00 0. -1.
         -2    1    3    3    0  502 -0.30825007231E+02 -0.20865760600E+02 -0.11195641246E+03  0.11798219920E+03  0.00000000000E+00 0.  1.
         11    1    5    5    0    0  0.10257814048E+02  0.15063443768E+02 -0.26146888457E+02  0.31871458442E+02  0.00000000000E+00 0. -1.
        -11    1    5    5    0    0  0.20982947325E+03  0.37870262496E+03 -0.79529888649E+02  0.44019210487E+03  0.00000000000E+00 0.  1.
          2    1    6    6  503    0 -0.26191434768E+02 -0.18515165770E+01  0.51124760055E+02  0.57473128151E+02  0.00000000000E+00 0. -1.
         -2    1    6    6    0  503 -0.10196436319E+03 -0.24154088715E+03  0.33950026098E+03  0.42895123118E+03  0.00000000000E+00 0.  1.
<mgrwt>
<rscale>  0 0.21304289E+04</rscale>
<asrwt>0</asrwt>
<pdfrwt beam="1">  1        2 0.27774277E+00 0.21304289E+04</pdfrwt>
<pdfrwt beam="2">  1       -2 0.96695135E-01 0.21304289E+04</pdfrwt>
<totfact> 0.70443847E+00</totfact>
</mgrwt>
</event>
<event>
12    2  0.3518828E-008  0.2066844E+04  0.7818608E-02  0.8575991E-01
         -1   -1    0    0    0  501 -0.00000000000E+00  0.00000000000E+00  0.15802026346E+04  0.15802026346E+04  0.00000000000E+00 0.  1.
          1   -1    0    0  501    0  0.00000000000E+00 -0.00000000000E+00 -0.67583823453E+03  0.67583823453E+03  0.00000000000E+00 0. -1.
         23    2    1    2    0    0 -0.62095707830E+03  0.11909864091E+03  0.96537916941E+03  0.11575905228E+04  0.91031304275E+02 0.  0.
        254    2    1    2    0    0  0.62095707830E+03 -0.11909864091E+03 -0.61014769364E+02  0.10984503463E+04  0.89615745374E+03 0.  0.
         23    2    4    4    0    0  0.23227134539E+03 -0.48080423750E+03 -0.12792167937E+03  0.55633026151E+03  0.89536088428E+02 0.  0.
         23    2    4    4    0    0  0.38868573291E+03  0.36170559659E+03  0.66906910004E+02  0.54212008481E+03  0.86660914950E+02 0.  0.
          4    1    3    3  502    0 -0.18592865004E+03  0.30617693503E+02  0.36662689817E+03  0.41221619148E+03  0.00000000000E+00 0. -1.
         -4    1    3    3    0  502 -0.43502842826E+03  0.88480947411E+02  0.59875227125E+03  0.74537433131E+03  0.00000000000E+00 0.  1.
         11    1    5    5    0    0  0.10541171894E+03 -0.16167786221E+03 -0.82590520933E+02  0.20993464642E+03  0.00000000000E+00 0.  1.
        -11    1    5    5    0    0  0.12685962645E+03 -0.31912637529E+03 -0.45331158435E+02  0.34639561509E+03  0.00000000000E+00 0. -1.
          2    1    6    6  503    0  0.23233019642E+03  0.26334640216E+03  0.66373307339E+02  0.35739902578E+03  0.00000000000E+00 0.  1.
         -2    1    6    6    0  503  0.15635553649E+03  0.98359194427E+02  0.53360266574E+00  0.18472105903E+03  0.00000000000E+00 0. -1.
<mgrwt>
<rscale>  0 0.20668443E+04</rscale>
<asrwt>0</asrwt>
<pdfrwt beam="1">  1        1 0.10397511E+00 0.20668443E+04</pdfrwt>
<pdfrwt beam="2">  1       -1 0.24310810E+00 0.20668443E+04</pdfrwt>
<totfact> 0.20497237E+00</totfact>
</mgrwt>
</event>
<event>
12    2  0.3518828E-008  0.1638686E+04  0.7818608E-02  0.8797128E-01
          2   -1    0    0  501    0  0.00000000000E+00  0.00000000000E+00  0.14853361478E+04  0.14853361478E+04  0.00000000000E+00 0. -1.
         -2   -1    0    0    0  501 -0.00000000000E+00 -0.00000000000E+00 -0.45196703026E+03  0.45196703026E+03  0.00000000000E+00 0.  1.
         23    2    1    2    0    0  0.35038240376E+03  0.30790962629E+03  0.75336673114E+03  0.88900486081E+03  0.72055840400E+02 0.  0.
        254    2    1    2    0    0 -0.35038240376E+03 -0.30790962629E+03  0.28000238638E+03  0.10482983172E+04  0.89607581080E+03 0.  0.
         23    2    4    4    0    0 -0.44229202715E+03 -0.56353324274E+03  0.22226581968E+03  0.75580839053E+03  0.93017609271E+02 0.  0.
         23    2    4    4    0    0  0.91909623392E+02  0.25562361645E+03  0.57736566696E+02  0.29248992670E+03  0.91793430743E+02 0.  0.
          4    1    3    3  502    0  0.31189184025E+03  0.25920521051E+03  0.60689842395E+03  0.72992435099E+03  0.00000000000E+00 0.  1.
         -4    1    3    3    0  502  0.38490563506E+02  0.48704415784E+02  0.14646830719E+03  0.15908050982E+03  0.00000000000E+00 0. -1.
         11    1    5    5    0    0 -0.16370757729E+03 -0.22392427171E+03  0.40053829760E+02  0.28026159138E+03  0.00000000000E+00 0. -1.
        -11    1    5    5    0    0 -0.27858444986E+03 -0.33960897103E+03  0.18221198992E+03  0.47554679915E+03  0.00000000000E+00 0.  1.
          3    1    6    6  503    0  0.83448757789E+02  0.24113055619E+03  0.77396072213E+02  0.26664169272E+03  0.00000000000E+00 0. -1.
         -3    1    6    6    0  503  0.84608656032E+01  0.14493060262E+02 -0.19659505517E+02  0.25848233976E+02  0.00000000000E+00 0.  1.
<mgrwt>
<rscale>  0 0.16386860E+04</rscale>
<asrwt>0</asrwt>
<pdfrwt beam="1">  1        2 0.22851325E+00 0.16386860E+04</pdfrwt>
<pdfrwt beam="2">  1       -2 0.69533390E-01 0.16386860E+04</pdfrwt>
<totfact> 0.23332784E+01</totfact>
</mgrwt>
</event>
<event>
12    2  0.3518828E-008  0.1223354E+04  0.7818608E-02  0.9092657E-01
          2   -1    0    0  501    0  0.00000000000E+00  0.00000000000E+00  0.73274203250E+03  0.73274203250E+03  0.00000000000E+00 0. -1.
         -2   -1    0    0    0  501 -0.00000000000E+00 -0.00000000000E+00 -0.51061492195E+03  0.51061492195E+03  0.00000000000E+00 0.  1.
         23    2    1    2    0    0  0.14304359003E+03  0.10663326035E+03 -0.16061870519E+03  0.25472905225E+03  0.85184509983E+02 0.  0.
        254    2    1    2    0    0 -0.14304359003E+03 -0.10663326035E+03  0.38274581574E+03  0.98862790220E+03  0.89390080472E+03 0.  0.
         23    2    4    4    0    0  0.92066328039E+02 -0.21339594423E+03 -0.21429054700E+03  0.33145328604E+03  0.99633350453E+02 0.  0.
         23    2    4    4    0    0 -0.23510991807E+03  0.10676268387E+03  0.59703636274E+03  0.65717461616E+03  0.93547386133E+02 0.  0.
          2    1    3    3  502    0 -0.28074748399E+01  0.35018138145E+02 -0.25613976771E+02  0.43476749190E+02  0.00000000000E+00 0. -1.
         -2    1    3    3    0  502  0.14585106487E+03  0.71615122208E+02 -0.13500472842E+03  0.21125230306E+03  0.00000000000E+00 0.  1.
         11    1    5    5    0    0  0.60408239962E+02 -0.42300349154E+02 -0.95985238145E+02  0.12104396282E+03  0.00000000000E+00 0.  1.
        -11    1    5    5    0    0  0.31658088076E+02 -0.17109559507E+03 -0.11830530885E+03  0.21040932322E+03  0.00000000000E+00 0. -1.
          2    1    6    6  503    0 -0.82618101953E+02 -0.84567470476E+01  0.16372892679E+03  0.18358765974E+03  0.00000000000E+00 0.  1.
         -2    1    6    6    0  503 -0.15249181612E+03  0.11521943092E+03  0.43330743595E+03  0.47358695642E+03  0.00000000000E+00 0. -1.
<mgrwt>
<rscale>  0 0.12233544E+04</rscale>
<asrwt>0</asrwt>
<pdfrwt beam="1">  1        2 0.11272954E+00 0.12233544E+04</pdfrwt>
<pdfrwt beam="2">  1       -2 0.78556142E-01 0.12233544E+04</pdfrwt>
<totfact> 0.54858415E+01</totfact>
</mgrwt>
</event>
<event>
12    2  0.3518828E-008  0.1753409E+04  0.7818608E-02  0.8731476E-01
          2   -1    0    0  501    0  0.00000000000E+00  0.00000000000E+00  0.13745036496E+04  0.13745036496E+04  0.00000000000E+00 0. -1.
         -2   -1    0    0    0  501 -0.00000000000E+00 -0.00000000000E+00 -0.55919160948E+03  0.55919160948E+03  0.00000000000E+00 0.  1.
         23    2    1    2    0    0 -0.59984677660E+03 -0.19159974337E+02  0.54365577632E+03  0.81472318930E+03  0.89604754584E+02 0.  0.
        254    2    1    2    0    0  0.59984677660E+03  0.19159974337E+02  0.27165626384E+03  0.11189720698E+04  0.90449881554E+03 0.  0.
         23    2    4    4    0    0 -0.15521798427E+03  0.22940133085E+03  0.12426719695E+03  0.31684864817E+03  0.90736631940E+02 0.  0.
         23    2    4    4    0    0  0.75506476087E+03 -0.21024135651E+03  0.14738906689E+03  0.80212342164E+03  0.85756780565E+02 0.  0.
          3    1    3    3  502    0 -0.56238089858E+03 -0.35516226576E+02  0.48652833705E+03  0.74447531873E+03  0.00000000000E+00 0. -1.
         -3    1    3    3    0  502 -0.37465878025E+02  0.16356252239E+02  0.57127439266E+02  0.70247870576E+02  0.00000000000E+00 0.  1.
         11    1    5    5    0    0 -0.10775795190E+03  0.11611881665E+03  0.28171198188E+02  0.16090050399E+03  0.00000000000E+00 0. -1.
        -11    1    5    5    0    0 -0.47460032371E+02  0.11328251419E+03  0.96095998761E+02  0.15594814418E+03  0.00000000000E+00 0.  1.
          4    1    6    6  503    0  0.26152052037E+03 -0.48178700538E+02  0.83586737403E+02  0.27874883396E+03  0.00000000000E+00 0. -1.
         -4    1    6    6    0  503  0.49354424050E+03 -0.16206265597E+03  0.63802329491E+02  0.52337458769E+03  0.00000000000E+00 0.  1.
<mgrwt>
<rscale>  0 0.17534091E+04</rscale>
<asrwt>0</asrwt>
<pdfrwt beam="1">  1        2 0.21146210E+00 0.17534091E+04</pdfrwt>
<pdfrwt beam="2">  1       -2 0.86029479E-01 0.17534091E+04</pdfrwt>
<totfact> 0.16626096E+01</totfact>
</mgrwt>
</event>
<event>
12    2  0.3518828E-008  0.2393984E+04  0.7818608E-02  0.8441759E-01
          1   -1    0    0  501    0  0.00000000000E+00  0.00000000000E+00  0.15842264232E+04  0.15842264232E+04  0.00000000000E+00 0. -1.
         -1   -1    0    0    0  501 -0.00000000000E+00 -0.00000000000E+00 -0.90440981160E+03  0.90440981160E+03  0.00000000000E+00 0.  1.
         23    2    1    2    0    0  0.94304575376E+03 -0.11774579729E+03 -0.11340435390E+03  0.96142619179E+03  0.90996748944E+02 0.  0.
        254    2    1    2    0    0 -0.94304575376E+03  0.11774579729E+03  0.79322096547E+03  0.15272100430E+04  0.89441134209E+03 0.  0.
         23    2    4    4    0    0 -0.55297830468E+03 -0.25542483722E+03  0.68569853381E+02  0.61903330311E+03  0.86449711696E+02 0.  0.
         23    2    4    4    0    0 -0.39006744908E+03  0.37317063451E+03  0.72465111209E+03  0.90817673987E+03  0.90867041898E+02 0.  0.
          1    1    3    3  502    0  0.70675506773E+03 -0.88477704536E+02 -0.44969243154E+02  0.71368989260E+03  0.00000000000E+00 0. -1.
         -1    1    3    3    0  502  0.23629068603E+03 -0.29268092757E+02 -0.68435110742E+02  0.24773629919E+03  0.00000000000E+00 0.  1.
         11    1    5    5    0    0 -0.26254655821E+02 -0.33900275959E+02  0.13603407952E+02  0.44984312491E+02  0.00000000000E+00 0. -1.
        -11    1    5    5    0    0 -0.52672364886E+03 -0.22152456126E+03  0.54966445429E+02  0.57404899062E+03  0.00000000000E+00 0.  1.
          3    1    6    6  503    0 -0.13004638538E+02 -0.44641520581E+01  0.17138509693E+02  0.21972204979E+02  0.00000000000E+00 0. -1.
         -3    1    6    6    0  503 -0.37706281054E+03  0.37763478657E+03  0.70751260239E+03  0.88620453489E+03  0.00000000000E+00 0.  1.
<mgrwt>
<rscale>  0 0.23939841E+04</rscale>
<asrwt>0</asrwt>
<pdfrwt beam="1">  1        1 0.24372714E+00 0.23939841E+04</pdfrwt>
<pdfrwt beam="2">  1       -1 0.13913997E+00 0.23939841E+04</pdfrwt>
<totfact> 0.21850770E+00</totfact>
</mgrwt>
</event>
<event>
12    2  0.3518828E-008  0.1783004E+04  0.7818608E-02  0.8715390E-01
         -2   -1    0    0    0  501 -0.00000000000E+00  0.00000000000E+00  0.15888041889E+04  0.15888041889E+04  0.00000000000E+00 0.  1.
          2   -1    0    0  501    0  0.00000000000E+00 -0.00000000000E+00 -0.50023525234E+03  0.50023525234E+03  0.00000000000E+00 0. -1.
         23    2    1    2    0    0  0.40298036828E+03  0.12502806277E+03  0.99745294594E+03  0.10869444569E+04  0.92253343256E+02 0.  0.
        254    2    1    2    0    0 -0.40298036828E+03 -0.12502806277E+03  0.91115990639E+02  0.10020949843E+04  0.90436001692E+03 0.  0.
         23    2    4    4    0    0  0.25192944431E+03  0.10924422350E+03 -0.26573122404E+02  0.29079540945E+03  0.91940709384E+02 0.  0.
         23    2    4    4    0    0 -0.65490981259E+03 -0.23427228627E+03  0.11768911304E+03  0.71129957490E+03  0.91137210742E+02 0.  0.
          3    1    3    3  502    0  0.11647505302E+03  0.36317090180E+02  0.19224163666E+03  0.22768885761E+03  0.00000000000E+00 0. -1.
         -3    1    3    3    0  502  0.28650531526E+03  0.88710972592E+02  0.80521130928E+03  0.85925559929E+03  0.00000000000E+00 0.  1.
         11    1    5    5    0    0  0.15355846933E+03  0.10463212198E+03 -0.43578204450E+02  0.19085896457E+03  0.00000000000E+00 0. -1.
        -11    1    5    5    0    0  0.98370974982E+02  0.46121015175E+01  0.17005082046E+02  0.99936444878E+02  0.00000000000E+00 0.  1.
          2    1    6    6  503    0 -0.57007903892E+03 -0.20657755936E+03  0.70740509230E+02  0.61046590265E+03  0.00000000000E+00 0. -1.
         -2    1    6    6    0  503 -0.84830773668E+02 -0.27694726916E+02  0.46948603813E+02  0.10083367225E+03  0.00000000000E+00 0.  1.
<mgrwt>
<rscale>  0 0.17830041E+04</rscale>
<asrwt>0</asrwt>
<pdfrwt beam="1">  1        2 0.76959271E-01 0.17830041E+04</pdfrwt>
<pdfrwt beam="2">  1       -2 0.24443141E+00 0.17830041E+04</pdfrwt>
<totfact> 0.40455419E+00</totfact>
</mgrwt>
</event>
<event>
12    2  0.3518828E-008  0.1492838E+04  0.7818608E-02  0.8889229E-01
          1   -1    0    0  501    0  0.00000000000E+00  0.00000000000E+00  0.16853560912E+04  0.16853560912E+04  0.00000000000E+00 0. -1.
         -1   -1    0    0    0  501 -0.00000000000E+00 -0.00000000000E+00 -0.33057792154E+03  0.33057792154E+03  0.00000000000E+00 0.  1.
         23    2    1    2    0    0  0.11355211580E+03 -0.29241909788E+03 -0.35688915062E+02  0.32858422309E+03  0.91054276081E+02 0.  0.
        254    2    1    2    0    0 -0.11355211580E+03  0.29241909788E+03  0.13904670847E+04  0.16873497896E+04  0.90296599443E+03 0.  0.
         23    2    4    4    0    0 -0.22376134187E+03 -0.52493671237E+02 -0.12070431550E+01  0.24650669610E+03  0.89103146025E+02 0.  0.
         23    2    4    4    0    0  0.11020922607E+03  0.34491276912E+03  0.13916741279E+04  0.14408430935E+04  0.90338531115E+02 0.  0.
          2    1    3    3  502    0  0.10207571125E+02  0.42980342801E+01  0.42372186595E+01  0.11858399087E+02  0.00000000000E+00 0. -1.
         -2    1    3    3    0  502  0.10334454468E+03 -0.29671713216E+03 -0.39926133722E+02  0.31672582400E+03  0.00000000000E+00 0.  1.
         11    1    5    5    0    0 -0.16551491134E+03 -0.49519739147E+02  0.37134864335E+02  0.17670989952E+03  0.00000000000E+00 0. -1.
        -11    1    5    5    0    0 -0.58246430535E+02 -0.29739320900E+01 -0.38341907490E+02  0.69796796575E+02  0.00000000000E+00 0.  1.
          2    1    6    6  503    0  0.78651503713E+02  0.22580100230E+03  0.74159657961E+03  0.77919037377E+03  0.00000000000E+00 0. -1.
         -2    1    6    6    0  503  0.31557722358E+02  0.11911176682E+03  0.65007754824E+03  0.66165271976E+03  0.00000000000E+00 0.  1.
<mgrwt>
<rscale>  0 0.14928383E+04</rscale>
<asrwt>0</asrwt>
<pdfrwt beam="1">  1        1 0.25928555E+00 0.14928383E+04</pdfrwt>
<pdfrwt beam="2">  1       -1 0.50858143E-01 0.14928383E+04</pdfrwt>
<totfact> 0.18342730E+01</totfact>
</mgrwt>
</event>
<event>
12    2  0.3518828E-008  0.2183757E+04  0.7818608E-02  0.8525219E-01
          2   -1    0    0  501    0  0.00000000000E+00  0.00000000000E+00  0.16972823269E+04  0.16972823269E+04  0.00000000000E+00 0. -1.
         -2   -1    0    0    0  501 -0.00000000000E+00 -0.00000000000E+00 -0.70241601764E+03  0.70241601764E+03  0.00000000000E+00 0.  1.
         23    2    1    2    0    0  0.41438807183E+02  0.88992796310E+03  0.24829612765E+03  0.92919606630E+03  0.89807618707E+02 0.  0.
        254    2    1    2    0    0 -0.41438807183E+02 -0.88992796310E+03  0.74657018156E+03  0.14705022782E+04  0.90073356766E+03 0.  0.
         23    2    4    4    0    0 -0.33291376835E+03 -0.77110438766E+03  0.76937951882E+03  0.11426925706E+04  0.91476298049E+02 0.  0.
         23    2    4    4    0    0  0.29147496117E+03 -0.11882357545E+03 -0.22809337257E+02  0.32780970759E+03  0.88669292611E+02 0.  0.
          3    1    3    3  502    0  0.21777557922E+02  0.18989899850E+03  0.89762314328E+02  0.21117093724E+03  0.00000000000E+00 0. -1.
         -3    1    3    3    0  502  0.19661249261E+02  0.70002896460E+03  0.15853381332E+03  0.71802512907E+03  0.00000000000E+00 0.  1.
         11    1    5    5    0    0 -0.11917402795E+03 -0.38263754609E+03  0.38877147387E+03  0.55835221815E+03  0.00000000000E+00 0.  1.
        -11    1    5    5    0    0 -0.21373974040E+03 -0.38846684157E+03  0.38060804495E+03  0.58434035245E+03  0.00000000000E+00 0. -1.
          4    1    6    6  503    0  0.10026638081E+03 -0.78344927729E+02  0.16924147544E+02  0.12836550001E+03  0.00000000000E+00 0. -1.
         -4    1    6    6    0  503  0.19120858036E+03 -0.40478647719E+02 -0.39733484801E+02  0.19944420758E+03  0.00000000000E+00 0.  1.
<mgrwt>
<rscale>  0 0.21837567E+04</rscale>
<asrwt>0</asrwt>
<pdfrwt beam="1">  1        2 0.26112036E+00 0.21837567E+04</pdfrwt>
<pdfrwt beam="2">  1       -2 0.10806400E+00 0.21837567E+04</pdfrwt>
<totfact> 0.61781855E+00</totfact>
</mgrwt>
</event>
<event>
12    2  0.3518828E-008  0.1797351E+04  0.7818608E-02  0.8707710E-01
         -2   -1    0    0    0  501 -0.00000000000E+00  0.00000000000E+00  0.10838329696E+04  0.10838329696E+04  0.00000000000E+00 0. -1.
          2   -1    0    0  501    0  0.00000000000E+00 -0.00000000000E+00 -0.74514931085E+03  0.74514931085E+03  0.00000000000E+00 0.  1.
         23    2    1    2    0    0  0.11748601162E+03  0.62699678294E+03 -0.85956709189E+02  0.65027174759E+03  0.92395135760E+02 0.  0.
        254    2    1    2    0    0 -0.11748601162E+03 -0.62699678294E+03  0.42464036798E+03  0.11787105329E+04  0.89560658189E+03 0.  0.
         23    2    4    4    0    0  0.29829588080E+00 -0.83459380182E+03  0.27998113949E+03  0.88494317672E+03  0.90488035338E+02 0.  0.
         23    2    4    4    0    0 -0.11778430750E+03  0.20759701888E+03  0.14465922849E+03  0.29376735619E+03  0.91669525100E+02 0.  0.
          1    1    3    3  502    0  0.45062817109E+02  0.10425622320E+03 -0.40503817456E+02  0.12058431403E+03  0.00000000000E+00 0. -1.
         -1    1    3    3    0  502  0.72423194512E+02  0.52274055974E+03 -0.45452891733E+02  0.52968743356E+03  0.00000000000E+00 0.  1.
         11    1    5    5    0    0 -0.31871871948E+02 -0.40745274141E+03  0.10304312667E+03  0.42148717496E+03  0.00000000000E+00 0.  1.
        -11    1    5    5    0    0  0.32170167829E+02 -0.42714106041E+03  0.17693801281E+03  0.46345600175E+03  0.00000000000E+00 0. -1.
          1    1    6    6  503    0 -0.59227778639E+02  0.47395228005E+02  0.10127935799E+02  0.76529814346E+02  0.00000000000E+00 0. -1.
         -1    1    6    6    0  503 -0.58556528862E+02  0.16020179087E+03  0.13453129269E+03  0.21723754184E+03  0.00000000000E+00 0.  1.
<mgrwt>
<rscale>  0 0.17973507E+04</rscale>
<asrwt>0</asrwt>
<pdfrwt beam="1">  1        2 0.11463835E+00 0.17973507E+04</pdfrwt>
<pdfrwt beam="2">  1       -2 0.16674354E+00 0.17973507E+04</pdfrwt>
<totfact> 0.80261173E+00</totfact>
</mgrwt>
</event>
<event>
12    2  0.3518828E-008  0.1808564E+04  0.7818608E-02  0.8701759E-01
         -1   -1    0    0    0  501 -0.00000000000E+00  0.00000000000E+00  0.56082210175E+03  0.56082210175E+03  0.00000000000E+00 0.  1.
          1   -1    0    0  501    0  0.00000000000E+00 -0.00000000000E+00 -0.14580835678E+04  0.14580835678E+04  0.00000000000E+00 0. -1.
         23    2    1    2    0    0 -0.42109499371E+03  0.44204997871E+03 -0.61947490442E+03  0.87450355207E+03  0.90984218263E+02 0.  0.
        254    2    1    2    0    0  0.42109499371E+03 -0.44204997871E+03 -0.27778656168E+03  0.11444021175E+04  0.92723333380E+03 0.  0.
         23    2    4    4    0    0  0.36596861244E+03 -0.26092113364E+03 -0.60303729729E+03  0.75728144065E+03  0.88364784631E+02 0.  0.
         23    2    4    4    0    0  0.55126381270E+02 -0.18112884508E+03  0.32525073561E+03  0.38712067686E+03  0.90707226880E+02 0.  0.
          4    1    3    3  502    0 -0.24012914877E+03  0.26349220030E+03 -0.29793919392E+03  0.46460511295E+03  0.00000000000E+00 0. -1.
         -4    1    3    3    0  502 -0.18096584494E+03  0.17855777842E+03 -0.32153571050E+03  0.40989843912E+03  0.00000000000E+00 0.  1.
         11    1    5    5    0    0  0.26870627671E+03 -0.14967889733E+03 -0.36752227722E+03  0.47924884945E+03  0.00000000000E+00 0.  1.
        -11    1    5    5    0    0  0.97262335733E+02 -0.11124223631E+03 -0.23551502007E+03  0.27803259120E+03  0.00000000000E+00 0. -1.
          4    1    6    6  503    0  0.52851522059E+02 -0.12139648172E+03  0.28723091243E+03  0.31627833661E+03  0.00000000000E+00 0. -1.
         -4    1    6    6    0  503  0.22748592108E+01 -0.59732363362E+02  0.38019823185E+02  0.70842340252E+02  0.00000000000E+00 0.  1.
<mgrwt>
<rscale>  0 0.18085635E+04</rscale>
<asrwt>0</asrwt>
<pdfrwt beam="1">  1        1 0.22432055E+00 0.18085635E+04</pdfrwt>
<pdfrwt beam="2">  1       -1 0.86280323E-01 0.18085635E+04</pdfrwt>
<totfact> 0.87419971E+00</totfact>
</mgrwt>
</event>
<event>
12    2  0.3518828E-008  0.2292720E+04  0.7818608E-02  0.8480797E-01
         -1   -1    0    0    0  501 -0.00000000000E+00  0.00000000000E+00  0.43125168510E+03  0.43125168510E+03  0.00000000000E+00 0.  1.
          1   -1    0    0  501    0  0.00000000000E+00 -0.00000000000E+00 -0.30472730658E+04  0.30472730658E+04  0.00000000000E+00 0. -1.
         23    2    1    2    0    0  0.41987512899E+03  0.80291101587E+02  0.21128691276E+03  0.48580051992E+03  0.92834264713E+02 0.  0.
        254    2    1    2    0    0 -0.41987512899E+03 -0.80291101587E+02 -0.28273082934E+04  0.29927242310E+04  0.88316722737E+03 0.  0.
         23    2    4    4    0    0 -0.51788314810E+03  0.37247393830E+02 -0.80221952383E+03  0.95981401195E+03  0.89980273906E+02 0.  0.
         23    2    4    4    0    0  0.98008019106E+02 -0.11753849542E+03 -0.20250887696E+04  0.20329102190E+04  0.91206162367E+02 0.  0.
          1    1    3    3  502    0  0.28524486445E+03  0.70370472475E+02  0.98436436079E+02  0.30984894390E+03  0.00000000000E+00 0. -1.
         -1    1    3    3    0  502  0.13463026455E+03  0.99206291121E+01  0.11285047669E+03  0.17595157602E+03  0.00000000000E+00 0.  1.
         11    1    5    5    0    0 -0.18951755209E+01 -0.49376298252E+01 -0.29734120263E+00  0.52971964601E+01  0.00000000000E+00 0. -1.
        -11    1    5    5    0    0 -0.51598797258E+03  0.42185023655E+02 -0.80192218263E+03  0.95451681549E+03  0.00000000000E+00 0.  1.
          1    1    6    6  503    0  0.76935602066E+02 -0.74162069421E+02 -0.83024745296E+03  0.83709613102E+03  0.00000000000E+00 0. -1.
         -1    1    6    6    0  503  0.21072417040E+02 -0.43376425997E+02 -0.11948413166E+04  0.11958140880E+04  0.00000000000E+00 0.  1.
<mgrwt>
<rscale>  0 0.22927203E+04</rscale>
<asrwt>0</asrwt>
<pdfrwt beam="1">  1        1 0.46881125E+00 0.22927203E+04</pdfrwt>
<pdfrwt beam="2">  1       -1 0.66346412E-01 0.22927203E+04</pdfrwt>
<totfact> 0.11499821E+00</totfact>
</mgrwt>
</event>
<event>
12    2  0.3518828E-008  0.1756298E+04  0.7818608E-02  0.8729891E-01
         -2   -1    0    0    0  501 -0.00000000000E+00  0.00000000000E+00  0.43086824264E+03  0.43086824264E+03  0.00000000000E+00 0.  1.
          2   -1    0    0  501    0  0.00000000000E+00 -0.00000000000E+00 -0.17897472864E+04  0.17897472864E+04  0.00000000000E+00 0. -1.
         23    2    1    2    0    0 -0.32086283565E+03 -0.18325443921E+03  0.17513965277E+03  0.41945704413E+03  0.93462105200E+02 0.  0.
        254    2    1    2    0    0  0.32086283565E+03  0.18325443921E+03 -0.15340186966E+04  0.18011584849E+04  0.86857548760E+03 0.  0.
         23    2    4    4    0    0 -0.28262741407E+03 -0.88428946372E+01 -0.38719240783E+03  0.48773253749E+03  0.89490868114E+02 0.  0.
         23    2    4    4    0    0  0.60349024972E+03  0.19209733384E+03 -0.11468262887E+04  0.13134259474E+04  0.93676655150E+02 0.  0.
          3    1    3    3  502    0 -0.63558489775E+02 -0.94257565408E+01  0.27895821782E+01  0.64314137463E+02  0.00000000000E+00 0. -1.
         -3    1    3    3    0  502 -0.25730434587E+03 -0.17382868267E+03  0.17235007059E+03  0.35514290667E+03  0.00000000000E+00 0.  1.
         11    1    5    5    0    0 -0.26995477178E+03  0.10127573248E+02 -0.37405697444E+03  0.46140737606E+03  0.00000000000E+00 0.  1.
        -11    1    5    5    0    0 -0.12672642286E+02 -0.18970467886E+02 -0.13135433387E+02  0.26325161435E+02  0.00000000000E+00 0. -1.
          2    1    6    6  503    0  0.58205606525E+03  0.17663638720E+03 -0.11259482094E+04  0.12797456961E+04  0.00000000000E+00 0.  1.
         -2    1    6    6    0  503  0.21434184465E+02  0.15460946644E+02 -0.20878079293E+02  0.33680251332E+02  0.00000000000E+00 0. -1.
<mgrwt>
<rscale>  0 0.17562975E+04</rscale>
<asrwt>0</asrwt>
<pdfrwt beam="1">  1        2 0.27534574E+00 0.17562975E+04</pdfrwt>
<pdfrwt beam="2">  1       -2 0.66287422E-01 0.17562975E+04</pdfrwt>
<totfact> 0.17330847E+01</totfact>
</mgrwt>
</event>
<event>
12    2  0.3518828E-008  0.1665457E+04  0.7818608E-02  0.8781314E-01
         -2   -1    0    0    0  501 -0.00000000000E+00  0.00000000000E+00  0.12657293726E+04  0.12657293726E+04  0.00000000000E+00 0.  1.
          2   -1    0    0  501    0  0.00000000000E+00 -0.00000000000E+00 -0.54785555554E+03  0.54785555554E+03  0.00000000000E+00 0. -1.
         23    2    1    2    0    0 -0.43108839524E+03  0.15666857019E+03  0.64816170151E+03  0.80024483847E+03  0.99478463960E+02 0.  0.
        254    2    1    2    0    0  0.43108839524E+03 -0.15666857019E+03  0.69712115536E+02  0.10133400897E+04  0.90089739308E+03 0.  0.
         23    2    4    4    0    0 -0.14769382755E+03 -0.30751675619E+03  0.18175438979E+03  0.39660311231E+03  0.88765694114E+02 0.  0.
         23    2    4    4    0    0  0.57878222279E+03  0.15084818600E+03 -0.11204227425E+03  0.61673697735E+03  0.10033439777E+03 0.  0.
          2    1    3    3  502    0 -0.30906466721E+03  0.67405526986E+02  0.40471114294E+03  0.51366874813E+03  0.00000000000E+00 0. -1.
         -2    1    3    3    0  502 -0.12202372803E+03  0.89263043207E+02  0.24345055857E+03  0.28657609034E+03  0.00000000000E+00 0.  1.
         11    1    5    5    0    0 -0.28782114479E+02 -0.15032681461E+03  0.56935219531E+02  0.16330395135E+03  0.00000000000E+00 0. -1.
        -11    1    5    5    0    0 -0.11891171307E+03 -0.15718994158E+03  0.12481917026E+03  0.23329916096E+03  0.00000000000E+00 0.  1.
          2    1    6    6  503    0  0.10121342862E+03 -0.33927914718E+01  0.50618135263E+01  0.10139670174E+03  0.00000000000E+00 0. -1.
         -2    1    6    6    0  503  0.47756879417E+03  0.15424097747E+03 -0.11710408778E+03  0.51534027561E+03  0.00000000000E+00 0.  1.
<mgrwt>
<rscale>  0 0.16654571E+04</rscale>
<asrwt>0</asrwt>
<pdfrwt beam="1">  1        2 0.84285470E-01 0.16654571E+04</pdfrwt>
<pdfrwt beam="2">  1       -2 0.19472760E+00 0.16654571E+04</pdfrwt>
<totfact> 0.75977348E+00</totfact>
</mgrwt>
</event>
<event>
12    2  0.3518828E-008  0.1412903E+04  0.7818608E-02  0.8944532E-01
          1   -1    0    0  501    0  0.00000000000E+00  0.00000000000E+00  0.23723874764E+04  0.23723874764E+04  0.00000000000E+00 0. -1.
         -1   -1    0    0    0  501 -0.00000000000E+00 -0.00000000000E+00 -0.21036757205E+03  0.21036757205E+03  0.00000000000E+00 0.  1.
         23    2    1    2    0    0  0.27302000549E+03  0.67292106323E+02  0.10814765331E+04  0.11217109018E+04  0.97855529590E+02 0.  0.
        254    2    1    2    0    0 -0.27302000549E+03 -0.67292106323E+02  0.10805433712E+04  0.14610441466E+04  0.94234169506E+03 0.  0.
         23    2    4    4    0    0 -0.47267418816E+02  0.30376157487E+03  0.94428391706E+03  0.99697244813E+03  0.88185276882E+02 0.  0.
         23    2    4    4    0    0 -0.22575258667E+03 -0.37105368119E+03  0.13625945419E+03  0.46407169849E+03  0.90281990257E+02 0.  0.
          1    1    3    3  502    0  0.21754264324E+03  0.73513777638E+02  0.71395903483E+03  0.74997772003E+03  0.00000000000E+00 0. -1.
         -1    1    3    3    0  502  0.55477362251E+02 -0.62216713146E+01  0.36751749825E+03  0.37173318178E+03  0.00000000000E+00 0.  1.
         11    1    5    5    0    0  0.17555763083E+02  0.44678700418E+02  0.91222084754E+02  0.10308181137E+03  0.00000000000E+00 0. -1.
        -11    1    5    5    0    0 -0.64823181899E+02  0.25908287445E+03  0.85306183231E+03  0.89389063676E+03  0.00000000000E+00 0.  1.
          1    1    6    6  503    0 -0.66827618974E+02 -0.13370649129E+03  0.90638324186E+02  0.17481036091E+03  0.00000000000E+00 0. -1.
         -1    1    6    6    0  503 -0.15892496770E+03 -0.23734718991E+03  0.45621130000E+02  0.28926133758E+03  0.00000000000E+00 0.  1.
<mgrwt>
<rscale>  0 0.14129025E+04</rscale>
<asrwt>0</asrwt>
<pdfrwt beam="1">  1        1 0.36498267E+00 0.14129025E+04</pdfrwt>
<pdfrwt beam="2">  1       -1 0.32364243E-01 0.14129025E+04</pdfrwt>
<totfact> 0.14465842E+01</totfact>
</mgrwt>
</event>
<event>
12    2  0.3518828E-008  0.1157499E+04  0.7818608E-02  0.9150893E-01
          2   -1    0    0  501    0  0.00000000000E+00  0.00000000000E+00  0.67725540330E+03  0.67725540330E+03  0.00000000000E+00 0. -1.
         -2   -1    0    0    0  501 -0.00000000000E+00 -0.00000000000E+00 -0.49457094619E+03  0.49457094619E+03  0.00000000000E+00 0.  1.
         23    2    1    2    0    0  0.12617844066E+03  0.31481136815E+02  0.19943727112E+03  0.25497873233E+03  0.91251673774E+02 0.  0.
        254    2    1    2    0    0 -0.12617844066E+03 -0.31481136815E+02 -0.16752814009E+02  0.91684761716E+03  0.90742318433E+03 0.  0.
         23    2    4    4    0    0  0.25251515908E+03 -0.21256763881E+03  0.23821804162E+03  0.41735061057E+03  0.92112920654E+02 0.  0.
         23    2    4    4    0    0 -0.37869359974E+03  0.18108650200E+03 -0.25497085563E+03  0.49949700659E+03  0.91027241467E+02 0.  0.
          4    1    3    3  502    0  0.31093415879E+02  0.19422007765E+02  0.34658895911E+01  0.36824275788E+02  0.00000000000E+00 0. -1.
         -4    1    3    3    0  502  0.95085024778E+02  0.12059129049E+02  0.19597138152E+03  0.21815445654E+03  0.00000000000E+00 0.  1.
         11    1    5    5    0    0  0.74336338384E+02 -0.18364488296E+02  0.75926360823E+02  0.10783300934E+03  0.00000000000E+00 0.  1.
        -11    1    5    5    0    0  0.17817882070E+03 -0.19420315052E+03  0.16229168079E+03  0.30951760123E+03  0.00000000000E+00 0. -1.
          1    1    6    6  503    0 -0.60516795581E+02  0.22356631510E+01 -0.14081892312E+02  0.62173792133E+02  0.00000000000E+00 0. -1.
         -1    1    6    6    0  503 -0.31817680416E+03  0.17885083885E+03 -0.24088896331E+03  0.43732321446E+03  0.00000000000E+00 0.  1.
<mgrwt>
<rscale>  0 0.11574988E+04</rscale>
<asrwt>0</asrwt>
<pdfrwt beam="1">  1        2 0.10419314E+00 0.11574988E+04</pdfrwt>
<pdfrwt beam="2">  1       -2 0.76087838E-01 0.11574988E+04</pdfrwt>
<totfact> 0.65399149E+01</totfact>
</mgrwt>
</event>
<event>
12    2  0.3518828E-008  0.2176173E+04  0.7818608E-02  0.8528411E-01
          2   -1    0    0  501    0  0.00000000000E+00  0.00000000000E+00  0.12151486574E+04  0.12151486574E+04  0.00000000000E+00 0.  1.
         -2   -1    0    0    0  501 -0.00000000000E+00 -0.00000000000E+00 -0.97431073958E+03  0.97431073958E+03  0.00000000000E+00 0. -1.
         23    2    1    2    0    0 -0.55663576407E+03 -0.40905415702E+03 -0.48198690936E+03  0.84719020373E+03  0.90836024145E+02 0.  0.
        254    2    1    2    0    0  0.55663576407E+03  0.40905415702E+03  0.72282482717E+03  0.13422691932E+04  0.89556807620E+03 0.  0.
         23    2    4    4    0    0  0.63772973186E+03 -0.46154443683E+02  0.31189005604E+03  0.71723341998E+03  0.91208158153E+02 0.  0.
         23    2    4    4    0    0 -0.81093967783E+02  0.45520860071E+03  0.41093477113E+03  0.62503577326E+03  0.89505474469E+02 0.  0.
          4    1    3    3  502    0 -0.12573968572E+03 -0.57901643630E+02 -0.68804346598E+02  0.15458689146E+03  0.00000000000E+00 0.  1.
         -4    1    3    3    0  502 -0.43089607835E+03 -0.35115251339E+03 -0.41318256276E+03  0.69260331227E+03  0.00000000000E+00 0. -1.
         11    1    5    5    0    0  0.61854221719E+03 -0.33198589303E+02  0.31306693879E+03  0.69405153190E+03  0.00000000000E+00 0. -1.
        -11    1    5    5    0    0  0.19187514668E+02 -0.12955854379E+02 -0.11768827443E+01  0.23181888077E+02  0.00000000000E+00 0.  1.
          2    1    6    6  503    0 -0.13551159400E+02  0.17235395500E+03  0.20775756918E+03  0.27028268031E+03  0.00000000000E+00 0. -1.
         -2    1    6    6    0  503 -0.67542808383E+02  0.28285464571E+03  0.20317720195E+03  0.35475309295E+03  0.00000000000E+00 0.  1.
<mgrwt>
<rscale>  0 0.21761731E+04</rscale>
<asrwt>0</asrwt>
<pdfrwt beam="1">  1        2 0.18694595E+00 0.21761731E+04</pdfrwt>
<pdfrwt beam="2">  1       -2 0.14989396E+00 0.21761731E+04</pdfrwt>
<totfact> 0.51002145E+00</totfact>
</mgrwt>
</event>
<event>
12    2  0.3518828E-008  0.2135380E+04  0.7818608E-02  0.8545816E-01
         -2   -1    0    0    0  501 -0.00000000000E+00  0.00000000000E+00  0.84014114686E+03  0.84014114686E+03  0.00000000000E+00 0.  1.
          2   -1    0    0  501    0  0.00000000000E+00 -0.00000000000E+00 -0.13568698970E+04  0.13568698970E+04  0.00000000000E+00 0. -1.
         23    2    1    2    0    0 -0.37719424690E+03  0.71428759940E+03 -0.56581067269E+03  0.99024951115E+03  0.89275430318E+02 0.  0.
        254    2    1    2    0    0  0.37719424690E+03 -0.71428759940E+03  0.49081922596E+02  0.12067615327E+04  0.89519946774E+03 0.  0.
         23    2    4    4    0    0 -0.24328847971E+03 -0.41815483174E+03  0.12941954045E+03  0.50895282875E+03  0.90778944556E+02 0.  0.
         23    2    4    4    0    0  0.62048272661E+03 -0.29613276765E+03 -0.80337617858E+02  0.69780870391E+03  0.88257715287E+02 0.  0.
          4    1    3    3  502    0 -0.37649677838E+03  0.71482031368E+03 -0.55679781426E+03  0.98119402309E+03  0.00000000000E+00 0. -1.
         -4    1    3    3    0  502 -0.69746851361E+00 -0.53271428560E+00 -0.90128584373E+01  0.90554880624E+01  0.00000000000E+00 0.  1.
         11    1    5    5    0    0 -0.88041194731E+02 -0.14457946932E+03  0.12326516330E+01  0.16928081506E+03  0.00000000000E+00 0.  1.
        -11    1    5    5    0    0 -0.15524728498E+03 -0.27357536242E+03  0.12818688882E+03  0.33967201369E+03  0.00000000000E+00 0. -1.
          4    1    6    6  503    0  0.30721370090E+03 -0.17069996678E+03 -0.79629559516E+02  0.36036037994E+03  0.00000000000E+00 0. -1.
         -4    1    6    6    0  503  0.31326902571E+03 -0.12543280087E+03 -0.70805834198E+00  0.33744832397E+03  0.00000000000E+00 0.  1.
<mgrwt>
<rscale>  0 0.21353803E+04</rscale>
<asrwt>0</asrwt>
<pdfrwt beam="1">  1        2 0.20874921E+00 0.21353803E+04</pdfrwt>
<pdfrwt beam="2">  1       -2 0.12925249E+00 0.21353803E+04</pdfrwt>
<totfact> 0.62054201E+00</totfact>
</mgrwt>
</event>
<event>
12    2  0.3518828E-008  0.3566681E+04  0.7818608E-02  0.8098167E-01
         -2   -1    0    0    0  501 -0.00000000000E+00  0.00000000000E+00  0.17521655199E+04  0.17521655199E+04  0.00000000000E+00 0.  1.
          2   -1    0    0  501    0  0.00000000000E+00 -0.00000000000E+00 -0.18150702890E+04  0.18150702890E+04  0.00000000000E+00 0. -1.
         23    2    1    2    0    0 -0.27794714369E+03  0.15797730361E+04 -0.47930213954E+03  0.16762586479E+04  0.84705687016E+02 0.  0.
        254    2    1    2    0    0  0.27794714369E+03 -0.15797730361E+04  0.41639737038E+03  0.18909771610E+04  0.91075265184E+03 0.  0.
         23    2    4    4    0    0 -0.25211116860E+03 -0.15096325317E+03  0.14699535006E+03  0.34056586244E+03  0.89596476393E+02 0.  0.
         23    2    4    4    0    0  0.53005831229E+03 -0.14288097830E+04  0.26940202032E+03  0.15504112985E+04  0.93480135369E+02 0.  0.
          2    1    3    3  502    0 -0.24862532395E+03  0.15126553886E+04 -0.45397534391E+03  0.15987602976E+04  0.00000000000E+00 0. -1.
         -2    1    3    3    0  502 -0.29321819747E+02  0.67117647510E+02 -0.25326795628E+02  0.77498350288E+02  0.00000000000E+00 0.  1.
         11    1    5    5    0    0 -0.25129782126E+02 -0.42772607675E+02  0.51741178918E+02  0.71680900614E+02  0.00000000000E+00 0.  1.
        -11    1    5    5    0    0 -0.22698138647E+03 -0.10819064550E+03  0.95254171146E+02  0.26888496183E+03  0.00000000000E+00 0. -1.
          3    1    6    6  503    0  0.48679937075E+03 -0.12903138045E+04  0.27023091079E+03  0.14053142306E+04  0.00000000000E+00 0. -1.
         -3    1    6    6    0  503  0.43258941540E+02 -0.13849597846E+03 -0.82889047161E+00  0.14509706796E+03  0.00000000000E+00 0.  1.
<mgrwt>
<rscale>  0 0.35666811E+04</rscale>
<asrwt>0</asrwt>
<pdfrwt beam="1">  1        2 0.27924158E+00 0.35666811E+04</pdfrwt>
<pdfrwt beam="2">  1       -2 0.26956393E+00 0.35666811E+04</pdfrwt>
<totfact> 0.33733575E-01</totfact>
</mgrwt>
</event>
<event>
12    2  0.3518828E-008  0.2116782E+04  0.7818608E-02  0.8553887E-01
         -1   -1    0    0    0  501 -0.00000000000E+00  0.00000000000E+00  0.77575818549E+03  0.77575818549E+03  0.00000000000E+00 0.  1.
          1   -1    0    0  501    0  0.00000000000E+00 -0.00000000000E+00 -0.14439953532E+04  0.14439953532E+04  0.00000000000E+00 0. -1.
         23    2    1    2    0    0 -0.52299379443E+03  0.77234116379E+02 -0.92281050494E+03  0.10679935867E+04  0.97690610819E+02 0.  0.
        254    2    1    2    0    0  0.52299379443E+03 -0.77234116379E+02  0.25457333722E+03  0.11517599520E+04  0.99108818241E+03 0.  0.
         23    2    4    4    0    0 -0.14930806764E+03  0.14656614800E+03  0.36343493509E+03  0.42904877309E+03  0.90682759356E+02 0.  0.
         23    2    4    4    0    0  0.67230186207E+03 -0.22380026438E+03 -0.10886159787E+03  0.72271117893E+03  0.91565542595E+02 0.  0.
          4    1    3    3  502    0 -0.20060055120E+03  0.33171778491E+02 -0.26413703684E+03  0.33333065004E+03  0.00000000000E+00 0.  1.
         -4    1    3    3    0  502 -0.32239324323E+03  0.44062337888E+02 -0.65867346811E+03  0.73466293665E+03  0.00000000000E+00 0. -1.
         11    1    5    5    0    0 -0.32786359571E+02  0.48569861585E+02  0.18718859592E+03  0.19614674933E+03  0.00000000000E+00 0. -1.
        -11    1    5    5    0    0 -0.11652170807E+03  0.97996286415E+02  0.17624633916E+03  0.23290202376E+03  0.00000000000E+00 0.  1.
          4    1    6    6  503    0  0.73356322629E+02 -0.54031488317E+02 -0.25537182838E+02  0.94618705903E+02  0.00000000000E+00 0. -1.
         -4    1    6    6    0  503  0.59894553944E+03 -0.16976877606E+03 -0.83324415032E+02  0.62809247303E+03  0.00000000000E+00 0.  1.
<mgrwt>
<rscale>  0 0.21167817E+04</rscale>
<asrwt>0</asrwt>
<pdfrwt beam="1">  1        1 0.22215313E+00 0.21167817E+04</pdfrwt>
<pdfrwt beam="2">  1       -1 0.11934741E+00 0.21167817E+04</pdfrwt>
<totfact> 0.41233437E+00</totfact>
</mgrwt>
</event>
<event>
12    2  0.3518828E-008  0.1259975E+04  0.7818608E-02  0.9061921E-01
         -2   -1    0    0    0  501 -0.00000000000E+00  0.00000000000E+00  0.90684468496E+03  0.90684468496E+03  0.00000000000E+00 0.  1.
          2   -1    0    0  501    0  0.00000000000E+00 -0.00000000000E+00 -0.43765434773E+03  0.43765434773E+03  0.00000000000E+00 0. -1.
         23    2    1    2    0    0  0.28670676414E+03  0.11678611989E+03  0.14523211855E+03  0.35404575055E+03  0.91740170175E+02 0.  0.
        254    2    1    2    0    0 -0.28670676414E+03 -0.11678611989E+03  0.32395821868E+03  0.99045328213E+03  0.88329440745E+03 0.  0.
         23    2    4    4    0    0 -0.28004484060E+03 -0.44374513988E+03  0.16725075750E+02  0.53246312720E+03  0.88895397826E+02 0.  0.
         23    2    4    4    0    0 -0.66619235434E+01  0.32695901999E+03  0.30723314293E+03  0.45799015493E+03  0.91739827377E+02 0.  0.
          1    1    3    3  502    0  0.16351016307E+03  0.54250112288E+02  0.12840713289E+03  0.21486516676E+03  0.00000000000E+00 0. -1.
         -1    1    3    3    0  502  0.12319660107E+03  0.62536007602E+02  0.16824985660E+02  0.13918058379E+03  0.00000000000E+00 0.  1.
         11    1    5    5    0    0 -0.15108011458E+02 -0.80727875933E+02 -0.69709500518E+01  0.82424729951E+02  0.00000000000E+00 0. -1.
        -11    1    5    5    0    0 -0.26493682914E+03 -0.36301726395E+03  0.23696025802E+02  0.45003839725E+03  0.00000000000E+00 0.  1.
          2    1    6    6  503    0 -0.40573035944E+02  0.20060671779E+03  0.22147577881E+03  0.30156383581E+03  0.00000000000E+00 0. -1.
         -2    1    6    6    0  503  0.33911112401E+02  0.12635230220E+03  0.85757364118E+02  0.15642631913E+03  0.00000000000E+00 0.  1.
<mgrwt>
<rscale>  0 0.12599754E+04</rscale>
<asrwt>0</asrwt>
<pdfrwt beam="1">  1        2 0.67331438E-01 0.12599754E+04</pdfrwt>
<pdfrwt beam="2">  1       -2 0.13951457E+00 0.12599754E+04</pdfrwt>
<totfact> 0.25552917E+01</totfact>
</mgrwt>
</event>
<event>
12    2  0.3518828E-008  0.1468307E+04  0.7818608E-02  0.8905806E-01
          1   -1    0    0  501    0  0.00000000000E+00  0.00000000000E+00  0.10836115804E+04  0.10836115804E+04  0.00000000000E+00 0. -1.
         -1   -1    0    0    0  501 -0.00000000000E+00 -0.00000000000E+00 -0.49739332160E+03  0.49739332160E+03  0.00000000000E+00 0.  1.
         23    2    1    2    0    0 -0.24093837163E+03 -0.15556073226E+03  0.55785256907E+03  0.63382303145E+03  0.91003879197E+02 0.  0.
        254    2    1    2    0    0  0.24093837163E+03  0.15556073226E+03  0.28365689699E+02  0.94718187051E+03  0.90227403993E+03 0.  0.
         23    2    4    4    0    0 -0.15448654793E+03 -0.24626235119E+02 -0.33020051546E+03  0.37620903311E+03  0.89600843950E+02 0.  0.
         23    2    4    4    0    0  0.39542491956E+03  0.18018696738E+03  0.35856620515E+03  0.57097283741E+03  0.92801117182E+02 0.  0.
          4    1    3    3  502    0 -0.22212700188E+03 -0.15373420327E+03  0.55111027101E+03  0.61375658126E+03  0.00000000000E+00 0. -1.
         -4    1    3    3    0  502 -0.18811369752E+02 -0.18265289891E+01  0.67422980532E+01  0.20066450187E+02  0.00000000000E+00 0.  1.
         11    1    5    5    0    0 -0.40801020202E+02  0.33318007710E+02 -0.95538739893E+02  0.10909841295E+03  0.00000000000E+00 0.  1.
        -11    1    5    5    0    0 -0.11368552773E+03 -0.57944242829E+02 -0.23466177556E+03  0.26711062016E+03  0.00000000000E+00 0. -1.
          3    1    6    6  503    0  0.29549330078E+03  0.10408357978E+03  0.21369941031E+03  0.37923227757E+03  0.00000000000E+00 0. -1.
         -3    1    6    6    0  503  0.99931618786E+02  0.76103387597E+02  0.14486679485E+03  0.19174055984E+03  0.00000000000E+00 0.  1.
<mgrwt>
<rscale>  0 0.14683067E+04</rscale>
<asrwt>0</asrwt>
<pdfrwt beam="1">  1        1 0.16670947E+00 0.14683067E+04</pdfrwt>
<pdfrwt beam="2">  1       -1 0.76522050E-01 0.14683067E+04</pdfrwt>
<totfact> 0.21689063E+01</totfact>
</mgrwt>
</event>
<event>
12    2  0.3518828E-008  0.1579443E+04  0.7818608E-02  0.8833277E-01
         -4   -1    0    0    0  501 -0.00000000000E+00  0.00000000000E+00  0.31886680313E+03  0.31886680313E+03  0.00000000000E+00 0.  1.
          4   -1    0    0  501    0  0.00000000000E+00 -0.00000000000E+00 -0.19558643771E+04  0.19558643771E+04  0.00000000000E+00 0. -1.
         23    2    1    2    0    0  0.13990228600E+03 -0.49053049052E+03 -0.76873229103E+03  0.92707882018E+03  0.91285222187E+02 0.  0.
        254    2    1    2    0    0 -0.13990228600E+03  0.49053049052E+03 -0.86826528291E+03  0.13476523600E+04  0.89559447867E+03 0.  0.
         23    2    4    4    0    0 -0.90869411253E+02  0.28700553303E+03 -0.10239984493E+04  0.10713343769E+04  0.92493767921E+02 0.  0.
         23    2    4    4    0    0 -0.49032874746E+02  0.20352495749E+03  0.15573316635E+03  0.27631798315E+03  0.90951512272E+02 0.  0.
          1    1    3    3  502    0  0.10344669231E+03 -0.27761903177E+03 -0.51223239386E+03  0.59173944457E+03  0.00000000000E+00 0. -1.
         -1    1    3    3    0  502  0.36455593689E+02 -0.21291145875E+03 -0.25649989717E+03  0.33533937560E+03  0.00000000000E+00 0.  1.
         11    1    5    5    0    0 -0.68911141612E+02  0.14101024749E+03 -0.39049609752E+03  0.42085607696E+03  0.00000000000E+00 0. -1.
        -11    1    5    5    0    0 -0.21958269641E+02  0.14599528554E+03 -0.63350235174E+03  0.65047829992E+03  0.00000000000E+00 0.  1.
          1    1    6    6  503    0 -0.56435231340E+02  0.20205734692E+03  0.16313010128E+03  0.26575089224E+03  0.00000000000E+00 0. -1.
         -1    1    6    6    0  503  0.74023565944E+01  0.14676105698E+01 -0.73969349345E+01  0.10567090913E+02  0.00000000000E+00 0.  1.
<mgrwt>
<rscale>  0 0.15794432E+04</rscale>
<asrwt>0</asrwt>
<pdfrwt beam="1">  1        4 0.30090222E+00 0.15794432E+04</pdfrwt>
<pdfrwt beam="2">  1       -4 0.49056430E-01 0.15794432E+04</pdfrwt>
<totfact> 0.23649526E-01</totfact>
</mgrwt>
</event>
<event>
12    2  0.3518828E-008  0.2173763E+04  0.7818608E-02  0.8529428E-01
          1   -1    0    0  501    0  0.00000000000E+00  0.00000000000E+00  0.57474900985E+03  0.57474900985E+03  0.00000000000E+00 0. -1.
         -1   -1    0    0    0  501 -0.00000000000E+00 -0.00000000000E+00 -0.20553524230E+04  0.20553524230E+04  0.00000000000E+00 0.  1.
         23    2    1    2    0    0  0.41309573665E+03 -0.12800373424E+03  0.33539529612E+03  0.55493088656E+03  0.91789109314E+02 0.  0.
        254    2    1    2    0    0 -0.41309573665E+03  0.12800373424E+03 -0.18159987093E+04  0.20751705463E+04  0.90633792844E+03 0.  0.
         23    2    4    4    0    0 -0.12252087034E+01 -0.20091918003E+03 -0.44566814844E+02  0.22475075121E+03  0.90314346288E+02 0.  0.
         23    2    4    4    0    0 -0.41187052794E+03  0.32892291426E+03 -0.17714318944E+04  0.18504197951E+04  0.90856183800E+02 0.  0.
          4    1    3    3  502    0  0.40405191255E+03 -0.12470601770E+03  0.30056698403E+03  0.51879673359E+03  0.00000000000E+00 0. -1.
         -4    1    3    3    0  502  0.90438240937E+01 -0.32977165323E+01  0.34828312086E+02  0.36134152976E+02  0.00000000000E+00 0.  1.
         11    1    5    5    0    0  0.12641999152E+01 -0.62424754478E+02 -0.58466666855E+02  0.85538291462E+02  0.00000000000E+00 0.  1.
        -11    1    5    5    0    0 -0.24894086186E+01 -0.13849442555E+03  0.13899852011E+02  0.13921245975E+03  0.00000000000E+00 0. -1.
          3    1    6    6  503    0 -0.12669667013E+03  0.79381168660E+02 -0.63941920326E+03  0.65666607470E+03  0.00000000000E+00 0. -1.
         -3    1    6    6    0  503 -0.28517385781E+03  0.24954174560E+03 -0.11320126912E+04  0.11937537204E+04  0.00000000000E+00 0.  1.
<mgrwt>
<rscale>  0 0.21737633E+04</rscale>
<asrwt>0</asrwt>
<pdfrwt beam="1">  1        1 0.88422926E-01 0.21737633E+04</pdfrwt>
<pdfrwt beam="2">  1       -1 0.31620806E+00 0.21737633E+04</pdfrwt>
<totfact> 0.86317797E-01</totfact>
</mgrwt>
</event>
<event>
12    2  0.3518828E-008  0.2548255E+04  0.7818608E-02  0.8385993E-01
         -2   -1    0    0    0  501 -0.00000000000E+00  0.00000000000E+00  0.69810575196E+03  0.69810575196E+03  0.00000000000E+00 0. -1.
          2   -1    0    0  501    0  0.00000000000E+00 -0.00000000000E+00 -0.23254360591E+04  0.23254360591E+04  0.00000000000E+00 0.  1.
         23    2    1    2    0    0  0.45679713442E+02 -0.64864817941E+02 -0.20201549340E+04  0.20237208975E+04  0.90145619147E+02 0.  0.
        254    2    1    2    0    0 -0.45679713442E+02  0.64864817941E+02  0.39282462689E+03  0.99982091356E+03  0.91598940544E+03 0.  0.
         23    2    4    4    0    0 -0.29694143349E+03 -0.22405452597E+03  0.46201687869E+03  0.60015830443E+03  0.91409784229E+02 0.  0.
         23    2    4    4    0    0  0.25126172005E+03  0.28891934391E+03 -0.69192251803E+02  0.39966260913E+03  0.91300570547E+02 0.  0.
          2    1    3    3  502    0  0.56326603658E+01 -0.15523526259E+02 -0.52410277123E+02  0.54950376508E+02  0.00000000000E+00 0. -1.
         -2    1    3    3    0  502  0.40047053076E+02 -0.49341291681E+02 -0.19677446569E+04  0.19687705210E+04  0.00000000000E+00 0.  1.
         11    1    5    5    0    0 -0.29738468657E+03 -0.19934579250E+03  0.43792594244E+03  0.56564611539E+03  0.00000000000E+00 0.  1.
        -11    1    5    5    0    0  0.44325308318E+00 -0.24708733468E+02  0.24090936256E+02  0.34512189043E+02  0.00000000000E+00 0. -1.
          3    1    6    6  503    0  0.18434316961E+02  0.68183194736E+02 -0.28882655989E+02  0.76308452370E+02  0.00000000000E+00 0. -1.
         -3    1    6    6    0  503  0.23282740309E+03  0.22073614917E+03 -0.40309595814E+02  0.32335415676E+03  0.00000000000E+00 0.  1.
<mgrwt>
<rscale>  0 0.25482545E+04</rscale>
<asrwt>0</asrwt>
<pdfrwt beam="1">  1        2 0.35775940E+00 0.25482545E+04</pdfrwt>
<pdfrwt beam="2">  1       -2 0.10740088E+00 0.25482545E+04</pdfrwt>
<totfact> 0.27113605E+00</totfact>
</mgrwt>
</event>
<event>
12    2  0.3518828E-008  0.1418518E+04  0.7818608E-02  0.8940522E-01
          2   -1    0    0  501    0  0.00000000000E+00  0.00000000000E+00  0.39025211872E+03  0.39025211872E+03  0.00000000000E+00 0.  1.
         -2   -1    0    0    0  501 -0.00000000000E+00 -0.00000000000E+00 -0.12890344449E+04  0.12890344449E+04  0.00000000000E+00 0. -1.
         23    2    1    2    0    0  0.23557502791E+03 -0.34696661376E+03 -0.32428069814E+03  0.53850497892E+03  0.94595011976E+02 0.  0.
        254    2    1    2    0    0 -0.23557502791E+03  0.34696661376E+03 -0.57450162803E+03  0.11407815847E+04  0.89187952018E+03 0.  0.
         23    2    4    4    0    0 -0.39800664089E+03  0.55213039463E+03 -0.29466918827E+03  0.74707737157E+03  0.89651601915E+02 0.  0.
         23    2    4    4    0    0  0.16243161298E+03 -0.20516378087E+03 -0.27983243976E+03  0.39370421312E+03  0.90667564263E+02 0.  0.
          1    1    3    3  502    0  0.16832308121E+03 -0.19218791531E+03 -0.23714935678E+03  0.34858094022E+03  0.00000000000E+00 0. -1.
         -1    1    3    3    0  502  0.67251946702E+02 -0.15477869845E+03 -0.87131341353E+02  0.18992403870E+03  0.00000000000E+00 0.  1.
         11    1    5    5    0    0 -0.27176681688E+03  0.33200014775E+03 -0.22221034285E+03  0.48317567957E+03  0.00000000000E+00 0. -1.
        -11    1    5    5    0    0 -0.12623982401E+03  0.22013024688E+03 -0.72458845424E+02  0.26390169200E+03  0.00000000000E+00 0.  1.
          1    1    6    6  503    0  0.13006226923E+03 -0.10383001822E+03 -0.13669518840E+03  0.21536583084E+03  0.00000000000E+00 0. -1.
         -1    1    6    6    0  503  0.32369343750E+02 -0.10133376264E+03 -0.14313725137E+03  0.17833838228E+03  0.00000000000E+00 0.  1.
<mgrwt>
<rscale>  0 0.14185181E+04</rscale>
<asrwt>0</asrwt>
<pdfrwt beam="1">  1        2 0.60038786E-01 0.14185181E+04</pdfrwt>
<pdfrwt beam="2">  1       -2 0.19831300E+00 0.14185181E+04</pdfrwt>
<totfact> 0.10833292E+01</totfact>
</mgrwt>
</event>
<event>
12    2  0.3518828E-008  0.1599709E+04  0.7818608E-02  0.8820727E-01
          2   -1    0    0  501    0  0.00000000000E+00  0.00000000000E+00  0.22739923366E+04  0.22739923366E+04  0.00000000000E+00 0. -1.
         -2   -1    0    0    0  501 -0.00000000000E+00 -0.00000000000E+00 -0.28134110463E+03  0.28134110463E+03  0.00000000000E+00 0.  1.
         23    2    1    2    0    0  0.25988121426E+03 -0.27623100178E+03  0.61561181432E+02  0.39476414358E+03  0.90593256546E+02 0.  0.
        254    2    1    2    0    0 -0.25988121426E+03  0.27623100178E+03  0.19310900506E+04  0.21605692977E+04  0.89168890022E+03 0.  0.
         23    2    4    4    0    0 -0.56474226622E+03  0.67374111381E+02  0.13344649709E+04  0.14536872832E+04  0.94534969507E+02 0.  0.
         23    2    4    4    0    0  0.30486105197E+03  0.20885689040E+03  0.59662507964E+03  0.70688201450E+03  0.84612263322E+02 0.  0.
          2    1    3    3  502    0  0.23298104845E+02 -0.71556629338E+02 -0.31113441140E+01  0.75318213957E+02  0.00000000000E+00 0. -1.
         -2    1    3    3    0  502  0.23658310941E+03 -0.20467437244E+03  0.64672525546E+02  0.31944592962E+03  0.00000000000E+00 0.  1.
         11    1    5    5    0    0 -0.23107264511E+03  0.40518996829E+02  0.66557208263E+03  0.70570713019E+03  0.00000000000E+00 0. -1.
        -11    1    5    5    0    0 -0.33366962112E+03  0.26855114551E+02  0.66889288830E+03  0.74798015298E+03  0.00000000000E+00 0.  1.
          1    1    6    6  503    0  0.43928611812E+02  0.45053745519E+02  0.54107931393E+02  0.82989343657E+02  0.00000000000E+00 0. -1.
         -1    1    6    6    0  503  0.26093244015E+03  0.16380314488E+03  0.54251714825E+03  0.62389267085E+03  0.00000000000E+00 0.  1.
<mgrwt>
<rscale>  0 0.15997094E+04</rscale>
<asrwt>0</asrwt>
<pdfrwt beam="1">  1        2 0.34984496E+00 0.15997094E+04</pdfrwt>
<pdfrwt beam="2">  1       -2 0.43283248E-01 0.15997094E+04</pdfrwt>
<totfact> 0.22787638E+01</totfact>
</mgrwt>
</event>
<event>
12    2  0.3518828E-008  0.2032618E+04  0.7818608E-02  0.8591521E-01
         -2   -1    0    0    0  501 -0.00000000000E+00  0.00000000000E+00  0.18677030927E+04  0.18677030927E+04  0.00000000000E+00 0. -1.
          2   -1    0    0  501    0  0.00000000000E+00 -0.00000000000E+00 -0.55302362842E+03  0.55302362842E+03  0.00000000000E+00 0.  1.
         23    2    1    2    0    0 -0.60419972141E+03 -0.48094053733E+03  0.85888522803E+03  0.11586427859E+04  0.91696055526E+02 0.  0.
        254    2    1    2    0    0  0.60419972141E+03  0.48094053733E+03  0.45579423621E+03  0.12620839352E+04  0.88811393971E+03 0.  0.
         23    2    4    4    0    0  0.65722788830E+03  0.23233551622E+03  0.62709854904E+03  0.94196321178E+03  0.90076705489E+02 0.  0.
         23    2    4    4    0    0 -0.53028166896E+02  0.24860502111E+03 -0.17130431283E+03  0.32012072341E+03  0.92280371461E+02 0.  0.
          2    1    3    3  502    0 -0.94881217860E+02 -0.11972797591E+03  0.15264434714E+03  0.21595724214E+03  0.00000000000E+00 0.  1.
         -2    1    3    3    0  502 -0.50931850355E+03 -0.36121256142E+03  0.70624088089E+03  0.94268554376E+03  0.00000000000E+00 0. -1.
         11    1    5    5    0    0  0.43307166636E+03  0.14929068919E+03  0.35330937975E+03  0.57850349688E+03  0.00000000000E+00 0.  1.
        -11    1    5    5    0    0  0.22415622194E+03  0.83044827032E+02  0.27378916929E+03  0.36345971490E+03  0.00000000000E+00 0. -1.
          2    1    6    6  503    0 -0.49562378185E+02  0.23175702333E+03 -0.11926967250E+03  0.26531679550E+03  0.00000000000E+00 0.  1.
         -2    1    6    6    0  503 -0.34657887109E+01  0.16847997777E+02 -0.52034640326E+02  0.54803927910E+02  0.00000000000E+00 0. -1.
<mgrwt>
<rscale>  0 0.20326180E+04</rscale>
<asrwt>0</asrwt>
<pdfrwt beam="1">  1        2 0.85080559E-01 0.20326180E+04</pdfrwt>
<pdfrwt beam="2">  1       -2 0.28733893E+00 0.20326180E+04</pdfrwt>
<totfact> 0.19262941E+00</totfact>
</mgrwt>
</event>
<event>
12    2  0.3518828E-008  0.1700267E+04  0.7818608E-02  0.8761212E-01
          2   -1    0    0  501    0  0.00000000000E+00  0.00000000000E+00  0.12103396904E+04  0.12103396904E+04  0.00000000000E+00 0. -1.
         -2   -1    0    0    0  501 -0.00000000000E+00 -0.00000000000E+00 -0.59712755355E+03  0.59712755355E+03  0.00000000000E+00 0.  1.
         23    2    1    2    0    0 -0.58717958832E+03 -0.71473083499E+01  0.83245675287E+02  0.60060846206E+03  0.94708654742E+02 0.  0.
        254    2    1    2    0    0  0.58717958832E+03  0.71473083499E+01  0.52996646155E+03  0.12068587819E+04  0.91148928468E+03 0.  0.
         23    2    4    4    0    0  0.12376828246E+03 -0.40372634764E+03  0.34975810877E+03  0.55540928849E+03  0.88516617466E+02 0.  0.
         23    2    4    4    0    0  0.46341130586E+03  0.41087365599E+03  0.18020835278E+03  0.65144949340E+03  0.91346551398E+02 0.  0.
          1    1    3    3  502    0 -0.15022486511E+03  0.46283667675E+01 -0.19573007449E+02  0.15156528131E+03  0.00000000000E+00 0. -1.
         -1    1    3    3    0  502 -0.43695472320E+03 -0.11775675117E+02  0.10281868274E+03  0.44904318075E+03  0.00000000000E+00 0.  1.
         11    1    5    5    0    0  0.14740962427E+02 -0.22130757067E+02  0.26485814521E+00  0.26592038874E+02  0.00000000000E+00 0. -1.
        -11    1    5    5    0    0  0.10902732003E+03 -0.38159559057E+03  0.34949325062E+03  0.52881724961E+03  0.00000000000E+00 0.  1.
          3    1    6    6  503    0 -0.13666684825E+01  0.10828237631E+01 -0.45365959336E+01  0.48601432806E+01  0.00000000000E+00 0. -1.
         -3    1    6    6    0  503  0.46477797434E+03  0.40979083222E+03  0.18474494871E+03  0.64658935012E+03  0.00000000000E+00 0.  1.
<mgrwt>
<rscale>  0 0.17002672E+04</rscale>
<asrwt>0</asrwt>
<pdfrwt beam="1">  1        2 0.18620611E+00 0.17002672E+04</pdfrwt>
<pdfrwt beam="2">  1       -2 0.91865778E-01 0.17002672E+04</pdfrwt>
<totfact> 0.17909233E+01</totfact>
</mgrwt>
</event>
<event>
12    2  0.3518828E-008  0.1508521E+04  0.7818608E-02  0.8878807E-01
          2   -1    0    0  501    0  0.00000000000E+00  0.00000000000E+00  0.11861151952E+04  0.11861151952E+04  0.00000000000E+00 0. -1.
         -2   -1    0    0    0  501 -0.00000000000E+00 -0.00000000000E+00 -0.47964020736E+03  0.47964020736E+03  0.00000000000E+00 0.  1.
         23    2    1    2    0    0  0.45629433318E+03 -0.15179880065E+03  0.34047548428E+03  0.59624906644E+03  0.91334546967E+02 0.  0.
        254    2    1    2    0    0 -0.45629433318E+03  0.15179880065E+03  0.36599950356E+03  0.10695063361E+04  0.88240623979E+03 0.  0.
         23    2    4    4    0    0 -0.46932556876E+03  0.30445669452E+03 -0.95277657632E+02  0.57560520313E+03  0.96349102205E+02 0.  0.
         23    2    4    4    0    0  0.13031235577E+02 -0.15265789387E+03  0.46127716119E+03  0.49390113299E+03  0.87678184681E+02 0.  0.
          3    1    3    3  502    0  0.36624811968E+03 -0.82792359555E+02  0.27312433245E+03  0.46431579873E+03  0.00000000000E+00 0. -1.
         -3    1    3    3    0  502  0.90046213494E+02 -0.69006441093E+02  0.67351151831E+02  0.13193326771E+03  0.00000000000E+00 0.  1.
         11    1    5    5    0    0 -0.43979566701E+03  0.28078029434E+03 -0.11289445827E+03  0.53385668594E+03  0.00000000000E+00 0. -1.
        -11    1    5    5    0    0 -0.29529901743E+02  0.23676400178E+02  0.17616800642E+02  0.41748517186E+02  0.00000000000E+00 0.  1.
          2    1    6    6  503    0  0.50113374061E+02 -0.80975014922E+02  0.26969973875E+03  0.28601792318E+03  0.00000000000E+00 0. -1.
         -2    1    6    6    0  503 -0.37082138484E+02 -0.71682878949E+02  0.19157742244E+03  0.20788320980E+03  0.00000000000E+00 0.  1.
<mgrwt>
<rscale>  0 0.15085205E+04</rscale>
<asrwt>0</asrwt>
<pdfrwt beam="1">  1        2 0.18247926E+00 0.15085205E+04</pdfrwt>
<pdfrwt beam="2">  1       -2 0.73790801E-01 0.15085205E+04</pdfrwt>
<totfact> 0.30864318E+01</totfact>
</mgrwt>
</event>
<event>
12    2  0.3518828E-008  0.1899000E+04  0.7818608E-02  0.8655354E-01
          2   -1    0    0  501    0  0.00000000000E+00  0.00000000000E+00  0.10938693664E+04  0.10938693664E+04  0.00000000000E+00 0. -1.
         -2   -1    0    0    0  501 -0.00000000000E+00 -0.00000000000E+00 -0.82418461822E+03  0.82418461822E+03  0.00000000000E+00 0.  1.
         23    2    1    2    0    0  0.41344001655E+03  0.32989652211E+03  0.60999854386E+03  0.81247398412E+03  0.90837155326E+02 0.  0.
        254    2    1    2    0    0 -0.41344001655E+03 -0.32989652211E+03 -0.34031379568E+03  0.11055800005E+04  0.90924655367E+03 0.  0.
         23    2    4    4    0    0 -0.65115551427E+03 -0.33803486566E+03 -0.83862976044E+02  0.74393873524E+03  0.90226209450E+02 0.  0.
         23    2    4    4    0    0  0.23771549772E+03  0.81383435551E+01 -0.25645081964E+03  0.36164126525E+03  0.91883030774E+02 0.  0.
          1    1    3    3  502    0  0.19873140851E+03  0.11680356369E+03  0.21747993255E+03  0.31691444631E+03  0.00000000000E+00 0. -1.
         -1    1    3    3    0  502  0.21470860803E+03  0.21309295842E+03  0.39251861131E+03  0.49555953781E+03  0.00000000000E+00 0.  1.
         11    1    5    5    0    0 -0.52647144354E+03 -0.31127975512E+03 -0.73088485950E+02  0.61596200661E+03  0.00000000000E+00 0.  1.
        -11    1    5    5    0    0 -0.12468407073E+03 -0.26755110548E+02 -0.10774490094E+02  0.12797672863E+03  0.00000000000E+00 0. -1.
          4    1    6    6  503    0  0.14462006372E+03 -0.39670484175E+02 -0.14141018944E+03  0.20612023632E+03  0.00000000000E+00 0. -1.
         -4    1    6    6    0  503  0.93095434000E+02  0.47808827730E+02 -0.11504063020E+03  0.15552102893E+03  0.00000000000E+00 0.  1.
<mgrwt>
<rscale>  0 0.18990001E+04</rscale>
<asrwt>0</asrwt>
<pdfrwt beam="1">  1        2 0.16828759E+00 0.18990001E+04</pdfrwt>
<pdfrwt beam="2">  1       -2 0.12679763E+00 0.18990001E+04</pdfrwt>
<totfact> 0.95225792E+00</totfact>
</mgrwt>
</event>
<event>
12    2  0.3518828E-008  0.1388176E+04  0.7818608E-02  0.8962422E-01
         -2   -1    0    0    0  501 -0.00000000000E+00  0.00000000000E+00  0.17908682644E+03  0.17908682644E+03  0.00000000000E+00 0.  1.
          2   -1    0    0  501    0  0.00000000000E+00 -0.00000000000E+00 -0.26900818730E+04  0.26900818730E+04  0.00000000000E+00 0. -1.
         23    2    1    2    0    0  0.10644479188E+03  0.37807682877E+03 -0.83177235661E+03  0.92244019767E+03  0.69123678236E+02 0.  0.
        254    2    1    2    0    0 -0.10644479188E+03 -0.37807682877E+03 -0.16792226899E+04  0.19467285017E+04  0.90315581985E+03 0.  0.
         23    2    4    4    0    0 -0.39460509182E+03 -0.47743195102E+03 -0.82835671581E+03  0.10384514340E+04  0.92477488341E+02 0.  0.
         23    2    4    4    0    0  0.28816029993E+03  0.99355122248E+02 -0.85086597410E+03  0.90827706770E+03  0.89925119131E+02 0.  0.
          1    1    3    3  502    0  0.48658306183E+02  0.27176590160E+03 -0.61636726225E+03  0.67537614557E+03  0.00000000000E+00 0. -1.
         -1    1    3    3    0  502  0.57786485698E+02  0.10631092717E+03 -0.21540509436E+03  0.24706405210E+03  0.00000000000E+00 0.  1.
         11    1    5    5    0    0 -0.19322479390E+02 -0.43474765510E+02 -0.33573128234E+02  0.58228587355E+02  0.00000000000E+00 0.  1.
        -11    1    5    5    0    0 -0.37528261243E+03 -0.43395718551E+03 -0.79478358758E+03  0.98022284667E+03  0.00000000000E+00 0. -1.
          2    1    6    6  503    0  0.23189522816E+03  0.98044705237E+02 -0.59111895287E+03  0.64250274514E+03  0.00000000000E+00 0. -1.
         -2    1    6    6    0  503  0.56265071776E+02  0.13104170110E+01 -0.25974702123E+03  0.26577432256E+03  0.00000000000E+00 0.  1.
<mgrwt>
<rscale>  0 0.13881761E+04</rscale>
<asrwt>0</asrwt>
<pdfrwt beam="1">  1        2 0.41385871E+00 0.13881761E+04</pdfrwt>
<pdfrwt beam="2">  1       -2 0.27551822E-01 0.13881761E+04</pdfrwt>
<totfact> 0.31669702E+01</totfact>
</mgrwt>
</event>
<event>
12    2  0.3518828E-008  0.1478194E+04  0.7818608E-02  0.8899085E-01
          2   -1    0    0  501    0  0.00000000000E+00  0.00000000000E+00  0.56873987646E+03  0.56873987646E+03  0.00000000000E+00 0. -1.
         -2   -1    0    0    0  501 -0.00000000000E+00 -0.00000000000E+00 -0.96048171197E+03  0.96048171197E+03  0.00000000000E+00 0.  1.
         23    2    1    2    0    0  0.42624013201E+03  0.12702551834E+02 -0.22597670840E+03  0.49104875037E+03  0.90671922540E+02 0.  0.
        254    2    1    2    0    0 -0.42624013201E+03 -0.12702551834E+02 -0.16576512711E+03  0.10381728381E+04  0.93192422404E+03 0.  0.
         23    2    4    4    0    0 -0.77916292184E+00 -0.79986270227E+02  0.34388396953E+03  0.36464535420E+03  0.91168192478E+02 0.  0.
         23    2    4    4    0    0 -0.42546096909E+03  0.67283718393E+02 -0.50964909665E+03  0.67352748385E+03  0.91394391552E+02 0.  0.
          2    1    3    3  502    0  0.88703129088E+02  0.39969879318E+02 -0.47909209173E+02  0.10844873760E+03  0.00000000000E+00 0. -1.
         -2    1    3    3    0  502  0.33753700293E+03 -0.27267327484E+02 -0.17806749922E+03  0.38260001277E+03  0.00000000000E+00 0.  1.
         11    1    5    5    0    0  0.39877084262E+02 -0.67123351170E+02  0.20509291567E+03  0.21945120227E+03  0.00000000000E+00 0. -1.
        -11    1    5    5    0    0 -0.40656247184E+02 -0.12862919057E+02  0.13879105387E+03  0.14519415193E+03  0.00000000000E+00 0.  1.
          3    1    6    6  503    0 -0.26921847504E+03  0.73969364024E+01 -0.35568187948E+03  0.44614224342E+03  0.00000000000E+00 0. -1.
         -3    1    6    6    0  503 -0.15624249405E+03  0.59886781991E+02 -0.15396721717E+03  0.22738524043E+03  0.00000000000E+00 0.  1.
<mgrwt>
<rscale>  0 0.14781938E+04</rscale>
<asrwt>0</asrwt>
<pdfrwt beam="1">  1        2 0.87498443E-01 0.14781938E+04</pdfrwt>
<pdfrwt beam="2">  1       -2 0.14776642E+00 0.14781938E+04</pdfrwt>
<totfact> 0.15947545E+01</totfact>
</mgrwt>
</event>
<event>
12    2  0.3518828E-008  0.1993878E+04  0.7818608E-02  0.8609488E-01
          1   -1    0    0  501    0  0.00000000000E+00  0.00000000000E+00  0.62134149541E+03  0.62134149541E+03  0.00000000000E+00 0. -1.
         -1   -1    0    0    0  501 -0.00000000000E+00 -0.00000000000E+00 -0.15995839217E+04  0.15995839217E+04  0.00000000000E+00 0.  1.
         23    2    1    2    0    0 -0.65058274919E+03  0.12383765894E+03 -0.80108915579E+03  0.10431582451E+04  0.88552862902E+02 0.  0.
        254    2    1    2    0    0  0.65058274919E+03 -0.12383765894E+03 -0.17715327054E+03  0.11777671720E+04  0.95768395149E+03 0.  0.
         23    2    4    4    0    0  0.69006423973E+03  0.19808581806E+03 -0.34376409513E+03  0.80112138898E+03  0.90526683910E+02 0.  0.
         23    2    4    4    0    0 -0.39481490541E+02 -0.32192347700E+03  0.16661082459E+03  0.37664578306E+03  0.94389437333E+02 0.  0.
          2    1    3    3  502    0 -0.20749071304E+02  0.21329704059E+02 -0.42242937438E+02  0.51671520189E+02  0.00000000000E+00 0. -1.
         -2    1    3    3    0  502 -0.62983367788E+03  0.10250795488E+03 -0.75884621836E+03  0.99148672494E+03  0.00000000000E+00 0.  1.
         11    1    5    5    0    0  0.42710625065E+03  0.14792026313E+03 -0.17515142809E+03  0.48474547585E+03  0.00000000000E+00 0. -1.
        -11    1    5    5    0    0  0.26295798908E+03  0.50165554928E+02 -0.16861266704E+03  0.31637591313E+03  0.00000000000E+00 0.  1.
          4    1    6    6  503    0 -0.15556731819E+02 -0.27822341670E+03  0.10588238617E+03  0.29809622809E+03  0.00000000000E+00 0. -1.
         -4    1    6    6    0  503 -0.23924758722E+02 -0.43700060306E+02  0.60728438428E+02  0.78549554961E+02  0.00000000000E+00 0.  1.
<mgrwt>
<rscale>  0 0.19938785E+04</rscale>
<asrwt>0</asrwt>
<pdfrwt beam="1">  1        1 0.95591000E-01 0.19938785E+04</pdfrwt>
<pdfrwt beam="2">  1       -1 0.24608983E+00 0.19938785E+04</pdfrwt>
<totfact> 0.22339676E+00</totfact>
</mgrwt>
</event>
<event>
12    2  0.3518828E-008  0.1393530E+04  0.7818608E-02  0.8958515E-01
          1   -1    0    0  501    0  0.00000000000E+00  0.00000000000E+00  0.27310046143E+04  0.27310046143E+04  0.00000000000E+00 0. -1.
         -1   -1    0    0    0  501 -0.00000000000E+00 -0.00000000000E+00 -0.17776657086E+03  0.17776657086E+03  0.00000000000E+00 0.  1.
         23    2    1    2    0    0  0.78980703907E+02  0.24148169148E+03  0.10292635556E+03  0.28935079418E+03  0.92621209842E+02 0.  0.
        254    2    1    2    0    0 -0.78980703907E+02 -0.24148169148E+03  0.24503116879E+04  0.26194203909E+04  0.89038444393E+03 0.  0.
         23    2    4    4    0    0 -0.10494310416E+03  0.23460507535E+03  0.26187700740E+03  0.37780062457E+03  0.90006379952E+02 0.  0.
         23    2    4    4    0    0  0.25962400250E+02 -0.47608676683E+03  0.21884346805E+04  0.22416197664E+04  0.90995442900E+02 0.  0.
          1    1    3    3  502    0  0.40167980711E+02  0.50761606302E+02  0.63680055630E+02  0.90803947237E+02  0.00000000000E+00 0. -1.
         -1    1    3    3    0  502  0.38812723196E+02  0.19072008518E+03  0.39246299933E+02  0.19854684694E+03  0.00000000000E+00 0.  1.
         11    1    5    5    0    0  0.15740980654E+02  0.17513555938E+02  0.17334883483E+02  0.29240405245E+02  0.00000000000E+00 0.  1.
        -11    1    5    5    0    0 -0.12068408481E+03  0.21709151941E+03  0.24454212391E+03  0.34856021932E+03  0.00000000000E+00 0. -1.
          1    1    6    6  503    0  0.56556243822E+02 -0.33598627897E+03  0.14633786205E+04  0.15025186772E+04  0.00000000000E+00 0. -1.
         -1    1    6    6    0  503 -0.30593843572E+02 -0.14010048786E+03  0.72505605991E+03  0.73910108914E+03  0.00000000000E+00 0.  1.
<mgrwt>
<rscale>  0 0.13935298E+04</rscale>
<asrwt>0</asrwt>
<pdfrwt beam="1">  1        1 0.42015453E+00 0.13935298E+04</pdfrwt>
<pdfrwt beam="2">  1       -1 0.27348705E-01 0.13935298E+04</pdfrwt>
<totfact> 0.10977288E+01</totfact>
</mgrwt>
</event>
<event>
12    2  0.3518828E-008  0.2663993E+04  0.7818608E-02  0.8346783E-01
         -2   -1    0    0    0  501 -0.00000000000E+00  0.00000000000E+00  0.12376826303E+04  0.12376826303E+04  0.00000000000E+00 0.  1.
          2   -1    0    0  501    0  0.00000000000E+00 -0.00000000000E+00 -0.14334975805E+04  0.14334975805E+04  0.00000000000E+00 0. -1.
         23    2    1    2    0    0 -0.11150238070E+04  0.37170209630E+03 -0.14914504744E+03  0.11882691987E+04  0.91098324569E+02 0.  0.
        254    2    1    2    0    0  0.11150238070E+04 -0.37170209630E+03 -0.46669902764E+02  0.14829110121E+04  0.90299858870E+03 0.  0.
         23    2    4    4    0    0  0.66741896183E+03 -0.63372814540E+03 -0.17386517481E+03  0.94109019190E+03  0.91445160632E+02 0.  0.
         23    2    4    4    0    0  0.44760484521E+03  0.26202604910E+03  0.12719527205E+03  0.54182082015E+03  0.91560996379E+02 0.  0.
          2    1    3    3  502    0 -0.91867000091E+03  0.31317880098E+03 -0.15714016402E+03  0.98322355703E+03  0.00000000000E+00 0. -1.
         -2    1    3    3    0  502 -0.19635380614E+03  0.58523295313E+02  0.79951165794E+01  0.20504564167E+03  0.00000000000E+00 0.  1.
         11    1    5    5    0    0  0.19090031326E+03 -0.19489385933E+03 -0.10530180006E+02  0.27301544040E+03  0.00000000000E+00 0. -1.
        -11    1    5    5    0    0  0.47651864858E+03 -0.43883428607E+03 -0.16333499480E+03  0.66807475151E+03  0.00000000000E+00 0.  1.
          4    1    6    6  503    0  0.29926897334E+02 -0.54008364132E+01  0.11785181998E+02  0.32614087949E+02  0.00000000000E+00 0. -1.
         -4    1    6    6    0  503  0.41767794788E+03  0.26742688551E+03  0.11541009005E+03  0.50920673221E+03  0.00000000000E+00 0.  1.
<mgrwt>
<rscale>  0 0.26639933E+04</rscale>
<asrwt>0</asrwt>
<pdfrwt beam="1">  1        2 0.22053809E+00 0.26639933E+04</pdfrwt>
<pdfrwt beam="2">  1       -2 0.19041271E+00 0.26639933E+04</pdfrwt>
<totfact> 0.18766545E+00</totfact>
</mgrwt>
</event>
<event>
12    2  0.3518828E-008  0.1886632E+04  0.7818608E-02  0.8661539E-01
         -2   -1    0    0    0  501 -0.00000000000E+00  0.00000000000E+00  0.43985089260E+03  0.43985089260E+03  0.00000000000E+00 0.  1.
          2   -1    0    0  501    0  0.00000000000E+00 -0.00000000000E+00 -0.20230608268E+04  0.20230608268E+04  0.00000000000E+00 0. -1.
         23    2    1    2    0    0 -0.26342246945E+03  0.51873202011E+03 -0.43771568042E+02  0.59050803224E+03  0.91156348522E+02 0.  0.
        254    2    1    2    0    0  0.26342246945E+03 -0.51873202011E+03 -0.15394383661E+04  0.18724036871E+04  0.89305698496E+03 0.  0.
         23    2    4    4    0    0  0.21317578064E+03  0.21958736553E+03 -0.41999231293E+03  0.52741682213E+03  0.90069066793E+02 0.  0.
         23    2    4    4    0    0  0.50246688814E+02 -0.73831938564E+03 -0.11194460532E+04  0.13449868650E+04  0.90498376013E+02 0.  0.
          1    1    3    3  502    0 -0.46142321608E+02  0.59918803745E+02  0.21610264812E+02  0.78653546843E+02  0.00000000000E+00 0. -1.
         -1    1    3    3    0  502 -0.21728014784E+03  0.45881321636E+03 -0.65381832854E+02  0.51185448540E+03  0.00000000000E+00 0.  1.
         11    1    5    5    0    0  0.10808823402E+03  0.15810127796E+03 -0.20645290918E+03  0.28160590217E+03  0.00000000000E+00 0. -1.
        -11    1    5    5    0    0  0.10508754661E+03  0.61486087572E+02 -0.21353940375E+03  0.24581091996E+03  0.00000000000E+00 0.  1.
          2    1    6    6  503    0 -0.27385625699E+01 -0.47257097834E+02 -0.38944947765E+02  0.61297976941E+02  0.00000000000E+00 0.  1.
         -2    1    6    6    0  503  0.52985251384E+02 -0.69106228781E+03 -0.10805011054E+04  0.12836888881E+04  0.00000000000E+00 0. -1.
<mgrwt>
<rscale>  0 0.18866320E+04</rscale>
<asrwt>0</asrwt>
<pdfrwt beam="1">  1        2 0.31124013E+00 0.18866320E+04</pdfrwt>
<pdfrwt beam="2">  1       -2 0.67669368E-01 0.18866320E+04</pdfrwt>
<totfact> 0.12170195E+01</totfact>
</mgrwt>
</event>
<event>
12    2  0.3518828E-008  0.2126675E+04  0.7818608E-02  0.8549583E-01
          2   -1    0    0  501    0  0.00000000000E+00  0.00000000000E+00  0.53389415983E+03  0.53389415983E+03  0.00000000000E+00 0. -1.
         -2   -1    0    0    0  501 -0.00000000000E+00 -0.00000000000E+00 -0.21178106731E+04  0.21178106731E+04  0.00000000000E+00 0.  1.
         23    2    1    2    0    0 -0.34574555906E+03 -0.63412166717E+03 -0.45108086990E+02  0.73157695905E+03  0.10733045751E+03 0.  0.
        254    2    1    2    0    0  0.34574555906E+03  0.63412166717E+03 -0.15388084263E+04  0.19201278739E+04  0.89292183243E+03 0.  0.
         23    2    4    4    0    0  0.63801366606E+03  0.46623543752E+03 -0.10005431526E+04  0.12782591906E+04  0.91777105339E+02 0.  0.
         23    2    4    4    0    0 -0.29226810701E+03  0.16788622966E+03 -0.53826527370E+03  0.64186868321E+03  0.93056268613E+02 0.  0.
          3    1    3    3  502    0 -0.26421941511E+03 -0.53264929263E+03 -0.24084083209E+01  0.59458638455E+03  0.00000000000E+00 0. -1.
         -3    1    3    3    0  502 -0.81526143950E+02 -0.10147237454E+03 -0.42699678669E+02  0.13699057449E+03  0.00000000000E+00 0.  1.
         11    1    5    5    0    0  0.36430218590E+03  0.25652042303E+03 -0.63526137913E+03  0.77593545472E+03  0.00000000000E+00 0.  1.
        -11    1    5    5    0    0  0.27371148016E+03  0.20971501448E+03 -0.36528177343E+03  0.50232373592E+03  0.00000000000E+00 0. -1.
          1    1    6    6  503    0 -0.27236329884E+03  0.17635584214E+03 -0.52268712872E+03  0.61521133292E+03  0.00000000000E+00 0. -1.
         -1    1    6    6    0  503 -0.19904808160E+02 -0.84696124870E+01 -0.15578144981E+02  0.26657350292E+02  0.00000000000E+00 0.  1.
<mgrwt>
<rscale>  0 0.21266751E+04</rscale>
<asrwt>0</asrwt>
<pdfrwt beam="1">  1        2 0.82137562E-01 0.21266751E+04</pdfrwt>
<pdfrwt beam="2">  1       -2 0.32581703E+00 0.21266751E+04</pdfrwt>
<totfact> 0.11570589E+00</totfact>
</mgrwt>
</event>
<event>
12    2  0.3518828E-008  0.1765528E+04  0.7818608E-02  0.8724849E-01
         -2   -1    0    0    0  501 -0.00000000000E+00  0.00000000000E+00  0.60730495874E+03  0.60730495874E+03  0.00000000000E+00 0.  1.
          2   -1    0    0  501    0  0.00000000000E+00 -0.00000000000E+00 -0.12831646672E+04  0.12831646672E+04  0.00000000000E+00 0. -1.
         23    2    1    2    0    0  0.33331003105E+03 -0.10990111584E+03 -0.83541169297E+03  0.91081805279E+03  0.92211693762E+02 0.  0.
        254    2    1    2    0    0 -0.33331003105E+03  0.10990111584E+03  0.15955198449E+03  0.97965157317E+03  0.90060342938E+03 0.  0.
         23    2    4    4    0    0 -0.32485626721E+03 -0.41846195270E+01 -0.32814954715E+03  0.47064745594E+03  0.90982399988E+02 0.  0.
         23    2    4    4    0    0 -0.84537638409E+01  0.11408573537E+03  0.48770153164E+03  0.50900411723E+03  0.90251793625E+02 0.  0.
          1    1    3    3  502    0  0.27705055652E+03 -0.51918086693E+02 -0.66190392934E+03  0.71942290085E+03  0.00000000000E+00 0. -1.
         -1    1    3    3    0  502  0.56259474529E+02 -0.57983029151E+02 -0.17350776363E+03  0.19139515194E+03  0.00000000000E+00 0.  1.
         11    1    5    5    0    0 -0.11018362747E+03  0.34614583893E+02 -0.14798407774E+03  0.18771757628E+03  0.00000000000E+00 0. -1.
        -11    1    5    5    0    0 -0.21467263974E+03 -0.38799203420E+02 -0.18016546941E+03  0.28292987966E+03  0.00000000000E+00 0.  1.
          1    1    6    6  503    0 -0.31868266856E+02  0.11962524586E+02  0.19874799479E+03  0.20164189510E+03  0.00000000000E+00 0. -1.
         -1    1    6    6    0  503  0.23414503015E+02  0.10212321078E+03  0.28895353685E+03  0.30736222213E+03  0.00000000000E+00 0.  1.
<mgrwt>
<rscale>  0 0.17655280E+04</rscale>
<asrwt>0</asrwt>
<pdfrwt beam="1">  1        2 0.19740995E+00 0.17655280E+04</pdfrwt>
<pdfrwt beam="2">  1       -2 0.93431533E-01 0.17655280E+04</pdfrwt>
<totfact> 0.15513563E+01</totfact>
</mgrwt>
</event>
<event>
12    2  0.3518828E-008  0.1218678E+04  0.7818608E-02  0.9096663E-01
         -1   -1    0    0    0  501 -0.00000000000E+00  0.00000000000E+00  0.21971441454E+03  0.21971441454E+03  0.00000000000E+00 0.  1.
          1   -1    0    0  501    0  0.00000000000E+00 -0.00000000000E+00 -0.16898949294E+04  0.16898949294E+04  0.00000000000E+00 0. -1.
         23    2    1    2    0    0  0.22690469799E+03  0.10732991231E+02 -0.12317621805E+03  0.27434436779E+03  0.92149402450E+02 0.  0.
        254    2    1    2    0    0 -0.22690469799E+03 -0.10732991231E+02 -0.13470042968E+04  0.16352649762E+04  0.89892715366E+03 0.  0.
         23    2    4    4    0    0 -0.37026228960E+03 -0.35603074437E+03 -0.60192861372E+03  0.79628104587E+03  0.88844774497E+02 0.  0.
         23    2    4    4    0    0  0.14335759161E+03  0.34529775314E+03 -0.74507568310E+03  0.83898393031E+03  0.94732910743E+02 0.  0.
          1    1    3    3  502    0  0.10262504900E+03 -0.25126433491E+02 -0.17035483159E+02  0.10702077382E+03  0.00000000000E+00 0. -1.
         -1    1    3    3    0  502  0.12427964899E+03  0.35859424722E+02 -0.10614073490E+03  0.16732359397E+03  0.00000000000E+00 0.  1.
         11    1    5    5    0    0 -0.13562967969E+03 -0.85199439344E+02 -0.14912017044E+03  0.21884053489E+03  0.00000000000E+00 0. -1.
        -11    1    5    5    0    0 -0.23463260991E+03 -0.27083130502E+03 -0.45280844328E+03  0.57744051098E+03  0.00000000000E+00 0.  1.
          1    1    6    6  503    0  0.94388989854E+02  0.10915230240E+03 -0.26542197754E+03  0.30211311240E+03  0.00000000000E+00 0. -1.
         -1    1    6    6    0  503  0.48968601754E+02  0.23614545074E+03 -0.47965370556E+03  0.53687081791E+03  0.00000000000E+00 0.  1.
<mgrwt>
<rscale>  0 0.12186784E+04</rscale>
<asrwt>0</asrwt>
<pdfrwt beam="1">  1        1 0.25998384E+00 0.12186784E+04</pdfrwt>
<pdfrwt beam="2">  1       -1 0.33802216E-01 0.12186784E+04</pdfrwt>
<totfact> 0.39540155E+01</totfact>
</mgrwt>
</event>
<event>
12    2  0.3518828E-008  0.1824249E+04  0.7818608E-02  0.8693509E-01
         -3   -1    0    0    0  501 -0.00000000000E+00  0.00000000000E+00  0.94255018959E+03  0.94255018959E+03  0.00000000000E+00 0.  1.
          3   -1    0    0  501    0  0.00000000000E+00 -0.00000000000E+00 -0.88268083703E+03  0.88268083703E+03  0.00000000000E+00 0. -1.
         23    2    1    2    0    0 -0.44430319089E+03  0.52175829977E+03 -0.44232223752E+02  0.69278407736E+03  0.91412468568E+02 0.  0.
        254    2    1    2    0    0  0.44430319089E+03 -0.52175829977E+03  0.10410157631E+03  0.11324469493E+04  0.89552325815E+03 0.  0.
         23    2    4    4    0    0  0.35143438233E+03  0.10964202258E+03 -0.19107730602E+03  0.42467435868E+03  0.91160714380E+02 0.  0.
         23    2    4    4    0    0  0.92868808567E+02 -0.63140032235E+03  0.29517888233E+03  0.70777259059E+03  0.80749518550E+02 0.  0.
          1    1    3    3  502    0 -0.29700612540E+02  0.25320839825E+02 -0.23701217655E+02  0.45662008640E+02  0.00000000000E+00 0. -1.
         -1    1    3    3    0  502 -0.41460257835E+03  0.49643745995E+03 -0.20531006097E+02  0.64712206872E+03  0.00000000000E+00 0.  1.
         11    1    5    5    0    0  0.41245736945E+02  0.21474566555E+02  0.57821910166E+01  0.46859380681E+02  0.00000000000E+00 0. -1.
        -11    1    5    5    0    0  0.31018864538E+03  0.88167456023E+02 -0.19685949703E+03  0.37781497799E+03  0.00000000000E+00 0.  1.
          1    1    6    6  503    0  0.25922120225E+02 -0.37539359506E+02  0.22964349958E+02  0.51073684007E+02  0.00000000000E+00 0. -1.
         -1    1    6    6    0  503  0.66946688341E+02 -0.59386096285E+03  0.27221453237E+03  0.65669890658E+03  0.00000000000E+00 0.  1.
<mgrwt>
<rscale>  0 0.18242489E+04</rscale>
<asrwt>0</asrwt>
<pdfrwt beam="1">  1        3 0.13579705E+00 0.18242489E+04</pdfrwt>
<pdfrwt beam="2">  1       -3 0.14500772E+00 0.18242489E+04</pdfrwt>
<totfact> 0.36188652E-01</totfact>
</mgrwt>
</event>
<event>
12    2  0.3518828E-008  0.2104823E+04  0.7818608E-02  0.8559122E-01
          2   -1    0    0  501    0  0.00000000000E+00  0.00000000000E+00  0.12285566576E+04  0.12285566576E+04  0.00000000000E+00 0.  1.
         -2   -1    0    0    0  501 -0.00000000000E+00 -0.00000000000E+00 -0.90152156358E+03  0.90152156358E+03  0.00000000000E+00 0. -1.
         23    2    1    2    0    0  0.65380903253E+03  0.39117172373E+03 -0.26622062558E+03  0.81193607143E+03  0.88798615708E+02 0.  0.
        254    2    1    2    0    0 -0.65380903253E+03 -0.39117172373E+03  0.59325571958E+03  0.13181421497E+04  0.89725403849E+03 0.  0.
         23    2    4    4    0    0  0.21542036762E+03 -0.11083539259E+03  0.13745715936E+03  0.29341714526E+03  0.92242785252E+02 0.  0.
         23    2    4    4    0    0 -0.86922940015E+03 -0.28033633114E+03  0.45579856022E+03  0.10247250045E+04  0.90337138716E+02 0.  0.
          2    1    3    3  502    0  0.31671598495E+03  0.21433960217E+03 -0.17463744183E+03  0.42041493345E+03  0.00000000000E+00 0. -1.
         -2    1    3    3    0  502  0.33709304757E+03  0.17683212156E+03 -0.91583183747E+02  0.39152113798E+03  0.00000000000E+00 0.  1.
         11    1    5    5    0    0  0.29566219077E+02 -0.83929515426E+01 -0.12901716080E+02  0.33332525015E+02  0.00000000000E+00 0. -1.
        -11    1    5    5    0    0  0.18585414855E+03 -0.10244244105E+03  0.15035887544E+03  0.26008462024E+03  0.00000000000E+00 0.  1.
          2    1    6    6  503    0 -0.92705820822E+02 -0.35974280839E+02  0.20302656952E+02  0.10149244295E+03  0.00000000000E+00 0. -1.
         -2    1    6    6    0  503 -0.77652357933E+03 -0.24436205030E+03  0.43549590326E+03  0.92323256151E+03  0.00000000000E+00 0.  1.
<mgrwt>
<rscale>  0 0.21048233E+04</rscale>
<asrwt>0</asrwt>
<pdfrwt beam="1">  1        2 0.18900872E+00 0.21048233E+04</pdfrwt>
<pdfrwt beam="2">  1       -2 0.13869563E+00 0.21048233E+04</pdfrwt>
<totfact> 0.61748277E+00</totfact>
</mgrwt>
</event>
<event>
12    2  0.3518828E-008  0.1392954E+04  0.7818608E-02  0.8958934E-01
         -2   -1    0    0    0  501 -0.00000000000E+00  0.00000000000E+00  0.35861546759E+03  0.35861546759E+03  0.00000000000E+00 0.  1.
          2   -1    0    0  501    0  0.00000000000E+00 -0.00000000000E+00 -0.13526475937E+04  0.13526475937E+04  0.00000000000E+00 0. -1.
         23    2    1    2    0    0 -0.17622467817E+03 -0.17032900654E+03  0.89803496490E+02  0.27649612990E+03  0.91204902299E+02 0.  0.
        254    2    1    2    0    0  0.17622467817E+03  0.17032900654E+03 -0.10838356226E+04  0.14347669314E+04  0.90762843880E+03 0.  0.
         23    2    4    4    0    0 -0.95683783581E+02  0.31842900178E+03 -0.47449245597E+02  0.34935972920E+03  0.96168466063E+02 0.  0.
         23    2    4    4    0    0  0.27190846175E+03 -0.14809999525E+03 -0.10363863770E+04  0.10854072022E+04  0.90245509345E+02 0.  0.
          4    1    3    3  502    0 -0.17718211578E+03 -0.12898210602E+03  0.84131931477E+02  0.23475107608E+03  0.00000000000E+00 0.  1.
         -4    1    3    3    0  502  0.95743760624E+00 -0.41346900515E+02  0.56715650131E+01  0.41745053823E+02  0.00000000000E+00 0. -1.
         11    1    5    5    0    0  0.30287493664E+01  0.10982097811E+03 -0.44564519286E+02  0.11855723063E+03  0.00000000000E+00 0.  1.
        -11    1    5    5    0    0 -0.98712532947E+02  0.20860802367E+03 -0.28847263116E+01  0.23080249857E+03  0.00000000000E+00 0. -1.
          2    1    6    6  503    0  0.18541513018E+03 -0.60434287280E+02 -0.54558798354E+03  0.57939392589E+03  0.00000000000E+00 0. -1.
         -2    1    6    6    0  503  0.86493331573E+02 -0.87665707966E+02 -0.49079839344E+03  0.50601327627E+03  0.00000000000E+00 0.  1.
<mgrwt>
<rscale>  0 0.13929542E+04</rscale>
<asrwt>0</asrwt>
<pdfrwt beam="1">  1        2 0.20809963E+00 0.13929542E+04</pdfrwt>
<pdfrwt beam="2">  1       -2 0.55171609E-01 0.13929542E+04</pdfrwt>
<totfact> 0.46337852E+01</totfact>
</mgrwt>
</event>
<event>
12    2  0.3518828E-008  0.1220564E+04  0.7818608E-02  0.9095045E-01
          1   -1    0    0  501    0  0.00000000000E+00  0.00000000000E+00  0.16270726558E+04  0.16270726558E+04  0.00000000000E+00 0. -1.
         -1   -1    0    0    0  501 -0.00000000000E+00 -0.00000000000E+00 -0.22890423311E+03  0.22890423311E+03  0.00000000000E+00 0.  1.
         23    2    1    2    0    0  0.11081313040E+03 -0.26639894935E+03  0.43144406883E+03  0.52697158132E+03  0.91143364590E+02 0.  0.
        254    2    1    2    0    0 -0.11081313040E+03  0.26639894935E+03  0.96672435382E+03  0.13290053076E+04  0.86513073067E+03 0.  0.
         23    2    4    4    0    0  0.25894601127E+02  0.54803859638E+03  0.76449921027E+03  0.94537472990E+03  0.90870809030E+02 0.  0.
         23    2    4    4    0    0 -0.13670773153E+03 -0.28163964703E+03  0.20222514355E+03  0.38363057766E+03  0.90925886241E+02 0.  0.
          2    1    3    3  502    0  0.13842220237E+02 -0.79736301224E+02  0.62410486150E+02  0.10219859870E+03  0.00000000000E+00 0. -1.
         -2    1    3    3    0  502  0.96970910162E+02 -0.18666264812E+03  0.36903358268E+03  0.42477298262E+03  0.00000000000E+00 0.  1.
         11    1    5    5    0    0 -0.74160077154E+01  0.48247492037E+03  0.65895905499E+03  0.81673991094E+03  0.00000000000E+00 0. -1.
        -11    1    5    5    0    0  0.33310608843E+02  0.65563676010E+02  0.10554015528E+03  0.12863481896E+03  0.00000000000E+00 0.  1.
          2    1    6    6  503    0 -0.71369216960E+02 -0.23408716015E+03  0.14301301442E+03  0.28344855966E+03  0.00000000000E+00 0. -1.
         -2    1    6    6    0  503 -0.65338514567E+02 -0.47552486880E+02  0.59212129128E+02  0.10018201800E+03  0.00000000000E+00 0.  1.
<mgrwt>
<rscale>  0 0.12205635E+04</rscale>
<asrwt>0</asrwt>
<pdfrwt beam="1">  1        1 0.25031886E+00 0.12205635E+04</pdfrwt>
<pdfrwt beam="2">  1       -1 0.35216037E-01 0.12205635E+04</pdfrwt>
<totfact> 0.40551924E+01</totfact>
</mgrwt>
</event>
<event>
12    2  0.3518828E-008  0.1240003E+04  0.7818608E-02  0.9078545E-01
         -2   -1    0    0    0  501 -0.00000000000E+00  0.00000000000E+00  0.49786032197E+03  0.49786032197E+03  0.00000000000E+00 0. -1.
          2   -1    0    0  501    0  0.00000000000E+00 -0.00000000000E+00 -0.77210808934E+03  0.77210808934E+03  0.00000000000E+00 0.  1.
         23    2    1    2    0    0 -0.17061060186E+03 -0.48807617208E+02  0.17344558683E+03  0.26428776336E+03  0.90964219928E+02 0.  0.
        254    2    1    2    0    0  0.17061060186E+03  0.48807617208E+02 -0.44769335420E+03  0.10056806479E+04  0.88287828453E+03 0.  0.
         23    2    4    4    0    0  0.29855549165E+03 -0.32597867748E+03 -0.85445529161E+02  0.45936694392E+03  0.91211682072E+02 0.  0.
         23    2    4    4    0    0 -0.12794488980E+03  0.37478629469E+03 -0.36224782504E+03  0.54631370402E+03  0.10198291497E+03 0.  0.
          1    1    3    3  502    0 -0.15482086001E+03 -0.71416701113E+02  0.13781732697E+03  0.21923380101E+03  0.00000000000E+00 0. -1.
         -1    1    3    3    0  502 -0.15789741842E+02  0.22609083905E+02  0.35628259858E+02  0.45053962345E+02  0.00000000000E+00 0.  1.
         11    1    5    5    0    0  0.11458494028E+03 -0.18273515462E+03 -0.65203060901E+02  0.22532928000E+03  0.00000000000E+00 0.  1.
        -11    1    5    5    0    0  0.18397055137E+03 -0.14324352286E+03 -0.20242468260E+02  0.23403766392E+03  0.00000000000E+00 0. -1.
          1    1    6    6  503    0 -0.33732086312E+02  0.53121883439E+02 -0.11035582234E+03  0.12703619827E+03  0.00000000000E+00 0. -1.
         -1    1    6    6    0  503 -0.94212803483E+02  0.32166441125E+03 -0.25189200270E+03  0.41927750575E+03  0.00000000000E+00 0.  1.
<mgrwt>
<rscale>  0 0.12400032E+04</rscale>
<asrwt>0</asrwt>
<pdfrwt beam="1">  1        2 0.11878586E+00 0.12400032E+04</pdfrwt>
<pdfrwt beam="2">  1       -2 0.76593896E-01 0.12400032E+04</pdfrwt>
<totfact> 0.54168259E+01</totfact>
</mgrwt>
</event>
<event>
12    2  0.3518828E-008  0.1571823E+04  0.7818608E-02  0.8838048E-01
         -1   -1    0    0    0  501 -0.00000000000E+00  0.00000000000E+00  0.73220919765E+03  0.73220919765E+03  0.00000000000E+00 0.  1.
          1   -1    0    0  501    0  0.00000000000E+00 -0.00000000000E+00 -0.84355213041E+03  0.84355213041E+03  0.00000000000E+00 0. -1.
         23    2    1    2    0    0  0.13960026882E+02  0.44823183083E+03 -0.30829588426E+03  0.55171096771E+03  0.90730276744E+02 0.  0.
        254    2    1    2    0    0 -0.13960026882E+02 -0.44823183083E+03  0.19695295150E+03  0.10240503604E+04  0.89932308928E+03 0.  0.
         23    2    4    4    0    0  0.14511120200E+03 -0.36640776975E+03 -0.28988062885E+03  0.49738292966E+03  0.89705546427E+02 0.  0.
         23    2    4    4    0    0 -0.15907122888E+03 -0.81824061084E+02  0.48683358036E+03  0.52666743069E+03  0.91503086074E+02 0.  0.
          3    1    3    3  502    0  0.51773414040E+01  0.43137463156E+03 -0.26992831814E+03  0.50889308755E+03  0.00000000000E+00 0. -1.
         -3    1    3    3    0  502  0.87826854776E+01  0.16857199266E+02 -0.38367566123E+02  0.42817880161E+02  0.00000000000E+00 0.  1.
         11    1    5    5    0    0 -0.74324178068E+01 -0.69103241633E+02 -0.59689483470E+02  0.91615136716E+02  0.00000000000E+00 0. -1.
        -11    1    5    5    0    0  0.15254361980E+03 -0.29730452811E+03 -0.23019114538E+03  0.40576779295E+03  0.00000000000E+00 0.  1.
          1    1    6    6  503    0 -0.11948395842E+02 -0.48550140333E+02  0.11450666519E+03  0.12494661525E+03  0.00000000000E+00 0. -1.
         -1    1    6    6    0  503 -0.14712283304E+03 -0.33273920751E+02  0.37232691516E+03  0.40172081544E+03  0.00000000000E+00 0.  1.
<mgrwt>
<rscale>  0 0.15718227E+04</rscale>
<asrwt>0</asrwt>
<pdfrwt beam="1">  1        1 0.12977725E+00 0.15718227E+04</pdfrwt>
<pdfrwt beam="2">  1       -1 0.11264757E+00 0.15718227E+04</pdfrwt>
<totfact> 0.14071934E+01</totfact>
</mgrwt>
</event>
<event>
12    2  0.3518828E-008  0.1559700E+04  0.7818608E-02  0.8845696E-01
          2   -1    0    0  501    0  0.00000000000E+00  0.00000000000E+00  0.11769633950E+04  0.11769633950E+04  0.00000000000E+00 0. -1.
         -2   -1    0    0    0  501 -0.00000000000E+00 -0.00000000000E+00 -0.51672435563E+03  0.51672435563E+03  0.00000000000E+00 0.  1.
         23    2    1    2    0    0  0.28555267723E+03 -0.33557747652E+03  0.60982925719E+02  0.45451904276E+03  0.93359888469E+02 0.  0.
        254    2    1    2    0    0 -0.28555267723E+03  0.33557747652E+03  0.59925611362E+03  0.12391687078E+04  0.99109970365E+03 0.  0.
         23    2    4    4    0    0 -0.26303771018E+03 -0.23599410479E+03 -0.50528372470E+02  0.36806806162E+03  0.89660064067E+02 0.  0.
         23    2    4    4    0    0 -0.22514967055E+02  0.57157158131E+03  0.64978448609E+03  0.87110064623E+03  0.96930187232E+02 0.  0.
          3    1    3    3  502    0  0.54926654106E+01 -0.42145051032E+02 -0.74702682157E+01  0.43152979121E+02  0.00000000000E+00 0. -1.
         -3    1    3    3    0  502  0.28006001182E+03 -0.29343242549E+03  0.68453193934E+02  0.41136606364E+03  0.00000000000E+00 0.  1.
         11    1    5    5    0    0 -0.22925631587E+03 -0.23788151664E+03 -0.50656860289E+02  0.33423373831E+03  0.00000000000E+00 0.  1.
        -11    1    5    5    0    0 -0.33781394306E+02  0.18874118573E+01  0.12848781893E+00  0.33834323311E+02  0.00000000000E+00 0. -1.
          2    1    6    6  503    0  0.36227287240E+02  0.15355824274E+03  0.18886543281E+03  0.24609490438E+03  0.00000000000E+00 0. -1.
         -2    1    6    6    0  503 -0.58742254295E+02  0.41801333857E+03  0.46091905328E+03  0.62500574184E+03  0.00000000000E+00 0.  1.
<mgrwt>
<rscale>  0 0.15596995E+04</rscale>
<asrwt>0</asrwt>
<pdfrwt beam="1">  1        2 0.18107129E+00 0.15596995E+04</pdfrwt>
<pdfrwt beam="2">  1       -2 0.79496055E-01 0.15596995E+04</pdfrwt>
<totfact> 0.26374727E+01</totfact>
</mgrwt>
</event>
<event>
12    2  0.3518828E-008  0.1559755E+04  0.7818608E-02  0.8845661E-01
          1   -1    0    0  501    0  0.00000000000E+00  0.00000000000E+00  0.93485647623E+03  0.93485647623E+03  0.00000000000E+00 0. -1.
         -1   -1    0    0    0  501 -0.00000000000E+00 -0.00000000000E+00 -0.65059035901E+03  0.65059035901E+03  0.00000000000E+00 0.  1.
         23    2    1    2    0    0  0.22446137011E+03 -0.24515767255E+03  0.48465777182E+03  0.59433632236E+03  0.88641509480E+02 0.  0.
        254    2    1    2    0    0 -0.22446137011E+03  0.24515767255E+03 -0.20039165461E+03  0.99111051289E+03  0.91195287293E+03 0.  0.
         23    2    4    4    0    0  0.33378442726E+02  0.51996830937E+03  0.47393059525E+02  0.53102743161E+03  0.90900318215E+02 0.  0.
         23    2    4    4    0    0 -0.25783981283E+03 -0.27481063682E+03 -0.24778471413E+03  0.46008308127E+03  0.90977590247E+02 0.  0.
          1    1    3    3  502    0  0.11560716582E+03 -0.18846841102E+03  0.30242557504E+03  0.37462859899E+03  0.00000000000E+00 0. -1.
         -1    1    3    3    0  502  0.10885420429E+03 -0.56689261533E+02  0.18223219678E+03  0.21970772337E+03  0.00000000000E+00 0.  1.
         11    1    5    5    0    0  0.18924304040E+02  0.18865828604E+02 -0.42729455925E+01  0.27061168422E+02  0.00000000000E+00 0. -1.
        -11    1    5    5    0    0  0.14454138686E+02  0.50110248076E+03  0.51666005118E+02  0.50396626319E+03  0.00000000000E+00 0.  1.
          1    1    6    6  503    0 -0.98083462053E+01 -0.54124587049E+02 -0.44873833668E+02  0.70988277388E+02  0.00000000000E+00 0. -1.
         -1    1    6    6    0  503 -0.24803146663E+03 -0.22068604977E+03 -0.20291088046E+03  0.38909480388E+03  0.00000000000E+00 0.  1.
<mgrwt>
<rscale>  0 0.15597546E+04</rscale>
<asrwt>0</asrwt>
<pdfrwt beam="1">  1        1 0.14382407E+00 0.15597546E+04</pdfrwt>
<pdfrwt beam="2">  1       -1 0.10009082E+00 0.15597546E+04</pdfrwt>
<totfact> 0.15612479E+01</totfact>
</mgrwt>
</event>
<event>
12    2  0.3518828E-008  0.1534676E+04  0.7818608E-02  0.8861716E-01
          2   -1    0    0  501    0  0.00000000000E+00  0.00000000000E+00  0.55635632021E+03  0.55635632021E+03  0.00000000000E+00 0.  1.
         -2   -1    0    0    0  501 -0.00000000000E+00 -0.00000000000E+00 -0.10583283986E+04  0.10583283986E+04  0.00000000000E+00 0. -1.
         23    2    1    2    0    0  0.36556153374E+02 -0.11609645515E+03 -0.67579954272E+03  0.69252418496E+03  0.89833098398E+02 0.  0.
        254    2    1    2    0    0 -0.36556153374E+02  0.11609645515E+03  0.17382746437E+03  0.92216053381E+03  0.89741257151E+03 0.  0.
         23    2    4    4    0    0 -0.42083913665E+03  0.22008833915E+03  0.17324976585E+03  0.51367367186E+03  0.91108198473E+02 0.  0.
         23    2    4    4    0    0  0.38428298327E+03 -0.10399188400E+03  0.57769852359E+00  0.40848686196E+03  0.91506608977E+02 0.  0.
          3    1    3    3  502    0  0.43845725113E+02 -0.83851078684E+02 -0.28433525396E+03  0.29966646067E+03  0.00000000000E+00 0. -1.
         -3    1    3    3    0  502 -0.72895717391E+01 -0.32245376468E+02 -0.39146428876E+03  0.39285772429E+03  0.00000000000E+00 0.  1.
         11    1    5    5    0    0 -0.33528859964E+03  0.17633426337E+03  0.97121562704E+02  0.39108159690E+03  0.00000000000E+00 0. -1.
        -11    1    5    5    0    0 -0.85550537002E+02  0.43754075783E+02  0.76128203147E+02  0.12259207496E+03  0.00000000000E+00 0.  1.
          1    1    6    6  503    0  0.35616633597E+03 -0.81515112520E+02 -0.21929794812E+02  0.36603290610E+03  0.00000000000E+00 0. -1.
         -1    1    6    6    0  503  0.28116647299E+02 -0.22476771480E+02  0.22507493336E+02  0.42453955855E+02  0.00000000000E+00 0.  1.
<mgrwt>
<rscale>  0 0.15346761E+04</rscale>
<asrwt>0</asrwt>
<pdfrwt beam="1">  1        2 0.85593280E-01 0.15346761E+04</pdfrwt>
<pdfrwt beam="2">  1       -2 0.16281975E+00 0.15346761E+04</pdfrwt>
<totfact> 0.12555607E+01</totfact>
</mgrwt>
</event>
<event>
12    2  0.3518828E-008  0.1689616E+04  0.7818608E-02  0.8767309E-01
          2   -1    0    0  501    0  0.00000000000E+00  0.00000000000E+00  0.17762864673E+04  0.17762864673E+04  0.00000000000E+00 0. -1.
         -2   -1    0    0    0  501 -0.00000000000E+00 -0.00000000000E+00 -0.40179383101E+03  0.40179383101E+03  0.00000000000E+00 0.  1.
         23    2    1    2    0    0 -0.48364205440E+03  0.37364144386E+02  0.32540853761E+02  0.49471503472E+03  0.91533285456E+02 0.  0.
        254    2    1    2    0    0  0.48364205440E+03 -0.37364144386E+02  0.13419517825E+04  0.16833652636E+04  0.89307239792E+03 0.  0.
         23    2    4    4    0    0  0.34567772746E+02 -0.15579402079E+03 -0.67107569918E+02  0.19696190464E+03  0.93935393287E+02 0.  0.
         23    2    4    4    0    0  0.44907428165E+03  0.11842987641E+03  0.14090593524E+04  0.14864033589E+04  0.90847898596E+02 0.  0.
          2    1    3    3  502    0 -0.42348922694E+03  0.24033992650E+02 -0.18089274109E+01  0.42417452818E+03  0.00000000000E+00 0.  1.
         -2    1    3    3    0  502 -0.60152827455E+02  0.13330151736E+02  0.34349781172E+02  0.70540506539E+02  0.00000000000E+00 0. -1.
         11    1    5    5    0    0 -0.17713219825E+02 -0.26086895382E+01  0.66347155850E+01  0.19094053226E+02  0.00000000000E+00 0.  1.
        -11    1    5    5    0    0  0.52280992571E+02 -0.15318533126E+03 -0.73742285503E+02  0.17786785142E+03  0.00000000000E+00 0. -1.
          3    1    6    6  503    0  0.43690993696E+03  0.12773671271E+03  0.13849656100E+04  0.14578534568E+04  0.00000000000E+00 0. -1.
         -3    1    6    6    0  503  0.12164344691E+02 -0.93068363063E+01  0.24093742459E+02  0.28549902092E+02  0.00000000000E+00 0.  1.
<mgrwt>
<rscale>  0 0.16896165E+04</rscale>
<asrwt>0</asrwt>
<pdfrwt beam="1">  1        2 0.27327484E+00 0.16896165E+04</pdfrwt>
<pdfrwt beam="2">  1       -2 0.61814436E-01 0.16896165E+04</pdfrwt>
<totfact> 0.20590858E+01</totfact>
</mgrwt>
</event>
<event>
12    2  0.3518828E-008  0.1320177E+04  0.7818608E-02  0.9013716E-01
          2   -1    0    0  501    0  0.00000000000E+00  0.00000000000E+00  0.19000891308E+04  0.19000891308E+04  0.00000000000E+00 0. -1.
         -2   -1    0    0    0  501 -0.00000000000E+00 -0.00000000000E+00 -0.22931373820E+03  0.22931373820E+03  0.00000000000E+00 0.  1.
         23    2    1    2    0    0 -0.30469267498E+03 -0.22689286937E+02  0.73395549388E+03  0.79993613617E+03  0.88626886555E+02 0.  0.
        254    2    1    2    0    0  0.30469267498E+03  0.22689286937E+02  0.93681989868E+03  0.13294667328E+04  0.89246727732E+03 0.  0.
         23    2    4    4    0    0  0.47897350138E+03  0.11292407527E+03  0.16305485826E+03  0.52626798693E+03  0.90573977879E+02 0.  0.
         23    2    4    4    0    0 -0.17428082640E+03 -0.90234788336E+02  0.77376504043E+03  0.80319874585E+03  0.88880617013E+02 0.  0.
          1    1    3    3  502    0 -0.17082783439E+03 -0.41261163556E+02  0.49690825118E+03  0.52706967539E+03  0.00000000000E+00 0. -1.
         -1    1    3    3    0  502 -0.13386484059E+03  0.18571876619E+02  0.23704724270E+03  0.27286646078E+03  0.00000000000E+00 0.  1.
         11    1    5    5    0    0  0.96175225368E+02  0.58909872178E+02  0.50903653227E+02  0.12373855069E+03  0.00000000000E+00 0. -1.
        -11    1    5    5    0    0  0.38279827601E+03  0.54014203095E+02  0.11215120503E+03  0.40252943624E+03  0.00000000000E+00 0.  1.
          4    1    6    6  503    0 -0.60379058313E+02  0.23079304481E+01  0.33871641104E+03  0.34406360507E+03  0.00000000000E+00 0.  1.
         -4    1    6    6    0  503 -0.11390176808E+03 -0.92542718784E+02  0.43504862939E+03  0.45913514079E+03  0.00000000000E+00 0. -1.
<mgrwt>
<rscale>  0 0.13201766E+04</rscale>
<asrwt>0</asrwt>
<pdfrwt beam="1">  1        2 0.29232139E+00 0.13201766E+04</pdfrwt>
<pdfrwt beam="2">  1       -2 0.35279038E-01 0.13201766E+04</pdfrwt>
<totfact> 0.56095589E+01</totfact>
</mgrwt>
</event>
<event>
12    2  0.3518828E-008  0.1725038E+04  0.7818608E-02  0.8747212E-01
          1   -1    0    0  501    0  0.00000000000E+00  0.00000000000E+00  0.28986053028E+04  0.28986053028E+04  0.00000000000E+00 0. -1.
         -1   -1    0    0    0  501 -0.00000000000E+00 -0.00000000000E+00 -0.25665402013E+03  0.25665402013E+03  0.00000000000E+00 0.  1.
         23    2    1    2    0    0  0.15073397292E+03  0.52428617674E+03  0.45040491198E+03  0.71351340472E+03  0.92951967528E+02 0.  0.
        254    2    1    2    0    0 -0.15073397292E+03 -0.52428617674E+03  0.21915463707E+04  0.24417459182E+04  0.92825153299E+03 0.  0.
         23    2    4    4    0    0  0.35719779130E+03 -0.18439702129E+03  0.12435103814E+04  0.13102522847E+04  0.94076868914E+02 0.  0.
         23    2    4    4    0    0 -0.50793176422E+03 -0.33988915545E+03  0.94803598922E+03  0.11314936335E+04  0.89366048610E+02 0.  0.
          1    1    3    3  502    0 -0.80205377443E+01  0.89640638690E+02  0.86545502389E+02  0.12485950951E+03  0.00000000000E+00 0. -1.
         -1    1    3    3    0  502  0.15875451066E+03  0.43464553805E+03  0.36385940960E+03  0.58865389522E+03  0.00000000000E+00 0.  1.
         11    1    5    5    0    0  0.33050094322E+03 -0.13573221554E+03  0.10689767101E+04  0.11271048374E+04  0.00000000000E+00 0.  1.
        -11    1    5    5    0    0  0.26696848086E+02 -0.48664805754E+02  0.17453367137E+03  0.18314744732E+03  0.00000000000E+00 0. -1.
          4    1    6    6  503    0 -0.14476541843E+03 -0.53760389083E+02  0.26444119579E+03  0.30622924719E+03  0.00000000000E+00 0. -1.
         -4    1    6    6    0  503 -0.36316634579E+03 -0.28612876636E+03  0.68359479343E+03  0.82526438628E+03  0.00000000000E+00 0.  1.
<mgrwt>
<rscale>  0 0.17250376E+04</rscale>
<asrwt>0</asrwt>
<pdfrwt beam="1">  1        1 0.44593925E+00 0.17250376E+04</pdfrwt>
<pdfrwt beam="2">  1       -1 0.39485236E-01 0.17250376E+04</pdfrwt>
<totfact> 0.42075746E+00</totfact>
</mgrwt>
</event>
<event>
12    2  0.3518828E-008  0.1519304E+04  0.7818608E-02  0.8871716E-01
         -1   -1    0    0    0  501 -0.00000000000E+00  0.00000000000E+00  0.32612284716E+03  0.32612284716E+03  0.00000000000E+00 0.  1.
          1   -1    0    0  501    0  0.00000000000E+00 -0.00000000000E+00 -0.17694904645E+04  0.17694904645E+04  0.00000000000E+00 0. -1.
         23    2    1    2    0    0 -0.24310764260E+03 -0.41894275979E+02  0.10962977317E+03  0.28502512725E+03  0.91455889631E+02 0.  0.
        254    2    1    2    0    0  0.24310764260E+03  0.41894275979E+02 -0.15529973906E+04  0.18105881845E+04  0.89753675265E+03 0.  0.
         23    2    4    4    0    0  0.93308327807E+02  0.14529400869E+03  0.45627093586E+02  0.19903753798E+03  0.87848260407E+02 0.  0.
         23    2    4    4    0    0  0.14979931479E+03 -0.10339973271E+03 -0.15986244841E+04  0.16115506465E+04  0.91454389781E+02 0.  0.
          4    1    3    3  502    0 -0.66875153857E+02 -0.49001576146E+02  0.13016374210E+02  0.83921788981E+02  0.00000000000E+00 0. -1.
         -4    1    3    3    0  502 -0.17623248874E+03  0.71073001668E+01  0.96613398962E+02  0.20110333827E+03  0.00000000000E+00 0.  1.
         11    1    5    5    0    0  0.10381204948E+03  0.14898526945E+03  0.47621611272E+02  0.18772684941E+03  0.00000000000E+00 0. -1.
        -11    1    5    5    0    0 -0.10503721677E+02 -0.36912607568E+01 -0.19945176866E+01  0.11310688567E+02  0.00000000000E+00 0.  1.
          2    1    6    6  503    0  0.10116528463E+03 -0.41817208290E+02 -0.12187307290E+04  0.12236370718E+04  0.00000000000E+00 0. -1.
         -2    1    6    6    0  503  0.48634030154E+02 -0.61582524422E+02 -0.37989375515E+03  0.38791357466E+03  0.00000000000E+00 0.  1.
<mgrwt>
<rscale>  0 0.15193041E+04</rscale>
<asrwt>0</asrwt>
<pdfrwt beam="1">  1        1 0.27222930E+00 0.15193041E+04</pdfrwt>
<pdfrwt beam="2">  1       -1 0.50172747E-01 0.15193041E+04</pdfrwt>
<totfact> 0.16460849E+01</totfact>
</mgrwt>
</event>
<event>
12    2  0.3518828E-008  0.1251265E+04  0.7818608E-02  0.9069131E-01
         -1   -1    0    0    0  501 -0.00000000000E+00  0.00000000000E+00  0.24086807785E+03  0.24086807785E+03  0.00000000000E+00 0.  1.
          1   -1    0    0  501    0  0.00000000000E+00 -0.00000000000E+00 -0.16250212391E+04  0.16250212391E+04  0.00000000000E+00 0. -1.
         23    2    1    2    0    0  0.11105546055E+03 -0.20230918122E+03 -0.68940464573E+02  0.25384414748E+03  0.80135781225E+02 0.  0.
        254    2    1    2    0    0 -0.11105546055E+03  0.20230918122E+03 -0.13152126967E+04  0.16120451695E+04  0.90312948727E+03 0.  0.
         23    2    4    4    0    0  0.14769833792E+03 -0.21166761544E+03 -0.86756065247E+02  0.28692076388E+03  0.90437444891E+02 0.  0.
         23    2    4    4    0    0 -0.25875379847E+03  0.41397679666E+03 -0.12284566314E+04  0.13251244056E+04  0.92296687807E+02 0.  0.
          1    1    3    3  502    0  0.75462642952E+02 -0.76318134385E+02 -0.59173041595E+02  0.12255821869E+03  0.00000000000E+00 0. -1.
         -1    1    3    3    0  502  0.35592817595E+02 -0.12599104683E+03 -0.97674229777E+01  0.13128592879E+03  0.00000000000E+00 0.  1.
         11    1    5    5    0    0  0.10403633839E+03 -0.11760877152E+03 -0.89446420696E+01  0.15727488504E+03  0.00000000000E+00 0.  1.
        -11    1    5    5    0    0  0.43661999533E+02 -0.94058843924E+02 -0.77811423177E+02  0.12964587884E+03  0.00000000000E+00 0. -1.
          3    1    6    6  503    0 -0.53046698568E+02  0.13433446128E+03 -0.27849514247E+03  0.31371841530E+03  0.00000000000E+00 0. -1.
         -3    1    6    6    0  503 -0.20570709990E+03  0.27964233538E+03 -0.94996148897E+03  0.10114059903E+04  0.00000000000E+00 0.  1.
<mgrwt>
<rscale>  0 0.12512645E+04</rscale>
<asrwt>0</asrwt>
<pdfrwt beam="1">  1        1 0.25000327E+00 0.12512645E+04</pdfrwt>
<pdfrwt beam="2">  1       -1 0.37056627E-01 0.12512645E+04</pdfrwt>
<totfact> 0.37028026E+01</totfact>
</mgrwt>
</event>
<event>
12    2  0.3518828E-008  0.1333350E+04  0.7818608E-02  0.9003529E-01
         -2   -1    0    0    0  501 -0.00000000000E+00  0.00000000000E+00  0.23804047793E+03  0.23804047793E+03  0.00000000000E+00 0.  1.
          2   -1    0    0  501    0  0.00000000000E+00 -0.00000000000E+00 -0.18671427751E+04  0.18671427751E+04  0.00000000000E+00 0. -1.
         23    2    1    2    0    0  0.16258381349E+03 -0.49701445319E+02 -0.93320010441E+03  0.95296635547E+03  0.91535292247E+02 0.  0.
        254    2    1    2    0    0 -0.16258381349E+03  0.49701445319E+02 -0.69590219276E+03  0.11522168975E+04  0.90245231842E+03 0.  0.
         23    2    4    4    0    0 -0.21192640349E+03 -0.21310715042E+03  0.81616125979E+02  0.32466888143E+03  0.91767273564E+02 0.  0.
         23    2    4    4    0    0  0.49342590002E+02  0.26280859574E+03 -0.77751831874E+03  0.82754801611E+03  0.93797301736E+02 0.  0.
          3    1    3    3  502    0  0.10576892528E+03  0.98813195804E+01 -0.62480016150E+03  0.63376647737E+03  0.00000000000E+00 0. -1.
         -3    1    3    3    0  502  0.56814888210E+02 -0.59582764900E+02 -0.30839994291E+03  0.31919987811E+03  0.00000000000E+00 0.  1.
         11    1    5    5    0    0 -0.92604627102E+02 -0.73093359052E+02  0.76556908609E+02  0.14063860193E+03  0.00000000000E+00 0. -1.
        -11    1    5    5    0    0 -0.11932177639E+03 -0.14001379136E+03  0.50592173702E+01  0.18403027950E+03  0.00000000000E+00 0.  1.
          4    1    6    6  503    0  0.14961224064E+02  0.17227904169E+03 -0.36609990622E+03  0.40488646281E+03  0.00000000000E+00 0.  1.
         -4    1    6    6    0  503  0.34381365938E+02  0.90529554041E+02 -0.41141841251E+03  0.42266155330E+03  0.00000000000E+00 0. -1.
<mgrwt>
<rscale>  0 0.13333500E+04</rscale>
<asrwt>0</asrwt>
<pdfrwt beam="1">  1        2 0.28725275E+00 0.13333500E+04</pdfrwt>
<pdfrwt beam="2">  1       -2 0.36621610E-01 0.13333500E+04</pdfrwt>
<totfact> 0.54393601E+01</totfact>
</mgrwt>
</event>
<event>
12    2  0.3518828E-008  0.1968932E+04  0.7818608E-02  0.8621285E-01
         -1   -1    0    0    0  501 -0.00000000000E+00  0.00000000000E+00  0.49036954651E+03  0.49036954651E+03  0.00000000000E+00 0.  1.
          1   -1    0    0  501    0  0.00000000000E+00 -0.00000000000E+00 -0.19764143087E+04  0.19764143087E+04  0.00000000000E+00 0. -1.
         23    2    1    2    0    0 -0.64629765514E+03 -0.17989525400E+03 -0.10916185238E+04  0.12845532800E+04  0.91559632388E+02 0.  0.
        254    2    1    2    0    0  0.64629765514E+03  0.17989525400E+03 -0.39442623838E+03  0.11822305752E+04  0.88996298457E+03 0.  0.
         23    2    4    4    0    0  0.29803574589E+03 -0.30018606588E+03 -0.38861137436E+03  0.58198069963E+03  0.93518738648E+02 0.  0.
         23    2    4    4    0    0  0.34826190925E+03  0.48008131988E+03 -0.58148640227E+01  0.60024987555E+03  0.92204497290E+02 0.  0.
          3    1    3    3  502    0 -0.63244349930E+03 -0.17759156702E+03 -0.10864164904E+04  0.12695764393E+04  0.00000000000E+00 0. -1.
         -3    1    3    3    0  502 -0.13854155840E+02 -0.23036869763E+01 -0.52020333627E+01  0.14976840749E+02  0.00000000000E+00 0.  1.
         11    1    5    5    0    0  0.10681902888E+02  0.58673495778E+01 -0.19407569865E+02  0.22916862971E+02  0.00000000000E+00 0. -1.
        -11    1    5    5    0    0  0.28735384301E+03 -0.30605341546E+03 -0.36920380450E+03  0.55906383666E+03  0.00000000000E+00 0.  1.
          3    1    6    6  503    0  0.94426482245E+02  0.77416367718E+02  0.19163252031E+02  0.12359969566E+03  0.00000000000E+00 0. -1.
         -3    1    6    6    0  503  0.25383542700E+03  0.40266495216E+03 -0.24978116054E+02  0.47665017988E+03  0.00000000000E+00 0.  1.
<mgrwt>
<rscale>  0 0.19689321E+04</rscale>
<asrwt>0</asrwt>
<pdfrwt beam="1">  1        1 0.30406373E+00 0.19689321E+04</pdfrwt>
<pdfrwt beam="2">  1       -1 0.75441470E-01 0.19689321E+04</pdfrwt>
<totfact> 0.50785711E+00</totfact>
</mgrwt>
</event>
<event>
12    2  0.3518828E-008  0.3321988E+04  0.7818608E-02  0.8157323E-01
          1   -1    0    0  501    0  0.00000000000E+00  0.00000000000E+00  0.15418519715E+04  0.15418519715E+04  0.00000000000E+00 0. -1.
         -1   -1    0    0    0  501 -0.00000000000E+00 -0.00000000000E+00 -0.17893421017E+04  0.17893421017E+04  0.00000000000E+00 0.  1.
         23    2    1    2    0    0 -0.69086306084E+03 -0.12077489180E+04 -0.76287834832E+03  0.15894656518E+04  0.92024270586E+02 0.  0.
        254    2    1    2    0    0  0.69086306084E+03  0.12077489180E+04  0.51538821814E+03  0.17417284213E+04  0.91216427278E+03 0.  0.
         23    2    4    4    0    0  0.87404206326E+03  0.77831925111E+03  0.26238054670E+03  0.12028816800E+04  0.91380521545E+02 0.  0.
         23    2    4    4    0    0 -0.18317900242E+03  0.42942966685E+03  0.25300767144E+03  0.53884674135E+03  0.91534382344E+02 0.  0.
          2    1    3    3  502    0 -0.10788650511E+03 -0.23940254224E+03 -0.11507547046E+03  0.28669746967E+03  0.00000000000E+00 0. -1.
         -2    1    3    3    0  502 -0.58297655572E+03 -0.96834637573E+03 -0.64780287787E+03  0.13027681822E+04  0.00000000000E+00 0.  1.
         11    1    5    5    0    0  0.31056134393E+03  0.26513295156E+03  0.47989421969E+02  0.41115303108E+03  0.00000000000E+00 0. -1.
        -11    1    5    5    0    0  0.56348071932E+03  0.51318629955E+03  0.21439112473E+03  0.79172864888E+03  0.00000000000E+00 0.  1.
          2    1    6    6  503    0 -0.60784066744E+02  0.17468273741E+03  0.14965093312E+03  0.23791629474E+03  0.00000000000E+00 0. -1.
         -2    1    6    6    0  503 -0.12239493568E+03  0.25474692944E+03  0.10335673833E+03  0.30093044661E+03  0.00000000000E+00 0.  1.
<mgrwt>
<rscale>  0 0.33219877E+04</rscale>
<asrwt>0</asrwt>
<pdfrwt beam="1">  1        1 0.23720800E+00 0.33219877E+04</pdfrwt>
<pdfrwt beam="2">  1       -1 0.27528340E+00 0.33219877E+04</pdfrwt>
<totfact> 0.24195903E-01</totfact>
</mgrwt>
</event>
<event>
12    2  0.3518828E-008  0.1752692E+04  0.7818608E-02  0.8731870E-01
         -1   -1    0    0    0  501 -0.00000000000E+00  0.00000000000E+00  0.57615030241E+03  0.57615030241E+03  0.00000000000E+00 0.  1.
          1   -1    0    0  501    0  0.00000000000E+00 -0.00000000000E+00 -0.13329543847E+04  0.13329543847E+04  0.00000000000E+00 0. -1.
         23    2    1    2    0    0  0.40335743546E+03  0.71077752333E+02  0.25888781993E+03  0.49320186721E+03  0.92064710377E+02 0.  0.
        254    2    1    2    0    0 -0.40335743546E+03 -0.71077752333E+02 -0.10156919022E+04  0.14159028199E+04  0.89744163462E+03 0.  0.
         23    2    4    4    0    0 -0.51994607115E+03  0.16744138711E+03 -0.98950534867E+03  0.11340251001E+04  0.92258103745E+02 0.  0.
         23    2    4    4    0    0  0.11658863568E+03 -0.23851913944E+03 -0.26186553536E+02  0.28187771974E+03  0.91022104190E+02 0.  0.
          2    1    3    3  502    0  0.12963939574E+03  0.66010587649E+01  0.36953031927E+02  0.13496471195E+03  0.00000000000E+00 0. -1.
         -2    1    3    3    0  502  0.27371803973E+03  0.64476693568E+02  0.22193478800E+03  0.35823715526E+03  0.00000000000E+00 0.  1.
         11    1    5    5    0    0 -0.34375534734E+03  0.74011486866E+02 -0.68583191254E+03  0.77072099444E+03  0.00000000000E+00 0. -1.
        -11    1    5    5    0    0 -0.17619072381E+03  0.93429900241E+02 -0.30367343613E+03  0.36330410571E+03  0.00000000000E+00 0.  1.
          2    1    6    6  503    0  0.88508402950E+02 -0.23242398806E+03 -0.10019536405E+02  0.24890769118E+03  0.00000000000E+00 0. -1.
         -2    1    6    6    0  503  0.28080232735E+02 -0.60951513846E+01 -0.16167017131E+02  0.32970028567E+02  0.00000000000E+00 0.  1.
<mgrwt>
<rscale>  0 0.17526917E+04</rscale>
<asrwt>0</asrwt>
<pdfrwt beam="1">  1        1 0.20506990E+00 0.17526917E+04</pdfrwt>
<pdfrwt beam="2">  1       -1 0.88638510E-01 0.17526917E+04</pdfrwt>
<totfact> 0.10141954E+01</totfact>
</mgrwt>
</event>
<event>
12    2  0.3518828E-008  0.3663211E+04  0.7818608E-02  0.8076164E-01
         -2   -1    0    0    0  501 -0.00000000000E+00  0.00000000000E+00  0.95473190901E+03  0.95473190901E+03  0.00000000000E+00 0.  1.
          2   -1    0    0  501    0  0.00000000000E+00 -0.00000000000E+00 -0.35138436883E+04  0.35138436883E+04  0.00000000000E+00 0. -1.
         23    2    1    2    0    0  0.14835794625E+04  0.75726427874E+03 -0.68789279757E+03  0.18044562843E+04  0.91699354322E+02 0.  0.
        254    2    1    2    0    0 -0.14835794625E+04 -0.75726427874E+03 -0.18712189817E+04  0.26641193129E+04  0.90642927285E+03 0.  0.
         23    2    4    4    0    0 -0.33825058463E+03 -0.65215270027E+03 -0.80047967007E+03  0.10900700269E+04  0.88138293871E+02 0.  0.
         23    2    4    4    0    0 -0.11453288779E+04 -0.10511157848E+03 -0.10707393116E+04  0.15740492861E+04  0.91223895015E+02 0.  0.
          2    1    3    3  502    0  0.13665093308E+04  0.68772118110E+03 -0.65646651691E+03  0.16647091223E+04  0.00000000000E+00 0.  1.
         -2    1    3    3    0  502  0.11707013171E+03  0.69543097645E+02 -0.31426280661E+02  0.13974716199E+03  0.00000000000E+00 0. -1.
         11    1    5    5    0    0 -0.22919899617E+02 -0.11240002021E+03 -0.11782975954E+03  0.16444737327E+03  0.00000000000E+00 0. -1.
        -11    1    5    5    0    0 -0.31533068501E+03 -0.53975268006E+03 -0.68264991053E+03  0.92562265361E+03  0.00000000000E+00 0.  1.
          1    1    6    6  503    0 -0.76026885444E+03 -0.11041081659E+03 -0.69322690251E+03  0.10347766995E+04  0.00000000000E+00 0. -1.
         -1    1    6    6    0  503 -0.38506002347E+03  0.52992381182E+01 -0.37751240909E+03  0.53927258656E+03  0.00000000000E+00 0.  1.
<mgrwt>
<rscale>  0 0.36632110E+04</rscale>
<asrwt>0</asrwt>
<pdfrwt beam="1">  1        2 0.54059134E+00 0.36632110E+04</pdfrwt>
<pdfrwt beam="2">  1       -2 0.14688183E+00 0.36632110E+04</pdfrwt>
<totfact> 0.20381620E-01</totfact>
</mgrwt>
</event>
<event>
12    2  0.3518828E-008  0.1929593E+04  0.7818608E-02  0.8640265E-01
          1   -1    0    0  501    0  0.00000000000E+00  0.00000000000E+00  0.68556534145E+03  0.68556534145E+03  0.00000000000E+00 0. -1.
         -1   -1    0    0    0  501 -0.00000000000E+00 -0.00000000000E+00 -0.13577587955E+04  0.13577587955E+04  0.00000000000E+00 0.  1.
         23    2    1    2    0    0  0.43730935377E+03  0.53356643122E+03 -0.58496331263E+03  0.90919780482E+03  0.92336145400E+02 0.  0.
        254    2    1    2    0    0 -0.43730935377E+03 -0.53356643122E+03 -0.87230141380E+02  0.11341263321E+04  0.89593572993E+03 0.  0.
         23    2    4    4    0    0 -0.46637334498E+03 -0.71709087597E+03 -0.22142727647E+03  0.88833806374E+03  0.91602704169E+02 0.  0.
         23    2    4    4    0    0  0.29063991208E+02  0.18352444476E+03  0.13419713509E+03  0.24578826835E+03  0.88752827492E+02 0.  0.
          4    1    3    3  502    0  0.29611383383E+03  0.35999686036E+03 -0.44995872463E+03  0.64787652831E+03  0.00000000000E+00 0. -1.
         -4    1    3    3    0  502  0.14119551994E+03  0.17356957086E+03 -0.13500458800E+03  0.26132127651E+03  0.00000000000E+00 0.  1.
         11    1    5    5    0    0 -0.46018384480E+02 -0.62212670018E+02  0.59737123334E+01  0.77613099796E+02  0.00000000000E+00 0.  1.
        -11    1    5    5    0    0 -0.42035496050E+03 -0.65487820596E+03 -0.22740098880E+03  0.81072496394E+03  0.00000000000E+00 0. -1.
          4    1    6    6  503    0  0.21133881493E+02  0.18991212099E+03  0.11230323452E+03  0.22164221423E+03  0.00000000000E+00 0. -1.
         -4    1    6    6    0  503  0.79301097150E+01 -0.63876762344E+01  0.21893900564E+02  0.24146054122E+02  0.00000000000E+00 0.  1.
<mgrwt>
<rscale>  0 0.19295931E+04</rscale>
<asrwt>0</asrwt>
<pdfrwt beam="1">  1        1 0.10547159E+00 0.19295931E+04</pdfrwt>
<pdfrwt beam="2">  1       -1 0.20888597E+00 0.19295931E+04</pdfrwt>
<totfact> 0.34325421E+00</totfact>
</mgrwt>
</event>
<event>
12    2  0.3518828E-008  0.1929764E+04  0.7818608E-02  0.8640181E-01
          1   -1    0    0  501    0  0.00000000000E+00  0.00000000000E+00  0.18200282091E+04  0.18200282091E+04  0.00000000000E+00 0. -1.
         -1   -1    0    0    0  501 -0.00000000000E+00 -0.00000000000E+00 -0.51152896646E+03  0.51152896646E+03  0.00000000000E+00 0.  1.
         23    2    1    2    0    0  0.15876319448E+03 -0.39264048126E+03 -0.23763273994E+03  0.49448181516E+03  0.93116308919E+02 0.  0.
        254    2    1    2    0    0 -0.15876319448E+03  0.39264048126E+03  0.15461319826E+04  0.18370753604E+04  0.89718976405E+03 0.  0.
         23    2    4    4    0    0  0.21616591409E+03  0.27828125212E+03  0.13326437879E+04  0.13812343073E+04  0.87752996286E+02 0.  0.
         23    2    4    4    0    0 -0.37492910857E+03  0.11435922915E+03  0.21348819464E+03  0.45584105311E+03  0.92541810605E+02 0.  0.
          3    1    3    3  502    0  0.56427377282E+02 -0.52864018659E+02 -0.27430704636E+02  0.82043262566E+02  0.00000000000E+00 0. -1.
         -3    1    3    3    0  502  0.10233581720E+03 -0.33977646260E+03 -0.21020203531E+03  0.41243855260E+03  0.00000000000E+00 0.  1.
         11    1    5    5    0    0  0.14016014166E+02  0.50983967462E+02  0.12209122998E+03  0.13304917147E+03  0.00000000000E+00 0. -1.
        -11    1    5    5    0    0  0.20214989992E+03  0.22729728465E+03  0.12105525579E+04  0.12481851358E+04  0.00000000000E+00 0.  1.
          3    1    6    6  503    0 -0.31452067064E+03  0.57636513583E+02  0.17427120773E+03  0.36416434998E+03  0.00000000000E+00 0. -1.
         -3    1    6    6    0  503 -0.60408437931E+02  0.56722715565E+02  0.39216986910E+02  0.91676703129E+02  0.00000000000E+00 0.  1.
<mgrwt>
<rscale>  0 0.19297639E+04</rscale>
<asrwt>0</asrwt>
<pdfrwt beam="1">  1        1 0.28000434E+00 0.19297639E+04</pdfrwt>
<pdfrwt beam="2">  1       -1 0.78696765E-01 0.19297639E+04</pdfrwt>
<totfact> 0.59516837E+00</totfact>
</mgrwt>
</event>
<event>
12    2  0.3518828E-008  0.1352984E+04  0.7818608E-02  0.8988573E-01
         -1   -1    0    0    0  501 -0.00000000000E+00  0.00000000000E+00  0.13388139344E+04  0.13388139344E+04  0.00000000000E+00 0.  1.
          1   -1    0    0  501    0  0.00000000000E+00 -0.00000000000E+00 -0.34182585474E+03  0.34182585474E+03  0.00000000000E+00 0. -1.
         23    2    1    2    0    0 -0.25195827161E+03  0.25753953604E+03  0.33271532941E+03  0.49879184614E+03  0.91017757016E+02 0.  0.
        254    2    1    2    0    0  0.25195827161E+03 -0.25753953604E+03  0.66427275028E+03  0.11818479430E+04  0.90867854076E+03 0.  0.
         23    2    4    4    0    0  0.28888987219E+03 -0.18523253709E+03  0.87134398003E+03  0.94177588436E+03  0.99664606426E+02 0.  0.
         23    2    4    4    0    0 -0.36931600578E+02 -0.72306998950E+02 -0.20707122975E+03  0.24007205868E+03  0.90354047784E+02 0.  0.
          4    1    3    3  502    0 -0.11357398581E+03  0.17598087772E+03  0.21054828416E+03  0.29698299537E+03  0.00000000000E+00 0.  1.
         -4    1    3    3    0  502 -0.13838428580E+03  0.81558658322E+02  0.12216704525E+03  0.20180885077E+03  0.00000000000E+00 0. -1.
         11    1    5    5    0    0  0.60574849322E+01 -0.19634859168E+02  0.12447403480E+03  0.12615865471E+03  0.00000000000E+00 0. -1.
        -11    1    5    5    0    0  0.28283238726E+03 -0.16559767792E+03  0.74686994523E+03  0.81561722965E+03  0.00000000000E+00 0.  1.
          3    1    6    6  503    0 -0.18068207905E+02 -0.17664367133E+02 -0.19283993778E+00  0.25269095559E+02  0.00000000000E+00 0. -1.
         -3    1    6    6    0  503 -0.18863392673E+02 -0.54642631817E+02 -0.20687838981E+03  0.21480296312E+03  0.00000000000E+00 0.  1.
<mgrwt>
<rscale>  0 0.13529837E+04</rscale>
<asrwt>0</asrwt>
<pdfrwt beam="1">  1        1 0.52588594E-01 0.13529837E+04</pdfrwt>
<pdfrwt beam="2">  1       -1 0.20597137E+00 0.13529837E+04</pdfrwt>
<totfact> 0.99018590E+00</totfact>
</mgrwt>
</event>
<event>
12    2  0.3518828E-008  0.1667607E+04  0.7818608E-02  0.8780058E-01
          2   -1    0    0  501    0  0.00000000000E+00  0.00000000000E+00  0.87486365950E+03  0.87486365950E+03  0.00000000000E+00 0. -1.
         -2   -1    0    0    0  501 -0.00000000000E+00 -0.00000000000E+00 -0.79467069876E+03  0.79467069876E+03  0.00000000000E+00 0.  1.
         23    2    1    2    0    0  0.33129715043E+02 -0.86557857547E+02  0.60399209916E+03  0.61756154346E+03  0.89364217660E+02 0.  0.
        254    2    1    2    0    0 -0.33129715043E+02  0.86557857547E+02 -0.52379913841E+03  0.10519728148E+04  0.90757447351E+03 0.  0.
         23    2    4    4    0    0  0.88456780564E+01  0.23768061422E+03  0.18694249734E+03  0.31850955944E+03  0.99652003223E+02 0.  0.
         23    2    4    4    0    0 -0.41975393100E+02 -0.15112275667E+03 -0.71074163575E+03  0.73346325536E+03  0.90634722769E+02 0.  0.
          2    1    3    3  502    0  0.20263020920E+02 -0.10462034749E+03  0.50214580250E+03  0.51332875830E+03  0.00000000000E+00 0. -1.
         -2    1    3    3    0  502  0.12866694124E+02  0.18062489945E+02  0.10184629665E+03  0.10423278516E+03  0.00000000000E+00 0.  1.
         11    1    5    5    0    0  0.43114960225E+02  0.12400689412E+03  0.58907019082E+02  0.14389804196E+03  0.00000000000E+00 0. -1.
        -11    1    5    5    0    0 -0.34269282169E+02  0.11367372010E+03  0.12803547826E+03  0.17461151747E+03  0.00000000000E+00 0.  1.
          3    1    6    6  503    0 -0.29291348056E+02 -0.11064174775E+02 -0.59776323757E+02  0.67480426172E+02  0.00000000000E+00 0. -1.
         -3    1    6    6    0  503 -0.12684045043E+02 -0.14005858189E+03 -0.65096531199E+03  0.66598282919E+03  0.00000000000E+00 0.  1.
<mgrwt>
<rscale>  0 0.16676073E+04</rscale>
<asrwt>0</asrwt>
<pdfrwt beam="1">  1        2 0.13459441E+00 0.16676073E+04</pdfrwt>
<pdfrwt beam="2">  1       -2 0.12225703E+00 0.16676073E+04</pdfrwt>
<totfact> 0.14749528E+01</totfact>
</mgrwt>
</event>
<event>
12    2  0.3518828E-008  0.2021062E+04  0.7818608E-02  0.8596837E-01
          2   -1    0    0  501    0  0.00000000000E+00  0.00000000000E+00  0.93395244835E+03  0.93395244835E+03  0.00000000000E+00 0. -1.
         -2   -1    0    0    0  501 -0.00000000000E+00 -0.00000000000E+00 -0.10933881212E+04  0.10933881212E+04  0.00000000000E+00 0.  1.
         23    2    1    2    0    0 -0.44737940665E+03 -0.38468107250E+03  0.50791827744E+03  0.78388256586E+03  0.91449655322E+02 0.  0.
        254    2    1    2    0    0  0.44737940665E+03  0.38468107250E+03 -0.66735395028E+03  0.12434580037E+04  0.86758207157E+03 0.  0.
         23    2    4    4    0    0 -0.15392090475E+03  0.39060972665E+03 -0.36770764436E+03  0.56546062560E+03  0.90935163262E+02 0.  0.
         23    2    4    4    0    0  0.60130031140E+03 -0.59286541449E+01 -0.29964630592E+03  0.67799737807E+03  0.91078661524E+02 0.  0.
          3    1    3    3  502    0 -0.35550280348E+03 -0.26407525395E+03  0.40920092094E+03  0.60296216857E+03  0.00000000000E+00 0. -1.
         -3    1    3    3    0  502 -0.91876603170E+02 -0.12060581856E+03  0.98717356508E+02  0.18092039729E+03  0.00000000000E+00 0.  1.
         11    1    5    5    0    0 -0.14886786048E+03  0.28496107293E+03 -0.30098144999E+03  0.44040241394E+03  0.00000000000E+00 0.  1.
        -11    1    5    5    0    0 -0.50530442758E+01  0.10564865372E+03 -0.66726194363E+02  0.12505821166E+03  0.00000000000E+00 0. -1.
          2    1    6    6  503    0  0.20779173447E+02 -0.95640097196E+01 -0.30457291411E+02  0.38090562232E+02  0.00000000000E+00 0. -1.
         -2    1    6    6    0  503  0.58052113795E+03  0.36353555747E+01 -0.26918901451E+03  0.63990681584E+03  0.00000000000E+00 0.  1.
<mgrwt>
<rscale>  0 0.20210616E+04</rscale>
<asrwt>0</asrwt>
<pdfrwt beam="1">  1        2 0.14368499E+00 0.20210616E+04</pdfrwt>
<pdfrwt beam="2">  1       -2 0.16821356E+00 0.20210616E+04</pdfrwt>
<totfact> 0.56623255E+00</totfact>
</mgrwt>
</event>
<event>
12    2  0.3518828E-008  0.2105716E+04  0.7818608E-02  0.8558729E-01
          1   -1    0    0  501    0  0.00000000000E+00  0.00000000000E+00  0.72092625655E+03  0.72092625655E+03  0.00000000000E+00 0. -1.
         -1   -1    0    0    0  501 -0.00000000000E+00 -0.00000000000E+00 -0.15376195949E+04  0.15376195949E+04  0.00000000000E+00 0.  1.
         23    2    1    2    0    0  0.10647118113E+03 -0.49112263988E+03 -0.10758657872E+04  0.11908391557E+04  0.89850670597E+02 0.  0.
        254    2    1    2    0    0 -0.10647118113E+03  0.49112263988E+03  0.25917244877E+03  0.10677066958E+04  0.90569844327E+03 0.  0.
         23    2    4    4    0    0 -0.31122564479E+02  0.13725100713E+03  0.56161181543E+03  0.58675430514E+03  0.95217279881E+02 0.  0.
         23    2    4    4    0    0 -0.75348616655E+02  0.35387163275E+03 -0.30243936666E+03  0.48095239062E+03  0.94567885859E+02 0.  0.
          2    1    3    3  502    0  0.11281849226E+03 -0.41449137556E+03 -0.96064806401E+03  0.10523192555E+04  0.00000000000E+00 0. -1.
         -2    1    3    3    0  502 -0.63473111254E+01 -0.76631264322E+02 -0.11521772315E+03  0.13851990022E+03  0.00000000000E+00 0.  1.
         11    1    5    5    0    0 -0.14130719123E+02 -0.11956823827E+01  0.89668853999E+01  0.16778316753E+02  0.00000000000E+00 0. -1.
        -11    1    5    5    0    0 -0.16991845355E+02  0.13844668951E+03  0.55264493003E+03  0.56997598839E+03  0.00000000000E+00 0.  1.
          1    1    6    6  503    0  0.93424894945E+01  0.38747642186E+02 -0.64020367348E+01  0.40368898415E+02  0.00000000000E+00 0. -1.
         -1    1    6    6    0  503 -0.84691106150E+02  0.31512399057E+03 -0.29603732993E+03  0.44058349220E+03  0.00000000000E+00 0.  1.
<mgrwt>
<rscale>  0 0.21057164E+04</rscale>
<asrwt>0</asrwt>
<pdfrwt beam="1">  1        1 0.11091173E+00 0.21057164E+04</pdfrwt>
<pdfrwt beam="2">  1       -1 0.23655686E+00 0.21057164E+04</pdfrwt>
<totfact> 0.20446310E+00</totfact>
</mgrwt>
</event>
<event>
12    2  0.3518828E-008  0.1533671E+04  0.7818608E-02  0.8862366E-01
         -1   -1    0    0    0  501 -0.00000000000E+00  0.00000000000E+00  0.29017098885E+03  0.29017098885E+03  0.00000000000E+00 0.  1.
          1   -1    0    0  501    0  0.00000000000E+00 -0.00000000000E+00 -0.20265171812E+04  0.20265171812E+04  0.00000000000E+00 0. -1.
         23    2    1    2    0    0  0.10547354058E+03  0.24535571799E+03 -0.12006327653E+04  0.12333039909E+04  0.90529557136E+02 0.  0.
        254    2    1    2    0    0 -0.10547354058E+03 -0.24535571799E+03 -0.53571342712E+03  0.10833841792E+04  0.90299961666E+03 0.  0.
         23    2    4    4    0    0  0.33342744220E+03 -0.32364318158E+03 -0.35832028246E+03  0.59419319178E+03  0.93559372258E+02 0.  0.
         23    2    4    4    0    0 -0.43890098278E+03  0.78287463586E+02 -0.17739314465E+03  0.48919098744E+03  0.95270639700E+02 0.  0.
          2    1    3    3  502    0  0.49212961159E+02  0.18828614932E+03 -0.71084933560E+03  0.73700771197E+03  0.00000000000E+00 0. -1.
         -2    1    3    3    0  502  0.56260579419E+02  0.57069568668E+02 -0.48978342967E+03  0.49629627889E+03  0.00000000000E+00 0.  1.
         11    1    5    5    0    0  0.21573227990E+03 -0.26002542791E+03 -0.28253418769E+03  0.44043070620E+03  0.00000000000E+00 0. -1.
        -11    1    5    5    0    0  0.11769516230E+03 -0.63617753669E+02 -0.75786094777E+02  0.15376248558E+03  0.00000000000E+00 0.  1.
          4    1    6    6  503    0 -0.38733557941E+03  0.36129802413E+02 -0.15735808911E+03  0.41963767932E+03  0.00000000000E+00 0. -1.
         -4    1    6    6    0  503 -0.51565403369E+02  0.42157661173E+02 -0.20035055545E+02  0.69553308123E+02  0.00000000000E+00 0.  1.
<mgrwt>
<rscale>  0 0.15336708E+04</rscale>
<asrwt>0</asrwt>
<pdfrwt beam="1">  1        1 0.31177189E+00 0.15336708E+04</pdfrwt>
<pdfrwt beam="2">  1       -1 0.44641688E-01 0.15336708E+04</pdfrwt>
<totfact> 0.13719368E+01</totfact>
</mgrwt>
</event>
<event>
12    2  0.3518828E-008  0.2219852E+04  0.7818608E-02  0.8510210E-01
         -1   -1    0    0    0  501 -0.00000000000E+00  0.00000000000E+00  0.88816142183E+03  0.88816142183E+03  0.00000000000E+00 0.  1.
          1   -1    0    0  501    0  0.00000000000E+00 -0.00000000000E+00 -0.13870631236E+04  0.13870631236E+04  0.00000000000E+00 0. -1.
         23    2    1    2    0    0  0.18147986577E+03 -0.53138604067E+03  0.54812584976E+03  0.78974426811E+03  0.89151533596E+02 0.  0.
        254    2    1    2    0    0 -0.18147986577E+03  0.53138604067E+03 -0.10470275516E+04  0.14854802773E+04  0.89167196589E+03 0.  0.
         23    2    4    4    0    0 -0.22463129550E+03 -0.19194871036E+03 -0.20549103414E+03  0.37129241948E+03  0.91257708310E+02 0.  0.
         23    2    4    4    0    0  0.43151429730E+02  0.72333475102E+03 -0.84153651743E+03  0.11141878579E+04  0.90308717902E+02 0.  0.
          1    1    3    3  502    0  0.23462765855E+01  0.13408433349E+01 -0.19367697166E+01  0.33247483514E+01  0.00000000000E+00 0. -1.
         -1    1    3    3    0  502  0.17913358918E+03 -0.53272688400E+03  0.55006261948E+03  0.78641951976E+03  0.00000000000E+00 0.  1.
         11    1    5    5    0    0 -0.57241229463E+02 -0.25458797649E+02 -0.86800157367E+02  0.10704660689E+03  0.00000000000E+00 0. -1.
        -11    1    5    5    0    0 -0.16739006604E+03 -0.16648991271E+03 -0.11869087678E+03  0.26424581259E+03  0.00000000000E+00 0.  1.
          4    1    6    6  503    0  0.51785730036E+02  0.24722034175E+03 -0.32555869051E+03  0.41205354042E+03  0.00000000000E+00 0. -1.
         -4    1    6    6    0  503 -0.86343003056E+01  0.47611440927E+03 -0.51597782692E+03  0.70213431744E+03  0.00000000000E+00 0.  1.
<mgrwt>
<rscale>  0 0.22198522E+04</rscale>
<asrwt>0</asrwt>
<pdfrwt beam="1">  1        1 0.21339432E+00 0.22198522E+04</pdfrwt>
<pdfrwt beam="2">  1       -1 0.13664022E+00 0.22198522E+04</pdfrwt>
<totfact> 0.31887984E+00</totfact>
</mgrwt>
</event>
<event>
12    2  0.3518828E-008  0.1037629E+04  0.7818608E-02  0.9268210E-01
         -2   -1    0    0    0  501 -0.00000000000E+00  0.00000000000E+00  0.74213082419E+02  0.74213082419E+02  0.00000000000E+00 0. -1.
          2   -1    0    0  501    0  0.00000000000E+00 -0.00000000000E+00 -0.36269709944E+04  0.36269709944E+04  0.00000000000E+00 0.  1.
         23    2    1    2    0    0  0.48283370600E+02 -0.15674840194E+02 -0.17321331950E+03  0.20189832083E+03  0.90460452195E+02 0.  0.
        254    2    1    2    0    0 -0.48283370600E+02  0.15674840194E+02 -0.33795445925E+04  0.34992857560E+04  0.90614687826E+03 0.  0.
         23    2    4    4    0    0 -0.66300129873E+02  0.71800384524E+02 -0.22786871922E+02  0.14067606355E+03  0.98587579767E+02 0.  0.
         23    2    4    4    0    0  0.18016759274E+02 -0.56125544330E+02 -0.33567577205E+04  0.33586096924E+04  0.94667794278E+02 0.  0.
          2    1    3    3  502    0  0.35373768085E+02 -0.47784438383E+02 -0.64094016914E+02  0.87422531560E+02  0.00000000000E+00 0. -1.
         -2    1    3    3    0  502  0.12909602514E+02  0.32109598189E+02 -0.10911930258E+03  0.11447578927E+03  0.00000000000E+00 0.  1.
         11    1    5    5    0    0 -0.62212305913E+02 -0.40986913289E+01 -0.45698003875E+01  0.62514425161E+02  0.00000000000E+00 0. -1.
        -11    1    5    5    0    0 -0.40878239607E+01  0.75899075853E+02 -0.18217071535E+02  0.78161638387E+02  0.00000000000E+00 0.  1.
          2    1    6    6  503    0  0.20552957826E+02 -0.32206706997E+02 -0.31792721160E+04  0.31795016722E+04  0.00000000000E+00 0. -1.
         -2    1    6    6    0  503 -0.25361985522E+01 -0.23918837333E+02 -0.17748560454E+03  0.17910802020E+03  0.00000000000E+00 0.  1.
<mgrwt>
<rscale>  0 0.10376294E+04</rscale>
<asrwt>0</asrwt>
<pdfrwt beam="1">  1        2 0.55799552E+00 0.10376294E+04</pdfrwt>
<pdfrwt beam="2">  1       -2 0.11417398E-01 0.10376294E+04</pdfrwt>
<totfact> 0.37926228E+01</totfact>
</mgrwt>
</event>
<event>
12    2  0.3518828E-008  0.1495438E+04  0.7818608E-02  0.8887492E-01
          2   -1    0    0  501    0  0.00000000000E+00  0.00000000000E+00  0.13637011075E+04  0.13637011075E+04  0.00000000000E+00 0.  1.
         -2   -1    0    0    0  501 -0.00000000000E+00 -0.00000000000E+00 -0.40997522754E+03  0.40997522754E+03  0.00000000000E+00 0. -1.
         23    2    1    2    0    0  0.15131250618E+03  0.25119725198E+03  0.70582557229E+03  0.76991472342E+03  0.92646688649E+02 0.  0.
        254    2    1    2    0    0 -0.15131250618E+03 -0.25119725198E+03  0.24790030770E+03  0.10037616116E+04  0.92740890470E+03 0.  0.
         23    2    4    4    0    0 -0.18104012668E+03  0.32630778373E+03  0.13442114226E+03  0.40728500254E+03  0.92518823060E+02 0.  0.
         23    2    4    4    0    0  0.29727620503E+02 -0.57750503571E+03  0.11347916544E+03  0.59647660909E+03  0.92255224893E+02 0.  0.
          4    1    3    3  502    0  0.12305306448E+02  0.10223361825E+02  0.12371251228E+03  0.12474262860E+03  0.00000000000E+00 0. -1.
         -4    1    3    3    0  502  0.13900719973E+03  0.24097389015E+03  0.58211306001E+03  0.64517209482E+03  0.00000000000E+00 0.  1.
         11    1    5    5    0    0 -0.91099539643E+02  0.24675833576E+03  0.10796125453E+03  0.28433155799E+03  0.00000000000E+00 0.  1.
        -11    1    5    5    0    0 -0.89940587038E+02  0.79549447972E+02  0.26459887730E+02  0.12295344456E+03  0.00000000000E+00 0. -1.
          1    1    6    6  503    0  0.25602585756E+02 -0.27004623393E+03  0.98629860725E+02  0.28863179015E+03  0.00000000000E+00 0. -1.
         -1    1    6    6    0  503  0.41250347471E+01 -0.30745880178E+03  0.14849304715E+02  0.30784481895E+03  0.00000000000E+00 0.  1.
<mgrwt>
<rscale>  0 0.14954380E+04</rscale>
<asrwt>0</asrwt>
<pdfrwt beam="1">  1        2 0.20980017E+00 0.14954380E+04</pdfrwt>
<pdfrwt beam="2">  1       -2 0.63073113E-01 0.14954380E+04</pdfrwt>
<totfact> 0.34171411E+01</totfact>
</mgrwt>
</event>
<event>
12    2  0.3518828E-008  0.2361898E+04  0.7818608E-02  0.8453908E-01
          1   -1    0    0  501    0  0.00000000000E+00  0.00000000000E+00  0.79134834175E+03  0.79134834175E+03  0.00000000000E+00 0. -1.
         -1   -1    0    0    0  501 -0.00000000000E+00 -0.00000000000E+00 -0.17623601130E+04  0.17623601130E+04  0.00000000000E+00 0.  1.
         23    2    1    2    0    0 -0.98446303120E+03  0.19915184657E+03 -0.34330689715E+03  0.10652309936E+04  0.89602043546E+02 0.  0.
        254    2    1    2    0    0  0.98446303120E+03 -0.19915184657E+03 -0.62770487413E+03  0.14884774612E+04  0.90151141188E+03 0.  0.
         23    2    4    4    0    0  0.99736658267E+02  0.52600272255E+02  0.20042106501E+03  0.24736852527E+03  0.91150394152E+02 0.  0.
         23    2    4    4    0    0  0.88472637293E+03 -0.25175211883E+03 -0.82812593914E+03  0.12411089359E+04  0.91863678925E+02 0.  0.
          1    1    3    3  502    0 -0.50187489144E+03  0.10964208403E+03 -0.12897351935E+03  0.52965456851E+03  0.00000000000E+00 0. -1.
         -1    1    3    3    0  502 -0.48258813976E+03  0.89509762543E+02 -0.21433337780E+03  0.53557642505E+03  0.00000000000E+00 0.  1.
         11    1    5    5    0    0  0.93510156108E+02  0.25338026267E+01  0.11597754147E+03  0.14900120663E+03  0.00000000000E+00 0.  1.
        -11    1    5    5    0    0  0.62265021585E+01  0.50066469629E+02  0.84443523540E+02  0.98367318648E+02  0.00000000000E+00 0. -1.
          2    1    6    6  503    0  0.77995959201E+03 -0.20714743983E+03 -0.68734258406E+03  0.10600409685E+04  0.00000000000E+00 0. -1.
         -2    1    6    6    0  503  0.10476678092E+03 -0.44604678998E+02 -0.14078335508E+03  0.18106796746E+03  0.00000000000E+00 0.  1.
<mgrwt>
<rscale>  0 0.23618982E+04</rscale>
<asrwt>0</asrwt>
<pdfrwt beam="1">  1        1 0.12174590E+00 0.23618982E+04</pdfrwt>
<pdfrwt beam="2">  1       -1 0.27113232E+00 0.23618982E+04</pdfrwt>
<totfact> 0.10276563E+00</totfact>
</mgrwt>
</event>
<event>
12    2  0.3518828E-008  0.1147297E+04  0.7818608E-02  0.9160281E-01
         -1   -1    0    0    0  501 -0.00000000000E+00  0.00000000000E+00  0.67556223679E+03  0.67556223679E+03  0.00000000000E+00 0.  1.
          1   -1    0    0  501    0  0.00000000000E+00 -0.00000000000E+00 -0.48710907249E+03  0.48710907249E+03  0.00000000000E+00 0. -1.
         23    2    1    2    0    0 -0.13422705117E+03 -0.46589177623E+02  0.18150692687E+03  0.24874288969E+03  0.93492288075E+02 0.  0.
        254    2    1    2    0    0  0.13422705117E+03  0.46589177623E+02  0.69462374353E+01  0.91392841959E+03  0.90278981673E+03 0.  0.
         23    2    4    4    0    0  0.90272370540E+02 -0.11722727786E+03 -0.41417799819E+03  0.44866397777E+03  0.88682665788E+02 0.  0.
         23    2    4    4    0    0  0.43954680633E+02  0.16381645548E+03  0.42112423562E+03  0.46526444182E+03  0.10177197040E+03 0.  0.
          2    1    3    3  502    0 -0.57764734767E+02 -0.13633449994E+02  0.12957714992E+02  0.60749797689E+02  0.00000000000E+00 0. -1.
         -2    1    3    3    0  502 -0.76462316406E+02 -0.32955727629E+02  0.16854921188E+03  0.18799309200E+03  0.00000000000E+00 0.  1.
         11    1    5    5    0    0  0.53888814709E+02 -0.10038293428E+03 -0.19496212479E+03  0.22581179763E+03  0.00000000000E+00 0. -1.
        -11    1    5    5    0    0  0.36383555831E+02 -0.16844343576E+02 -0.21921587339E+03  0.22285218014E+03  0.00000000000E+00 0.  1.
          2    1    6    6  503    0 -0.21177643449E+02 -0.26272678480E+00  0.40958165422E+02  0.46110008915E+02  0.00000000000E+00 0. -1.
         -2    1    6    6    0  503  0.65132324081E+02  0.16407918227E+03  0.38016607020E+03  0.41915443291E+03  0.00000000000E+00 0.  1.
<mgrwt>
<rscale>  0 0.11472968E+04</rscale>
<asrwt>0</asrwt>
<pdfrwt beam="1">  1        1 0.74939857E-01 0.11472968E+04</pdfrwt>
<pdfrwt beam="2">  1       -1 0.10393265E+00 0.11472968E+04</pdfrwt>
<totfact> 0.39816870E+01</totfact>
</mgrwt>
</event>
<event>
12    2  0.3518828E-008  0.1146401E+04  0.7818608E-02  0.9161110E-01
          1   -1    0    0  501    0  0.00000000000E+00  0.00000000000E+00  0.28647052902E+04  0.28647052902E+04  0.00000000000E+00 0. -1.
         -1   -1    0    0    0  501 -0.00000000000E+00 -0.00000000000E+00 -0.11469200793E+03  0.11469200793E+03  0.00000000000E+00 0.  1.
         23    2    1    2    0    0 -0.32636138785E+02 -0.65475074402E+02  0.10429202573E+04  0.10493588043E+04  0.90106237942E+02 0.  0.
        254    2    1    2    0    0  0.32636138785E+02  0.65475074402E+02  0.17070930250E+04  0.19300384938E+04  0.89751316921E+03 0.  0.
         23    2    4    4    0    0  0.45250764093E+03 -0.10332931714E+02  0.80104500103E+03  0.92452665685E+03  0.90589795104E+02 0.  0.
         23    2    4    4    0    0 -0.41987150215E+03  0.75808006116E+02  0.90604802393E+03  0.10055118370E+04  0.89956103447E+02 0.  0.
          3    1    3    3  502    0 -0.47616280310E+02 -0.76046197820E+02  0.97106617656E+03  0.97520246801E+03  0.00000000000E+00 0. -1.
         -3    1    3    3    0  502  0.14980141525E+02  0.10571123418E+02  0.71854080746E+02  0.74156336279E+02  0.00000000000E+00 0.  1.
         11    1    5    5    0    0  0.34362280637E+03  0.22699545044E+02  0.64793929784E+03  0.73376919811E+03  0.00000000000E+00 0. -1.
        -11    1    5    5    0    0  0.10888483456E+03 -0.33032476758E+02  0.15310570319E+03  0.19075745875E+03  0.00000000000E+00 0.  1.
          3    1    6    6  503    0 -0.25564865181E+03  0.40980934357E+01  0.49616571791E+03  0.55816972972E+03  0.00000000000E+00 0. -1.
         -3    1    6    6    0  503 -0.16422285033E+03  0.71709912680E+02  0.40988230602E+03  0.44734210727E+03  0.00000000000E+00 0.  1.
<mgrwt>
<rscale>  0 0.11464010E+04</rscale>
<asrwt>0</asrwt>
<pdfrwt beam="1">  1        1 0.44072384E+00 0.11464010E+04</pdfrwt>
<pdfrwt beam="2">  1       -1 0.17644927E-01 0.11464010E+04</pdfrwt>
<totfact> 0.18996883E+01</totfact>
</mgrwt>
</event>
<event>
12    2  0.3518828E-008  0.1358042E+04  0.7818608E-02  0.8984763E-01
          2   -1    0    0  501    0  0.00000000000E+00  0.00000000000E+00  0.25581666984E+04  0.25581666984E+04  0.00000000000E+00 0. -1.
         -2   -1    0    0    0  501 -0.00000000000E+00 -0.00000000000E+00 -0.18023432591E+03  0.18023432591E+03  0.00000000000E+00 0.  1.
         23    2    1    2    0    0 -0.18982867775E+03  0.32526122914E+03  0.48915174281E+03  0.62491668346E+03  0.97065131195E+02 0.  0.
        254    2    1    2    0    0  0.18982867775E+03 -0.32526122914E+03  0.18887806297E+04  0.21134843409E+04  0.87034131115E+03 0.  0.
         23    2    4    4    0    0 -0.15347399261E+03 -0.49518169897E+03  0.82345891899E+03  0.97765764920E+03  0.94713812965E+02 0.  0.
         23    2    4    4    0    0  0.34330267035E+03  0.16992046984E+03  0.10653217107E+04  0.11358266917E+04  0.91990416122E+02 0.  0.
          3    1    3    3  502    0 -0.92850276773E+02  0.10147427061E+03  0.23760432572E+03  0.27454328819E+03  0.00000000000E+00 0. -1.
         -3    1    3    3    0  502 -0.96978400977E+02  0.22378695853E+03  0.25154741709E+03  0.35037339527E+03  0.00000000000E+00 0.  1.
         11    1    5    5    0    0 -0.44485135217E+02 -0.60864298515E+02  0.81283233625E+02  0.11086186972E+03  0.00000000000E+00 0.  1.
        -11    1    5    5    0    0 -0.10898885739E+03 -0.43431740046E+03  0.74217568537E+03  0.86679577948E+03  0.00000000000E+00 0. -1.
          3    1    6    6  503    0  0.24091699127E+03  0.13152094955E+03  0.63411014620E+03  0.69096630480E+03  0.00000000000E+00 0. -1.
         -3    1    6    6    0  503  0.10238567908E+03  0.38399520284E+02  0.43121156452E+03  0.44486038688E+03  0.00000000000E+00 0.  1.
<mgrwt>
<rscale>  0 0.13580419E+04</rscale>
<asrwt>0</asrwt>
<pdfrwt beam="1">  1        2 0.39356408E+00 0.13580419E+04</pdfrwt>
<pdfrwt beam="2">  1       -2 0.27728360E-01 0.13580419E+04</pdfrwt>
<totfact> 0.37482868E+01</totfact>
</mgrwt>
</event>
<event>
12    2  0.3518828E-008  0.2169544E+04  0.7818608E-02  0.8531213E-01
         -2   -1    0    0    0  501 -0.00000000000E+00  0.00000000000E+00  0.12043068489E+04  0.12043068489E+04  0.00000000000E+00 0.  1.
          2   -1    0    0  501    0  0.00000000000E+00 -0.00000000000E+00 -0.97710163319E+03  0.97710163319E+03  0.00000000000E+00 0. -1.
         23    2    1    2    0    0  0.51529362407E+02 -0.32694944508E+03 -0.75186858448E+03  0.82646560878E+03  0.90486569958E+02 0.  0.
        254    2    1    2    0    0 -0.51529362407E+02  0.32694944508E+03  0.97907380017E+03  0.13549428733E+04  0.87620401098E+03 0.  0.
         23    2    4    4    0    0 -0.43465817572E+03  0.42183686001E+02  0.40245541156E+03  0.60091802372E+03  0.91787362174E+02 0.  0.
         23    2    4    4    0    0  0.38312881331E+03  0.28476575908E+03  0.57661838860E+03  0.75402484956E+03  0.90473656665E+02 0.  0.
          3    1    3    3  502    0 -0.10209974203E+02 -0.42234141875E+02 -0.17360761089E+03  0.17896247895E+03  0.00000000000E+00 0. -1.
         -3    1    3    3    0  502  0.61739336610E+02 -0.28471530320E+03 -0.57826097360E+03  0.64750312984E+03  0.00000000000E+00 0.  1.
         11    1    5    5    0    0 -0.43206934679E+03  0.42043870124E+02  0.37591284777E+03  0.57424914155E+03  0.00000000000E+00 0.  1.
        -11    1    5    5    0    0 -0.25888289291E+01  0.13981587768E+00  0.26542563796E+02  0.26668882177E+02  0.00000000000E+00 0. -1.
          2    1    6    6  503    0  0.12243285138E+02  0.26899448655E+02  0.65757023432E+02  0.72093442833E+02  0.00000000000E+00 0. -1.
         -2    1    6    6    0  503  0.37088552817E+03  0.25786631042E+03  0.51086136517E+03  0.68193140673E+03  0.00000000000E+00 0.  1.
<mgrwt>
<rscale>  0 0.21695439E+04</rscale>
<asrwt>0</asrwt>
<pdfrwt beam="1">  1        2 0.15032333E+00 0.21695439E+04</pdfrwt>
<pdfrwt beam="2">  1       -2 0.18527798E+00 0.21695439E+04</pdfrwt>
<totfact> 0.39830718E+00</totfact>
</mgrwt>
</event>
<event>
12    2  0.3518828E-008  0.1778699E+04  0.7818608E-02  0.8717710E-01
         -1   -1    0    0    0  501 -0.00000000000E+00  0.00000000000E+00  0.81075455551E+03  0.81075455551E+03  0.00000000000E+00 0.  1.
          1   -1    0    0  501    0  0.00000000000E+00 -0.00000000000E+00 -0.97556362410E+03  0.97556362410E+03  0.00000000000E+00 0. -1.
         23    2    1    2    0    0 -0.17180499101E+03 -0.58498605268E+03 -0.31178924618E+03  0.69080182192E+03  0.90933967046E+02 0.  0.
        254    2    1    2    0    0  0.17180499101E+03  0.58498605268E+03  0.14698017760E+03  0.10955163577E+04  0.89823564871E+03 0.  0.
         23    2    4    4    0    0 -0.73988599839E+01  0.59383119805E+03 -0.24951514447E+03  0.65082708351E+03  0.92886222873E+02 0.  0.
         23    2    4    4    0    0  0.17920385100E+03 -0.88451453720E+01  0.39649532206E+03  0.44468927419E+03  0.91366040485E+02 0.  0.
          1    1    3    3  502    0 -0.45448562514E+02 -0.15278719977E+03 -0.12805300598E+03  0.20446777885E+03  0.00000000000E+00 0. -1.
         -1    1    3    3    0  502 -0.12635642850E+03 -0.43219885291E+03 -0.18373624020E+03  0.48633404306E+03  0.00000000000E+00 0.  1.
         11    1    5    5    0    0  0.29221607232E+02  0.81975914588E+02 -0.23854991476E+02  0.90238647596E+02  0.00000000000E+00 0. -1.
        -11    1    5    5    0    0 -0.36620467216E+02  0.51185528346E+03 -0.22566015299E+03  0.56058843591E+03  0.00000000000E+00 0.  1.
          4    1    6    6  503    0  0.27631767997E+02 -0.34397580330E+02  0.12691891470E+03  0.13436933818E+03  0.00000000000E+00 0. -1.
         -4    1    6    6    0  503  0.15157208300E+03  0.25552434958E+02  0.26957640737E+03  0.31031993601E+03  0.00000000000E+00 0.  1.
<mgrwt>
<rscale>  0 0.17786991E+04</rscale>
<asrwt>0</asrwt>
<pdfrwt beam="1">  1        1 0.15008671E+00 0.17786991E+04</pdfrwt>
<pdfrwt beam="2">  1       -1 0.12473147E+00 0.17786991E+04</pdfrwt>
<totfact> 0.84135693E+00</totfact>
</mgrwt>
</event>
<event>
12    2  0.3518828E-008  0.1406497E+04  0.7818608E-02  0.8949129E-01
         -3   -1    0    0    0  501 -0.00000000000E+00  0.00000000000E+00  0.77373817884E+03  0.77373817884E+03  0.00000000000E+00 0.  1.
          3   -1    0    0  501    0  0.00000000000E+00 -0.00000000000E+00 -0.63918106256E+03  0.63918106256E+03  0.00000000000E+00 0. -1.
         23    2    1    2    0    0  0.11751944270E+03 -0.39761679050E+02 -0.34411381540E+03  0.37708815359E+03  0.91593379089E+02 0.  0.
        254    2    1    2    0    0 -0.11751944270E+03  0.39761679050E+02  0.47867093167E+03  0.10358310878E+04  0.91018040581E+03 0.  0.
         23    2    4    4    0    0 -0.37698211339E+03 -0.26366397544E+03  0.40597455401E+03  0.61922413542E+03  0.83600153213E+02 0.  0.
         23    2    4    4    0    0  0.25946267069E+03  0.30342565449E+03  0.72696377663E+02  0.41660695240E+03  0.94279288152E+02 0.  0.
          4    1    3    3  502    0  0.13271726006E+03 -0.35909722106E+02 -0.32047239688E+03  0.34872042730E+03  0.00000000000E+00 0. -1.
         -4    1    3    3    0  502 -0.15197817356E+02 -0.38519569443E+01 -0.23641418524E+02  0.28367726284E+02  0.00000000000E+00 0.  1.
         11    1    5    5    0    0 -0.75809865613E+02 -0.88906759269E+02  0.13103744905E+03  0.17556298192E+03  0.00000000000E+00 0.  1.
        -11    1    5    5    0    0 -0.30117224778E+03 -0.17475721617E+03  0.27493710496E+03  0.44366115349E+03  0.00000000000E+00 0. -1.
          1    1    6    6  503    0  0.13745380699E+03  0.21803886691E+03  0.19554856831E+02  0.25848963029E+03  0.00000000000E+00 0.  1.
         -1    1    6    6    0  503  0.12200886370E+03  0.85386787579E+02  0.53141520832E+02  0.15811732211E+03  0.00000000000E+00 0. -1.
<mgrwt>
<rscale>  0 0.14064975E+04</rscale>
<asrwt>0</asrwt>
<pdfrwt beam="1">  1        3 0.98335548E-01 0.14064975E+04</pdfrwt>
<pdfrwt beam="2">  1       -3 0.11903664E+00 0.14064975E+04</pdfrwt>
<totfact> 0.13373577E+00</totfact>
</mgrwt>
</event>
<event>
12    2  0.3518828E-008  0.2808221E+04  0.7818608E-02  0.8300721E-01
          1   -1    0    0  501    0  0.00000000000E+00  0.00000000000E+00  0.20308748663E+04  0.20308748663E+04  0.00000000000E+00 0. -1.
         -1   -1    0    0    0  501 -0.00000000000E+00 -0.00000000000E+00 -0.97077707196E+03  0.97077707196E+03  0.00000000000E+00 0.  1.
         23    2    1    2    0    0  0.33809949125E+03  0.34331689209E+03 -0.76380200603E+03  0.90758894952E+03  0.90257645054E+02 0.  0.
        254    2    1    2    0    0 -0.33809949125E+03 -0.34331689209E+03  0.18238998004E+04  0.20940629887E+04  0.90901681207E+03 0.  0.
         23    2    4    4    0    0  0.54780465759E+02  0.12085666402E+03  0.12249265806E+04  0.12356738028E+04  0.94007373848E+02 0.  0.
         23    2    4    4    0    0 -0.39287995701E+03 -0.46417355611E+03  0.59897321975E+03  0.85838918595E+03  0.90836808371E+02 0.  0.
          2    1    3    3  502    0  0.14755450904E+03  0.15435415074E+03 -0.25710453600E+03  0.33421591737E+03  0.00000000000E+00 0. -1.
         -2    1    3    3    0  502  0.19054498221E+03  0.18896274135E+03 -0.50669747003E+03  0.57337303215E+03  0.00000000000E+00 0.  1.
         11    1    5    5    0    0  0.57742977784E+02  0.50843394227E+02  0.37196419021E+03  0.37983767720E+03  0.00000000000E+00 0. -1.
        -11    1    5    5    0    0 -0.29625120258E+01  0.70013269792E+02  0.85296239041E+03  0.85583612560E+03  0.00000000000E+00 0.  1.
          2    1    6    6  503    0 -0.24254890114E+03 -0.21648663653E+03  0.31323789962E+03  0.45145809883E+03  0.00000000000E+00 0. -1.
         -2    1    6    6    0  503 -0.15033105587E+03 -0.24768691957E+03  0.28573532013E+03  0.40693108711E+03  0.00000000000E+00 0.  1.
<mgrwt>
<rscale>  0 0.28082213E+04</rscale>
<asrwt>0</asrwt>
<pdfrwt beam="1">  1        1 0.31244229E+00 0.28082213E+04</pdfrwt>
<pdfrwt beam="2">  1       -1 0.14935032E+00 0.28082213E+04</pdfrwt>
<totfact> 0.86709162E-01</totfact>
</mgrwt>
</event>
<event>
12    2  0.3518828E-008  0.1290980E+04  0.7818608E-02  0.9036749E-01
          2   -1    0    0  501    0  0.00000000000E+00  0.00000000000E+00  0.13691801425E+04  0.13691801425E+04  0.00000000000E+00 0. -1.
         -2   -1    0    0    0  501 -0.00000000000E+00 -0.00000000000E+00 -0.30431145262E+03  0.30431145262E+03  0.00000000000E+00 0.  1.
         23    2    1    2    0    0 -0.16460384002E+02  0.25746613491E+03  0.26412079362E+02  0.28648370617E+03  0.12171918951E+03 0.  0.
        254    2    1    2    0    0  0.16460384002E+02 -0.25746613491E+03  0.10384566105E+04  0.13870078889E+04  0.88251855346E+03 0.  0.
         23    2    4    4    0    0 -0.36716519636E+03  0.73264878856E+02  0.58791663108E+03  0.70294575308E+03  0.91152305350E+02 0.  0.
         23    2    4    4    0    0  0.38362558037E+03 -0.33073101377E+03  0.45053997942E+03  0.68406213586E+03  0.91668660279E+02 0.  0.
          1    1    3    3  502    0  0.34582891562E+02  0.23649181786E+02  0.21544120062E+02  0.47110607056E+02  0.00000000000E+00 0. -1.
         -1    1    3    3    0  502 -0.51043275564E+02  0.23381695313E+03  0.48679593008E+01  0.23937309911E+03  0.00000000000E+00 0.  1.
         11    1    5    5    0    0 -0.14430235970E+03 -0.47183276328E+01  0.27883655508E+03  0.31399881860E+03  0.00000000000E+00 0. -1.
        -11    1    5    5    0    0 -0.22286283666E+03  0.77983206488E+02  0.30908007600E+03  0.38894693448E+03  0.00000000000E+00 0.  1.
          3    1    6    6  503    0  0.14858664280E+02 -0.13527545766E+01 -0.31210185050E+00  0.14923379533E+02  0.00000000000E+00 0. -1.
         -3    1    6    6    0  503  0.36876691609E+03 -0.32937825919E+03  0.45085208127E+03  0.66913875632E+03  0.00000000000E+00 0.  1.
<mgrwt>
<rscale>  0 0.12909798E+04</rscale>
<asrwt>0</asrwt>
<pdfrwt beam="1">  1        2 0.21064310E+00 0.12909798E+04</pdfrwt>
<pdfrwt beam="2">  1       -2 0.46817147E-01 0.12909798E+04</pdfrwt>
<totfact> 0.63913103E+01</totfact>
</mgrwt>
</event>
<event>
12    2  0.3518828E-008  0.2377893E+04  0.7818608E-02  0.8447827E-01
         -2   -1    0    0    0  501 -0.00000000000E+00  0.00000000000E+00  0.39398948133E+03  0.39398948133E+03  0.00000000000E+00 0.  1.
          2   -1    0    0  501    0  0.00000000000E+00 -0.00000000000E+00 -0.35878983442E+04  0.35878983442E+04  0.00000000000E+00 0. -1.
         23    2    1    2    0    0 -0.23443928051E+03 -0.78134339692E+03 -0.35671246696E+03  0.89479157936E+03  0.89156638812E+02 0.  0.
        254    2    1    2    0    0  0.23443928051E+03  0.78134339692E+03 -0.28371963959E+04  0.30870962461E+04  0.90278489358E+03 0.  0.
         23    2    4    4    0    0  0.46256776952E+03  0.15411250582E+03 -0.16385323171E+04  0.17121132890E+04  0.93936971056E+02 0.  0.
         23    2    4    4    0    0 -0.22812848901E+03  0.62723089110E+03 -0.11986640788E+04  0.13749829571E+04  0.91221490380E+02 0.  0.
          1    1    3    3  502    0 -0.36761348066E+02 -0.11458738617E+03 -0.19513150130E+02  0.12191156142E+03  0.00000000000E+00 0. -1.
         -1    1    3    3    0  502 -0.19767793245E+03 -0.66675601075E+03 -0.33719931683E+03  0.77288001793E+03  0.00000000000E+00 0.  1.
         11    1    5    5    0    0  0.11321395069E+03  0.27988813053E+02 -0.27077568069E+03  0.29482238982E+03  0.00000000000E+00 0.  1.
        -11    1    5    5    0    0  0.34935381883E+03  0.12612369276E+03 -0.13677566364E+04  0.14172908992E+04  0.00000000000E+00 0. -1.
          1    1    6    6  503    0 -0.22978266197E+03  0.62354567728E+03 -0.11990894837E+04  0.13709211769E+04  0.00000000000E+00 0. -1.
         -1    1    6    6    0  503  0.16541729579E+01  0.36852138189E+01  0.42540490015E+00  0.40617802002E+01  0.00000000000E+00 0.  1.
<mgrwt>
<rscale>  0 0.23778934E+04</rscale>
<asrwt>0</asrwt>
<pdfrwt beam="1">  1        2 0.55198433E+00 0.23778934E+04</pdfrwt>
<pdfrwt beam="2">  1       -2 0.60613769E-01 0.23778934E+04</pdfrwt>
<totfact> 0.16123470E+00</totfact>
</mgrwt>
</event>
<event>
12    2  0.3518828E-008  0.1403861E+04  0.7818608E-02  0.8951029E-01
          2   -1    0    0  501    0  0.00000000000E+00  0.00000000000E+00  0.41648294498E+03  0.41648294498E+03  0.00000000000E+00 0. -1.
         -2   -1    0    0    0  501 -0.00000000000E+00 -0.00000000000E+00 -0.11830168798E+04  0.11830168798E+04  0.00000000000E+00 0.  1.
         23    2    1    2    0    0  0.16413106986E+03 -0.35941112032E+03 -0.28317125494E+03  0.49497855529E+03  0.93286918019E+02 0.  0.
        254    2    1    2    0    0 -0.16413106986E+03  0.35941112032E+03 -0.48336267991E+03  0.11045212695E+04  0.91115991626E+03 0.  0.
         23    2    4    4    0    0 -0.12513182480E+03  0.51559930101E+03  0.49285439983E+02  0.54055788243E+03  0.90956895753E+02 0.  0.
         23    2    4    4    0    0 -0.38999245054E+02 -0.15618818069E+03 -0.53264811990E+03  0.56396338710E+03  0.91787763089E+02 0.  0.
          4    1    3    3  502    0  0.11546984892E+03 -0.25440587101E+03 -0.24917054835E+03  0.37435490564E+03  0.00000000000E+00 0.  1.
         -4    1    3    3    0  502  0.48661220942E+02 -0.10500524931E+03 -0.34000706586E+02  0.12062364965E+03  0.00000000000E+00 0. -1.
         11    1    5    5    0    0 -0.13772487457E+03  0.42534604944E+03  0.37204641533E+02  0.44863302175E+03  0.00000000000E+00 0. -1.
        -11    1    5    5    0    0  0.12593049762E+02  0.90253251566E+02  0.12080798450E+02  0.91924860683E+02  0.00000000000E+00 0.  1.
          2    1    6    6  503    0  0.15896143268E+02 -0.11647577259E+03 -0.33946461043E+03  0.35924297447E+03  0.00000000000E+00 0. -1.
         -2    1    6    6    0  503 -0.54895388322E+02 -0.39712408101E+02 -0.19318350946E+03  0.20472041262E+03  0.00000000000E+00 0.  1.
<mgrwt>
<rscale>  0 0.14038609E+04</rscale>
<asrwt>0</asrwt>
<pdfrwt beam="1">  1        2 0.64074298E-01 0.14038609E+04</pdfrwt>
<pdfrwt beam="2">  1       -2 0.18200260E+00 0.14038609E+04</pdfrwt>
<totfact> 0.12968555E+01</totfact>
</mgrwt>
</event>
<event>
12    2  0.3518828E-008  0.2051497E+04  0.7818608E-02  0.8582915E-01
         -2   -1    0    0    0  501 -0.00000000000E+00  0.00000000000E+00  0.73301244850E+03  0.73301244850E+03  0.00000000000E+00 0.  1.
          2   -1    0    0  501    0  0.00000000000E+00 -0.00000000000E+00 -0.14353919715E+04  0.14353919715E+04  0.00000000000E+00 0. -1.
         23    2    1    2    0    0 -0.72115212069E+03 -0.10503489339E+03 -0.71128366595E+03  0.10220896700E+04  0.87465022487E+02 0.  0.
        254    2    1    2    0    0  0.72115212069E+03  0.10503489339E+03  0.89041429820E+01  0.11463147499E+04  0.88479687619E+03 0.  0.
         23    2    4    4    0    0  0.63663239939E+03 -0.25567599026E+03 -0.18608136759E+03  0.71674047177E+03  0.91758403177E+02 0.  0.
         23    2    4    4    0    0  0.84519721301E+02  0.36071088364E+03  0.19498551057E+03  0.42957427816E+03  0.96222587036E+02 0.  0.
          1    1    3    3  502    0 -0.71380142732E+03 -0.11120161758E+03 -0.70904593008E+03  0.10122373281E+04  0.00000000000E+00 0. -1.
         -1    1    3    3    0  502 -0.73506933749E+01  0.61667241953E+01 -0.22377358687E+01  0.98523419658E+01  0.00000000000E+00 0.  1.
         11    1    5    5    0    0  0.54499975330E+03 -0.22402452707E+03 -0.12562499743E+03  0.60248930265E+03  0.00000000000E+00 0. -1.
        -11    1    5    5    0    0  0.91632646090E+02 -0.31651463182E+02 -0.60456370161E+02  0.11425116911E+03  0.00000000000E+00 0.  1.
          4    1    6    6  503    0  0.82130080476E+02  0.28555231547E+03  0.11186988534E+03  0.31749070259E+03  0.00000000000E+00 0. -1.
         -4    1    6    6    0  503  0.23896408246E+01  0.75158568176E+02  0.83115625236E+02  0.11208357557E+03  0.00000000000E+00 0.  1.
<mgrwt>
<rscale>  0 0.20514972E+04</rscale>
<asrwt>0</asrwt>
<pdfrwt beam="1">  1        2 0.22082953E+00 0.20514972E+04</pdfrwt>
<pdfrwt beam="2">  1       -2 0.11277115E+00 0.20514972E+04</pdfrwt>
<totfact> 0.79048186E+00</totfact>
</mgrwt>
</event>
<event>
12    2  0.3518828E-008  0.1625691E+04  0.7818608E-02  0.8804919E-01
         -1   -1    0    0    0  501 -0.00000000000E+00  0.00000000000E+00  0.21655075370E+03  0.21655075370E+03  0.00000000000E+00 0.  1.
          1   -1    0    0  501    0  0.00000000000E+00 -0.00000000000E+00 -0.30510984419E+04  0.30510984419E+04  0.00000000000E+00 0. -1.
         23    2    1    2    0    0  0.10771071459E+03 -0.57591288987E+02 -0.21086951787E+04  0.21141777593E+04  0.90740766140E+02 0.  0.
        254    2    1    2    0    0 -0.10771071459E+03  0.57591288987E+02 -0.72585250945E+03  0.11534714362E+04  0.88809691709E+03 0.  0.
         23    2    4    4    0    0  0.32214092440E+03 -0.19497321660E+03 -0.35895681106E+03  0.52769144590E+03  0.88424767477E+02 0.  0.
         23    2    4    4    0    0 -0.42985163899E+03  0.25256450559E+03 -0.36689569838E+03  0.62577999034E+03  0.91798048930E+02 0.  0.
          2    1    3    3  502    0  0.98889789231E+02 -0.74741785821E+02 -0.14783939101E+04  0.14835815038E+04  0.00000000000E+00 0. -1.
         -2    1    3    3    0  502  0.88209253554E+01  0.17150496834E+02 -0.63030126864E+03  0.63059625555E+03  0.00000000000E+00 0.  1.
         11    1    5    5    0    0  0.17040200725E+03 -0.13061959556E+03 -0.15171587578E+03  0.26289927687E+03  0.00000000000E+00 0.  1.
        -11    1    5    5    0    0  0.15173891715E+03 -0.64353621044E+02 -0.20724093529E+03  0.26479216903E+03  0.00000000000E+00 0. -1.
          1    1    6    6  503    0 -0.33433017650E+03  0.14930429361E+03 -0.27112483457E+03  0.45560631573E+03  0.00000000000E+00 0. -1.
         -1    1    6    6    0  503 -0.95521462485E+02  0.10326021198E+03 -0.95770863811E+02  0.17017367461E+03  0.00000000000E+00 0.  1.
<mgrwt>
<rscale>  0 0.16256908E+04</rscale>
<asrwt>0</asrwt>
<pdfrwt beam="1">  1        1 0.46939973E+00 0.16256908E+04</pdfrwt>
<pdfrwt beam="2">  1       -1 0.33315503E-01 0.16256908E+04</pdfrwt>
<totfact> 0.44730697E+00</totfact>
</mgrwt>
</event>
<event>
12    2  0.3518828E-008  0.1652395E+04  0.7818608E-02  0.8788991E-01
         -1   -1    0    0    0  501 -0.00000000000E+00  0.00000000000E+00  0.73494898250E+03  0.73494898250E+03  0.00000000000E+00 0.  1.
          1   -1    0    0  501    0  0.00000000000E+00 -0.00000000000E+00 -0.92877492953E+03  0.92877492953E+03  0.00000000000E+00 0. -1.
         23    2    1    2    0    0  0.16396626157E+03 -0.14628364309E+03 -0.62566605125E+03  0.66902978783E+03  0.88651058410E+02 0.  0.
        254    2    1    2    0    0 -0.16396626157E+03  0.14628364309E+03  0.43184010422E+03  0.99469412420E+03  0.86870402666E+03 0.  0.
         23    2    4    4    0    0 -0.43256247417E+03 -0.11842761328E+03  0.39586920650E+03  0.60507019904E+03  0.90896223567E+02 0.  0.
         23    2    4    4    0    0  0.26859621261E+03  0.26471125636E+03  0.35970897720E+02  0.38962392516E+03  0.91087446452E+02 0.  0.
          3    1    3    3  502    0  0.13416879187E+03 -0.10420724488E+03 -0.56194231590E+03  0.58706011702E+03  0.00000000000E+00 0. -1.
         -3    1    3    3    0  502  0.29797469692E+02 -0.42076398210E+02 -0.63723735348E+02  0.81969670813E+02  0.00000000000E+00 0.  1.
         11    1    5    5    0    0 -0.14017200854E+03 -0.16600802490E+02  0.77722321899E+02  0.16113515427E+03  0.00000000000E+00 0.  1.
        -11    1    5    5    0    0 -0.29239046564E+03 -0.10182681079E+03  0.31814688460E+03  0.44393504477E+03  0.00000000000E+00 0. -1.
          2    1    6    6  503    0  0.11996903576E+03  0.17967028156E+03  0.85932742372E+01  0.21621245102E+03  0.00000000000E+00 0. -1.
         -2    1    6    6    0  503  0.14862717685E+03  0.85040974808E+02  0.27377623483E+02  0.17341147414E+03  0.00000000000E+00 0.  1.
<mgrwt>
<rscale>  0 0.16523949E+04</rscale>
<asrwt>0</asrwt>
<pdfrwt beam="1">  1        1 0.14288845E+00 0.16523949E+04</pdfrwt>
<pdfrwt beam="2">  1       -1 0.11306907E+00 0.16523949E+04</pdfrwt>
<totfact> 0.11776583E+01</totfact>
</mgrwt>
</event>
<event>
12    2  0.3518828E-008  0.1984844E+04  0.7818608E-02  0.8613740E-01
          1   -1    0    0  501    0  0.00000000000E+00  0.00000000000E+00  0.25909237661E+04  0.25909237661E+04  0.00000000000E+00 0. -1.
         -1   -1    0    0    0  501 -0.00000000000E+00 -0.00000000000E+00 -0.38013514186E+03  0.38013514186E+03  0.00000000000E+00 0.  1.
         23    2    1    2    0    0  0.24775028969E+03  0.58382746197E+03  0.15756927986E+04  0.17009204474E+04  0.89932539244E+02 0.  0.
        254    2    1    2    0    0 -0.24775028969E+03 -0.58382746197E+03  0.63509582566E+03  0.12701384605E+04  0.89870478453E+03 0.  0.
         23    2    4    4    0    0 -0.11415046538E+03 -0.15427202953E+03 -0.21586650310E+03  0.30319469055E+03  0.92187230017E+02 0.  0.
         23    2    4    4    0    0 -0.13359982430E+03 -0.42955543245E+03  0.85096232876E+03  0.96694376998E+03  0.92068380690E+02 0.  0.
          2    1    3    3  502    0  0.57190146515E+02  0.22543735984E+03  0.64134736064E+03  0.68221635356E+03  0.00000000000E+00 0. -1.
         -2    1    3    3    0  502  0.19056014317E+03  0.35839010213E+03  0.93434543794E+03  0.10187040939E+04  0.00000000000E+00 0.  1.
         11    1    5    5    0    0 -0.10233237264E+03 -0.88889123745E+02 -0.18649309568E+03  0.23054905236E+03  0.00000000000E+00 0.  1.
        -11    1    5    5    0    0 -0.11818092740E+02 -0.65382905781E+02 -0.29373407424E+02  0.72645638190E+02  0.00000000000E+00 0. -1.
          1    1    6    6  503    0 -0.10289446954E+03 -0.32267562132E+03  0.71605521335E+03  0.79211230077E+03  0.00000000000E+00 0. -1.
         -1    1    6    6    0  503 -0.30705354759E+02 -0.10687981113E+03  0.13490711541E+03  0.17483146921E+03  0.00000000000E+00 0.  1.
<mgrwt>
<rscale>  0 0.19848437E+04</rscale>
<asrwt>0</asrwt>
<pdfrwt beam="1">  1        1 0.39860365E+00 0.19848437E+04</pdfrwt>
<pdfrwt beam="2">  1       -1 0.58482331E-01 0.19848437E+04</pdfrwt>
<totfact> 0.32245452E+00</totfact>
</mgrwt>
</event>
<event>
12    2  0.3518828E-008  0.2236319E+04  0.7818608E-02  0.8503462E-01
          1   -1    0    0  501    0  0.00000000000E+00  0.00000000000E+00  0.98138962664E+03  0.98138962664E+03  0.00000000000E+00 0. -1.
         -1   -1    0    0    0  501 -0.00000000000E+00 -0.00000000000E+00 -0.12739900682E+04  0.12739900682E+04  0.00000000000E+00 0.  1.
         23    2    1    2    0    0  0.56986869049E+03  0.41139783546E+03 -0.74877324009E+03  0.10314059375E+04  0.95594661854E+02 0.  0.
        254    2    1    2    0    0 -0.56986869049E+03 -0.41139783546E+03  0.45617279856E+03  0.12239737573E+04  0.89219932361E+03 0.  0.
         23    2    4    4    0    0 -0.72404812877E+03 -0.54209648499E+03  0.37055664364E+03  0.98146828629E+03  0.88619856826E+02 0.  0.
         23    2    4    4    0    0  0.15417943828E+03  0.13069864953E+03  0.85616154923E+02  0.24250547104E+03  0.10307929627E+03 0.  0.
          1    1    3    3  502    0  0.22747778854E+03  0.11818966682E+03 -0.23311989224E+03  0.34649650183E+03  0.00000000000E+00 0. -1.
         -1    1    3    3    0  502  0.34239090194E+03  0.29320816864E+03 -0.51565334784E+03  0.68490943564E+03  0.00000000000E+00 0.  1.
         11    1    5    5    0    0 -0.31973487605E+03 -0.27397942350E+03  0.20945683319E+03  0.47028425492E+03  0.00000000000E+00 0.  1.
        -11    1    5    5    0    0 -0.40431325272E+03 -0.26811706150E+03  0.16109981045E+03  0.51118403136E+03  0.00000000000E+00 0. -1.
          2    1    6    6  503    0 -0.14311510985E+02  0.17660803303E+02  0.12425352245E+01  0.22765482946E+02  0.00000000000E+00 0.  1.
         -2    1    6    6    0  503  0.16849094927E+03  0.11303784623E+03  0.84373619699E+02  0.21973998809E+03  0.00000000000E+00 0. -1.
<mgrwt>
<rscale>  0 0.22363190E+04</rscale>
<asrwt>0</asrwt>
<pdfrwt beam="1">  1        1 0.15098302E+00 0.22363190E+04</pdfrwt>
<pdfrwt beam="2">  1       -1 0.19599847E+00 0.22363190E+04</pdfrwt>
<totfact> 0.22817155E+00</totfact>
</mgrwt>
</event>
<event>
12    2  0.3518828E-008  0.1713937E+04  0.7818608E-02  0.8753455E-01
         -1   -1    0    0    0  501 -0.00000000000E+00  0.00000000000E+00  0.13109392752E+04  0.13109392752E+04  0.00000000000E+00 0.  1.
          1   -1    0    0  501    0  0.00000000000E+00 -0.00000000000E+00 -0.56020544203E+03  0.56020544203E+03  0.00000000000E+00 0. -1.
         23    2    1    2    0    0 -0.29140726942E+03  0.35102957177E+03 -0.19831835845E+03  0.50716842566E+03  0.98740486951E+02 0.  0.
        254    2    1    2    0    0  0.29140726942E+03 -0.35102957177E+03  0.94905219158E+03  0.13639762915E+04  0.86694365709E+03 0.  0.
         23    2    4    4    0    0  0.36506180002E+03 -0.27091729212E+03  0.65123323087E+02  0.46765129470E+03  0.88263181591E+02 0.  0.
         23    2    4    4    0    0 -0.73654530599E+02 -0.80112279655E+02  0.88392886850E+03  0.89632499683E+03  0.10112016684E+03 0.  0.
          4    1    3    3  502    0 -0.27969112247E+03  0.28355571017E+03 -0.16764126916E+03  0.43212794388E+03  0.00000000000E+00 0. -1.
         -4    1    3    3    0  502 -0.11716146951E+02  0.67473861602E+02 -0.30677089292E+02  0.75040481784E+02  0.00000000000E+00 0.  1.
         11    1    5    5    0    0  0.15131540786E+03 -0.68002413784E+02  0.46752908667E+02  0.17235578147E+03  0.00000000000E+00 0.  1.
        -11    1    5    5    0    0  0.21374639215E+03 -0.20291487833E+03  0.18370414420E+02  0.29529551323E+03  0.00000000000E+00 0. -1.
          3    1    6    6  503    0 -0.19432335161E+02 -0.22174063952E+02  0.62059050391E+03  0.62129049430E+03  0.00000000000E+00 0. -1.
         -3    1    6    6    0  503 -0.54222195438E+02 -0.57938215702E+02  0.26333836458E+03  0.27503450252E+03  0.00000000000E+00 0.  1.
<mgrwt>
<rscale>  0 0.17139374E+04</rscale>
<asrwt>0</asrwt>
<pdfrwt beam="1">  1        1 0.86185453E-01 0.17139374E+04</pdfrwt>
<pdfrwt beam="2">  1       -1 0.20168297E+00 0.17139374E+04</pdfrwt>
<totfact> 0.52628655E+00</totfact>
</mgrwt>
</event>
<event>
12    2  0.3518828E-008  0.1584033E+04  0.7818608E-02  0.8830417E-01
         -2   -1    0    0    0  501 -0.00000000000E+00  0.00000000000E+00  0.45091680084E+03  0.45091680084E+03  0.00000000000E+00 0.  1.
          2   -1    0    0  501    0  0.00000000000E+00 -0.00000000000E+00 -0.13911443154E+04  0.13911443154E+04  0.00000000000E+00 0. -1.
         23    2    1    2    0    0  0.52613500141E+03  0.42183148162E+02 -0.25488081264E+03  0.59380411853E+03  0.95087564050E+02 0.  0.
        254    2    1    2    0    0 -0.52613500141E+03 -0.42183148162E+02 -0.68534670189E+03  0.12482569977E+04  0.89991553647E+03 0.  0.
         23    2    4    4    0    0 -0.95977966130E+02 -0.10659397677E+03  0.19787244317E+03  0.26051271197E+03  0.90218199177E+02 0.  0.
         23    2    4    4    0    0 -0.43015703528E+03  0.64410828611E+02 -0.88321914506E+03  0.98774428571E+03  0.79867927964E+02 0.  0.
          4    1    3    3  502    0  0.25425880258E+03  0.12058370423E+02 -0.71198347404E+02  0.26431448629E+03  0.00000000000E+00 0. -1.
         -4    1    3    3    0  502  0.27187619883E+03  0.30124777739E+02 -0.18368246523E+03  0.32948963224E+03  0.00000000000E+00 0.  1.
         11    1    5    5    0    0 -0.11614509381E+02 -0.56090262335E+02  0.26897019598E+02  0.63280834541E+02  0.00000000000E+00 0.  1.
        -11    1    5    5    0    0 -0.84363456748E+02 -0.50503714439E+02  0.17097542358E+03  0.19723187743E+03  0.00000000000E+00 0. -1.
          1    1    6    6  503    0 -0.35776037769E+03  0.46750379066E+02 -0.78928113132E+03  0.86783799758E+03  0.00000000000E+00 0. -1.
         -1    1    6    6    0  503 -0.72396657590E+02  0.17660449545E+02 -0.93938013737E+02  0.11990628813E+03  0.00000000000E+00 0.  1.
<mgrwt>
<rscale>  0 0.15840333E+04</rscale>
<asrwt>0</asrwt>
<pdfrwt beam="1">  1        2 0.21402220E+00 0.15840333E+04</pdfrwt>
<pdfrwt beam="2">  1       -2 0.69371817E-01 0.15840333E+04</pdfrwt>
<totfact> 0.26649107E+01</totfact>
</mgrwt>
</event>
<event>
12    2  0.3518828E-008  0.1364286E+04  0.7818608E-02  0.8980084E-01
         -1   -1    0    0    0  501 -0.00000000000E+00  0.00000000000E+00  0.50408349230E+03  0.50408349230E+03  0.00000000000E+00 0.  1.
          1   -1    0    0  501    0  0.00000000000E+00 -0.00000000000E+00 -0.92309867476E+03  0.92309867476E+03  0.00000000000E+00 0. -1.
         23    2    1    2    0    0 -0.29586725637E+03 -0.63497971110E+02 -0.35174637660E+03  0.47260290173E+03  0.89769502323E+02 0.  0.
        254    2    1    2    0    0  0.29586725637E+03  0.63497971110E+02 -0.67268805858E+02  0.95457926533E+03  0.90284387123E+03 0.  0.
         23    2    4    4    0    0  0.35882268499E+03 -0.28486504509E+03  0.19279382517E+03  0.50552941783E+03  0.92134250401E+02 0.  0.
         23    2    4    4    0    0 -0.62955428615E+02  0.34836301620E+03 -0.26006263103E+03  0.44904984749E+03  0.93236347154E+02 0.  0.
          4    1    3    3  502    0 -0.24433703632E+03 -0.27930510004E+02 -0.23515454838E+03  0.34026219644E+03  0.00000000000E+00 0. -1.
         -4    1    3    3    0  502 -0.51530220055E+02 -0.35567461106E+02 -0.11659182823E+03  0.13234070529E+03  0.00000000000E+00 0.  1.
         11    1    5    5    0    0  0.36824502137E+02 -0.69222736923E+02  0.47367596997E+02  0.91605242809E+02  0.00000000000E+00 0. -1.
        -11    1    5    5    0    0  0.32199818285E+03 -0.21564230816E+03  0.14542622817E+03  0.41392417502E+03  0.00000000000E+00 0.  1.
          2    1    6    6  503    0 -0.29188366096E+02  0.28237054639E+03 -0.16445700950E+03  0.32807193443E+03  0.00000000000E+00 0. -1.
         -2    1    6    6    0  503 -0.33767062520E+02  0.65992469805E+02 -0.95605621527E+02  0.12097791307E+03  0.00000000000E+00 0.  1.
<mgrwt>
<rscale>  0 0.13642856E+04</rscale>
<asrwt>0</asrwt>
<pdfrwt beam="1">  1        1 0.14201518E+00 0.13642856E+04</pdfrwt>
<pdfrwt beam="2">  1       -1 0.77551306E-01 0.13642856E+04</pdfrwt>
<totfact> 0.28395872E+01</totfact>
</mgrwt>
</event>
<event>
12    2  0.3518828E-008  0.1516731E+04  0.7818608E-02  0.8873402E-01
          1   -1    0    0  501    0  0.00000000000E+00  0.00000000000E+00  0.20203910013E+04  0.20203910013E+04  0.00000000000E+00 0. -1.
         -1   -1    0    0    0  501 -0.00000000000E+00 -0.00000000000E+00 -0.28465698622E+03  0.28465698622E+03  0.00000000000E+00 0.  1.
         23    2    1    2    0    0 -0.46682293888E+03  0.14818910947E+03  0.41387969107E+03  0.64865957123E+03  0.97873245751E+02 0.  0.
        254    2    1    2    0    0  0.46682293888E+03 -0.14818910947E+03  0.13218543240E+04  0.16563884163E+04  0.86973562839E+03 0.  0.
         23    2    4    4    0    0 -0.21800410025E+03 -0.11489025542E+03  0.61014376282E+03  0.66402600854E+03  0.89048134177E+02 0.  0.
         23    2    4    4    0    0  0.68482703912E+03 -0.33298854047E+02  0.71171056117E+03  0.99236240773E+03  0.90301374305E+02 0.  0.
          2    1    3    3  502    0 -0.38860944832E+02  0.15608897734E+02  0.51327472062E+01  0.42191892771E+02  0.00000000000E+00 0. -1.
         -2    1    3    3    0  502 -0.42796199404E+03  0.13258021174E+03  0.40874694386E+03  0.60646767845E+03  0.00000000000E+00 0.  1.
         11    1    5    5    0    0  0.22679835006E+01  0.64859430936E+00 -0.21165191723E+01  0.31692392059E+01  0.00000000000E+00 0.  1.
        -11    1    5    5    0    0 -0.22027208375E+03 -0.11553884973E+03  0.61226028199E+03  0.66085676934E+03  0.00000000000E+00 0. -1.
          1    1    6    6  503    0  0.52081806442E+03 -0.43683755535E+02  0.49028843237E+03  0.71661877846E+03  0.00000000000E+00 0. -1.
         -1    1    6    6    0  503  0.16400897470E+03  0.10384901488E+02  0.22142212880E+03  0.27574362927E+03  0.00000000000E+00 0.  1.
<mgrwt>
<rscale>  0 0.15167312E+04</rscale>
<asrwt>0</asrwt>
<pdfrwt beam="1">  1        1 0.31082937E+00 0.15167312E+04</pdfrwt>
<pdfrwt beam="2">  1       -1 0.43793384E-01 0.15167312E+04</pdfrwt>
<totfact> 0.14375960E+01</totfact>
</mgrwt>
</event>
<event>
12    2  0.3518828E-008  0.1941197E+04  0.7818608E-02  0.8634618E-01
         -2   -1    0    0    0  501 -0.00000000000E+00  0.00000000000E+00  0.58535039603E+03  0.58535039603E+03  0.00000000000E+00 0.  1.
          2   -1    0    0  501    0  0.00000000000E+00 -0.00000000000E+00 -0.16093971169E+04  0.16093971169E+04  0.00000000000E+00 0. -1.
         23    2    1    2    0    0  0.12478364882E+02 -0.73675632502E+03 -0.58586910380E+03  0.94556678976E+03  0.88816412121E+02 0.  0.
        254    2    1    2    0    0 -0.12478364882E+02  0.73675632502E+03 -0.43817761710E+03  0.12491807232E+04  0.90856329609E+03 0.  0.
         23    2    4    4    0    0  0.28103318830E+03  0.68430274058E+03 -0.54172888805E+03  0.92105998471E+03  0.87357962426E+02 0.  0.
         23    2    4    4    0    0 -0.29351155318E+03  0.52453584444E+02  0.10355127095E+03  0.32812073847E+03  0.89665728837E+02 0.  0.
          3    1    3    3  502    0  0.44103831533E+02 -0.43105611357E+03 -0.37271593240E+03  0.57155199875E+03  0.00000000000E+00 0. -1.
         -3    1    3    3    0  502 -0.31625466651E+02 -0.30570021145E+03 -0.21315317140E+03  0.37401479101E+03  0.00000000000E+00 0.  1.
         11    1    5    5    0    0  0.24980558811E+03  0.54577329856E+03 -0.40616061870E+03  0.72473289801E+03  0.00000000000E+00 0. -1.
        -11    1    5    5    0    0  0.31227600198E+02  0.13852944202E+03 -0.13556826935E+03  0.19632708670E+03  0.00000000000E+00 0.  1.
          3    1    6    6  503    0 -0.33526105843E+02  0.15097718429E+01 -0.16339214070E+02  0.37326252161E+02  0.00000000000E+00 0. -1.
         -3    1    6    6    0  503 -0.25998544734E+03  0.50943812601E+02  0.11989048502E+03  0.29079448631E+03  0.00000000000E+00 0.  1.
<mgrwt>
<rscale>  0 0.19411968E+04</rscale>
<asrwt>0</asrwt>
<pdfrwt beam="1">  1        2 0.24759955E+00 0.19411968E+04</pdfrwt>
<pdfrwt beam="2">  1       -2 0.90053908E-01 0.19411968E+04</pdfrwt>
<totfact> 0.10854148E+01</totfact>
</mgrwt>
</event>
<event>
12    2  0.3518828E-008  0.1583089E+04  0.7818608E-02  0.8831005E-01
          2   -1    0    0  501    0  0.00000000000E+00  0.00000000000E+00  0.19121409460E+04  0.19121409460E+04  0.00000000000E+00 0. -1.
         -2   -1    0    0    0  501 -0.00000000000E+00 -0.00000000000E+00 -0.32766566039E+03  0.32766566039E+03  0.00000000000E+00 0.  1.
         23    2    1    2    0    0  0.40713478553E+03 -0.16392645523E+03  0.11725610673E+03  0.46346015478E+03  0.91737147289E+02 0.  0.
        254    2    1    2    0    0 -0.40713478553E+03  0.16392645523E+03  0.14672191789E+04  0.17763464516E+04  0.90002443353E+03 0.  0.
         23    2    4    4    0    0 -0.66600916475E+03  0.12833098378E+03  0.79086105454E+03  0.10458075567E+04  0.90637680925E+02 0.  0.
         23    2    4    4    0    0  0.25887437922E+03  0.35595471450E+02  0.67635812434E+03  0.73053889487E+03  0.89127901090E+02 0.  0.
          3    1    3    3  502    0  0.93082521574E+02  0.21300082026E+01  0.22425203658E+02  0.95769423704E+02  0.00000000000E+00 0. -1.
         -3    1    3    3    0  502  0.31405226396E+03 -0.16605646343E+03  0.94830903072E+02  0.36769073108E+03  0.00000000000E+00 0.  1.
         11    1    5    5    0    0 -0.33127956977E+03  0.10334847874E+03  0.43774855642E+03  0.55861512695E+03  0.00000000000E+00 0. -1.
        -11    1    5    5    0    0 -0.33472959499E+03  0.24982505042E+02  0.35311249812E+03  0.48719242979E+03  0.00000000000E+00 0.  1.
          3    1    6    6  503    0  0.15958992526E+02 -0.21278305824E+02  0.66960033031E+02  0.72049300931E+02  0.00000000000E+00 0. -1.
         -3    1    6    6    0  503  0.24291538670E+03  0.56873777274E+02  0.60939809130E+03  0.65848959394E+03  0.00000000000E+00 0.  1.
<mgrwt>
<rscale>  0 0.15830893E+04</rscale>
<asrwt>0</asrwt>
<pdfrwt beam="1">  1        2 0.29417552E+00 0.15830893E+04</pdfrwt>
<pdfrwt beam="2">  1       -2 0.50410103E-01 0.15830893E+04</pdfrwt>
<totfact> 0.26718186E+01</totfact>
</mgrwt>
</event>
<event>
12    2  0.3518828E-008  0.1770493E+04  0.7818608E-02  0.8722150E-01
          2   -1    0    0  501    0  0.00000000000E+00  0.00000000000E+00  0.66801804071E+03  0.66801804071E+03  0.00000000000E+00 0. -1.
         -2   -1    0    0    0  501 -0.00000000000E+00 -0.00000000000E+00 -0.11731138019E+04  0.11731138019E+04  0.00000000000E+00 0.  1.
         23    2    1    2    0    0 -0.31536375770E+03 -0.19919402199E+03 -0.74298486390E+03  0.83640625150E+03  0.91740675290E+02 0.  0.
        254    2    1    2    0    0  0.31536375770E+03  0.19919402199E+03  0.23788910274E+03  0.10047255911E+04  0.90208077802E+03 0.  0.
         23    2    4    4    0    0  0.83788071908E+02  0.46108605653E+03 -0.12382267503E+03  0.49339743778E+03  0.92131342338E+02 0.  0.
         23    2    4    4    0    0  0.23157568579E+03 -0.26189203454E+03  0.36171177777E+03  0.51132815329E+03  0.91686063084E+02 0.  0.
          1    1    3    3  502    0 -0.11173783150E+02 -0.38462943393E+02 -0.74643856745E+02  0.84711019320E+02  0.00000000000E+00 0. -1.
         -1    1    3    3    0  502 -0.30418997455E+03 -0.16073107860E+03 -0.66834100715E+03  0.75169523218E+03  0.00000000000E+00 0.  1.
         11    1    5    5    0    0  0.10669262250E+02  0.88576647824E+01  0.88751727356E+01  0.16463902133E+02  0.00000000000E+00 0.  1.
        -11    1    5    5    0    0  0.73118809658E+02  0.45222839174E+03 -0.13269784776E+03  0.47693353565E+03  0.00000000000E+00 0. -1.
          3    1    6    6  503    0  0.21193867871E+03 -0.19242080722E+03  0.26077040868E+03  0.38722729324E+03  0.00000000000E+00 0. -1.
         -3    1    6    6    0  503  0.19637007086E+02 -0.69471227320E+02  0.10094136909E+03  0.12410086005E+03  0.00000000000E+00 0.  1.
<mgrwt>
<rscale>  0 0.17704928E+04</rscale>
<asrwt>0</asrwt>
<pdfrwt beam="1">  1        2 0.10277201E+00 0.17704928E+04</pdfrwt>
<pdfrwt beam="2">  1       -2 0.18047905E+00 0.17704928E+04</pdfrwt>
<totfact> 0.73944420E+00</totfact>
</mgrwt>
</event>
<event>
12    2  0.3518828E-008  0.1560341E+04  0.7818608E-02  0.8845289E-01
          1   -1    0    0  501    0  0.00000000000E+00  0.00000000000E+00  0.10053610203E+04  0.10053610203E+04  0.00000000000E+00 0. -1.
         -1   -1    0    0    0  501 -0.00000000000E+00 -0.00000000000E+00 -0.60542058556E+03  0.60542058556E+03  0.00000000000E+00 0.  1.
         23    2    1    2    0    0  0.24723474691E+03 -0.24767231115E+03  0.57990774541E+03  0.68347383050E+03  0.91525351705E+02 0.  0.
        254    2    1    2    0    0 -0.24723474691E+03  0.24767231115E+03 -0.17996731066E+03  0.92730777537E+03  0.83966950854E+03 0.  0.
         23    2    4    4    0    0 -0.35220879390E+03 -0.21587956346E+03 -0.12353097261E+03  0.44055478638E+03  0.90407954241E+02 0.  0.
         23    2    4    4    0    0  0.10497404699E+03  0.46355187460E+03 -0.56436338053E+02  0.48675298899E+03  0.88563655345E+02 0.  0.
          4    1    3    3  502    0  0.19571741878E+03 -0.14072552846E+03  0.35409353134E+03  0.42835874137E+03  0.00000000000E+00 0. -1.
         -4    1    3    3    0  502  0.51517328133E+02 -0.10694678269E+03  0.22581421407E+03  0.25511508913E+03  0.00000000000E+00 0.  1.
         11    1    5    5    0    0 -0.21767419857E+02 -0.43473154143E+02 -0.26703575508E+02  0.55469060234E+02  0.00000000000E+00 0. -1.
        -11    1    5    5    0    0 -0.33044137405E+03 -0.17240640931E+03 -0.96827397102E+02  0.38508572615E+03  0.00000000000E+00 0.  1.
          4    1    6    6  503    0  0.33781011005E+02  0.33323014488E+03 -0.41694966766E+02  0.33752326796E+03  0.00000000000E+00 0. -1.
         -4    1    6    6    0  503  0.71193035988E+02  0.13032172972E+03 -0.14741371287E+02  0.14922972103E+03  0.00000000000E+00 0.  1.
<mgrwt>
<rscale>  0 0.15603413E+04</rscale>
<asrwt>0</asrwt>
<pdfrwt beam="1">  1        1 0.15467093E+00 0.15603413E+04</pdfrwt>
<pdfrwt beam="2">  1       -1 0.93141629E-01 0.15603413E+04</pdfrwt>
<totfact> 0.16149959E+01</totfact>
</mgrwt>
</event>
<event>
12    2  0.3518828E-008  0.1582624E+04  0.7818608E-02  0.8831294E-01
         -2   -1    0    0    0  501 -0.00000000000E+00  0.00000000000E+00  0.86835782195E+03  0.86835782195E+03  0.00000000000E+00 0.  1.
          2   -1    0    0  501    0  0.00000000000E+00 -0.00000000000E+00 -0.72110256429E+03  0.72110256429E+03  0.00000000000E+00 0. -1.
         23    2    1    2    0    0  0.39475474356E+03  0.22703383610E+03 -0.21775920933E+03  0.51388151661E+03  0.96330003471E+02 0.  0.
        254    2    1    2    0    0 -0.39475474356E+03 -0.22703383610E+03  0.36501446699E+03  0.10755788696E+04  0.90347035003E+03 0.  0.
         23    2    4    4    0    0 -0.22433037803E+03  0.29513910829E+03 -0.45289401018E+02  0.38384188360E+03  0.88612922367E+02 0.  0.
         23    2    4    4    0    0 -0.17042436553E+03 -0.52217294439E+03  0.41030386801E+03  0.69173698604E+03  0.91878972184E+02 0.  0.
          4    1    3    3  502    0  0.36822828095E+03  0.19335764069E+03 -0.16893435160E+03  0.44890762887E+03  0.00000000000E+00 0. -1.
         -4    1    3    3    0  502  0.26526462605E+02  0.33676195410E+02 -0.48824857731E+02  0.64973887740E+02  0.00000000000E+00 0.  1.
         11    1    5    5    0    0 -0.10772844335E+03  0.14723064520E+03 -0.66790023185E+02  0.19427606026E+03  0.00000000000E+00 0.  1.
        -11    1    5    5    0    0 -0.11660193468E+03  0.14790846308E+03  0.21500622167E+02  0.18956582333E+03  0.00000000000E+00 0. -1.
          4    1    6    6  503    0 -0.70736016214E+02 -0.34667813030E+03  0.23865557814E+03  0.42678542032E+03  0.00000000000E+00 0. -1.
         -4    1    6    6    0  503 -0.99688349318E+02 -0.17549481408E+03  0.17164828987E+03  0.26495156571E+03  0.00000000000E+00 0.  1.
<mgrwt>
<rscale>  0 0.15826245E+04</rscale>
<asrwt>0</asrwt>
<pdfrwt beam="1">  1        2 0.11093886E+00 0.15826245E+04</pdfrwt>
<pdfrwt beam="2">  1       -2 0.13359351E+00 0.15826245E+04</pdfrwt>
<totfact> 0.15344529E+01</totfact>
</mgrwt>
</event>
<event>
12    2  0.3518828E-008  0.1275432E+04  0.7818608E-02  0.9049278E-01
          2   -1    0    0  501    0  0.00000000000E+00  0.00000000000E+00  0.21270792577E+04  0.21270792577E+04  0.00000000000E+00 0. -1.
         -2   -1    0    0    0  501 -0.00000000000E+00 -0.00000000000E+00 -0.19119254771E+03  0.19119254771E+03  0.00000000000E+00 0.  1.
         23    2    1    2    0    0 -0.96322795608E+02 -0.33593208124E+02  0.10591996891E+04  0.10685810508E+04  0.97749148727E+02 0.  0.
        254    2    1    2    0    0  0.96322795608E+02  0.33593208124E+02  0.87668702092E+03  0.12496907547E+04  0.88472609607E+03 0.  0.
         23    2    4    4    0    0 -0.35759883619E+03  0.79796639500E+02  0.19235051453E+03  0.42316702300E+03  0.88471337744E+02 0.  0.
         23    2    4    4    0    0  0.45392163179E+03 -0.46203431376E+02  0.68433650639E+03  0.82652373166E+03  0.81519446410E+02 0.  0.
          2    1    3    3  502    0 -0.44410723209E+02 -0.24382450654E+02  0.15983747277E+03  0.16767478623E+03  0.00000000000E+00 0.  1.
         -2    1    3    3    0  502 -0.51912072399E+02 -0.92107574699E+01  0.89936221635E+03  0.90090626456E+03  0.00000000000E+00 0. -1.
         11    1    5    5    0    0 -0.13075459488E+02  0.23674341176E+02  0.69632246029E+01  0.27927201217E+02  0.00000000000E+00 0.  1.
        -11    1    5    5    0    0 -0.34452337670E+03  0.56122298323E+02  0.18538728992E+03  0.39523982179E+03  0.00000000000E+00 0. -1.
          1    1    6    6  503    0  0.17884498990E+03  0.20999739079E+02  0.25282365557E+03  0.31039703651E+03  0.00000000000E+00 0. -1.
         -1    1    6    6    0  503  0.27507664189E+03 -0.67203170455E+02  0.43151285082E+03  0.51612669516E+03  0.00000000000E+00 0.  1.
<mgrwt>
<rscale>  0 0.12754320E+04</rscale>
<asrwt>0</asrwt>
<pdfrwt beam="1">  1        2 0.32724295E+00 0.12754320E+04</pdfrwt>
<pdfrwt beam="2">  1       -2 0.29414240E-01 0.12754320E+04</pdfrwt>
<totfact> 0.59373803E+01</totfact>
</mgrwt>
</event>
<event>
12    2  0.3518828E-008  0.1578284E+04  0.7818608E-02  0.8834001E-01
          2   -1    0    0  501    0  0.00000000000E+00  0.00000000000E+00  0.36238018963E+04  0.36238018963E+04  0.00000000000E+00 0.  1.
         -2   -1    0    0    0  501 -0.00000000000E+00 -0.00000000000E+00 -0.17184861934E+03  0.17184861934E+03  0.00000000000E+00 0. -1.
         23    2    1    2    0    0 -0.26558151538E+03  0.26564682929E+03  0.27202453055E+03  0.47236688280E+03  0.89617785755E+02 0.  0.
        254    2    1    2    0    0  0.26558151538E+03 -0.26564682929E+03  0.31799287464E+04  0.33232836328E+04  0.88947484105E+03 0.  0.
         23    2    4    4    0    0  0.15493701573E+03  0.97029598191E+02  0.26872256585E+04  0.26949614801E+04  0.90638944597E+02 0.  0.
         23    2    4    4    0    0  0.11064449965E+03 -0.36267642748E+03  0.49270308793E+03  0.62832215267E+03  0.90862524314E+02 0.  0.
          4    1    3    3  502    0 -0.20756310281E+03  0.21452305563E+03  0.16730213310E+03  0.34218794073E+03  0.00000000000E+00 0. -1.
         -4    1    3    3    0  502 -0.58018412572E+02  0.51123773664E+02  0.10472239745E+03  0.13017894207E+03  0.00000000000E+00 0.  1.
         11    1    5    5    0    0  0.80518009623E+02  0.96151439885E+02  0.19361485554E+04  0.19402060400E+04  0.00000000000E+00 0. -1.
        -11    1    5    5    0    0  0.74419006108E+02  0.87815830592E+00  0.75107710308E+03  0.75475544013E+03  0.00000000000E+00 0.  1.
          1    1    6    6  503    0  0.70005377152E+02 -0.28741163322E+03  0.43143177537E+03  0.52310570303E+03  0.00000000000E+00 0. -1.
         -1    1    6    6    0  503  0.40639122494E+02 -0.75264794260E+02  0.61271312561E+02  0.10521644964E+03  0.00000000000E+00 0.  1.
<mgrwt>
<rscale>  0 0.15782843E+04</rscale>
<asrwt>0</asrwt>
<pdfrwt beam="1">  1        2 0.55750793E+00 0.15782843E+04</pdfrwt>
<pdfrwt beam="2">  1       -2 0.26438252E-01 0.15782843E+04</pdfrwt>
<totfact> 0.83762260E+00</totfact>
</mgrwt>
</event>
<event>
12    2  0.3518828E-008  0.1902256E+04  0.7818608E-02  0.8653734E-01
          2   -1    0    0  501    0  0.00000000000E+00  0.00000000000E+00  0.57344667181E+03  0.57344667181E+03  0.00000000000E+00 0. -1.
         -2   -1    0    0    0  501 -0.00000000000E+00 -0.00000000000E+00 -0.15775556375E+04  0.15775556375E+04  0.00000000000E+00 0.  1.
         23    2    1    2    0    0  0.13452841895E+03  0.70068105728E+03 -0.52178499882E+03  0.88862109879E+03  0.91301876625E+02 0.  0.
        254    2    1    2    0    0 -0.13452841895E+03 -0.70068105728E+03 -0.48232396685E+03  0.12623812105E+04  0.92299408020E+03 0.  0.
         23    2    4    4    0    0 -0.46001131935E+03 -0.67755874559E+03 -0.37625372591E+03  0.90612588781E+03  0.93813595186E+02 0.  0.
         23    2    4    4    0    0  0.32548290040E+03 -0.23122311694E+02 -0.10607024094E+03  0.35625532269E+03  0.95881172210E+02 0.  0.
          4    1    3    3  502    0  0.47311545689E+02  0.34733432569E+03 -0.20480733639E+03  0.40598714413E+03  0.00000000000E+00 0. -1.
         -4    1    3    3    0  502  0.87216873266E+02  0.35334673159E+03 -0.31697766244E+03  0.48263395466E+03  0.00000000000E+00 0.  1.
         11    1    5    5    0    0 -0.53264851736E+02 -0.10943257375E+03 -0.88452699384E+02  0.15045435406E+03  0.00000000000E+00 0. -1.
        -11    1    5    5    0    0 -0.40674646762E+03 -0.56812617184E+03 -0.28780102652E+03  0.75567153375E+03  0.00000000000E+00 0.  1.
          3    1    6    6  503    0  0.68139520303E+02  0.31286176117E+02 -0.74706818949E+01  0.75350050638E+02  0.00000000000E+00 0. -1.
         -3    1    6    6    0  503  0.25734338009E+03 -0.54408487811E+02 -0.98599559045E+02  0.28090527205E+03  0.00000000000E+00 0.  1.
<mgrwt>
<rscale>  0 0.19022555E+04</rscale>
<asrwt>0</asrwt>
<pdfrwt beam="1">  1        2 0.88222566E-01 0.19022555E+04</pdfrwt>
<pdfrwt beam="2">  1       -2 0.24270086E+00 0.19022555E+04</pdfrwt>
<totfact> 0.34948915E+00</totfact>
</mgrwt>
</event>
<event>
12    2  0.3518828E-008  0.1285563E+04  0.7818608E-02  0.9041093E-01
         -2   -1    0    0    0  501 -0.00000000000E+00  0.00000000000E+00  0.34785943030E+03  0.34785943030E+03  0.00000000000E+00 0.  1.
          2   -1    0    0  501    0  0.00000000000E+00 -0.00000000000E+00 -0.11877440187E+04  0.11877440187E+04  0.00000000000E+00 0. -1.
         23    2    1    2    0    0 -0.15918881842E+03 -0.21142402272E+03 -0.43598088154E+03  0.51783999369E+03  0.89653403162E+02 0.  0.
        254    2    1    2    0    0  0.15918881842E+03  0.21142402272E+03 -0.40390370686E+03  0.10177634553E+04  0.89591464396E+03 0.  0.
         23    2    4    4    0    0  0.42454258002E+03  0.23927772564E+03  0.34448030471E+02  0.49695248628E+03  0.91021286422E+02 0.  0.
         23    2    4    4    0    0 -0.26535376160E+03 -0.27853702916E+02 -0.43835173734E+03  0.52081096903E+03  0.88900912679E+02 0.  0.
          3    1    3    3  502    0 -0.15393478402E+03 -0.22030215634E+03 -0.41438779922E+03  0.49390910699E+03  0.00000000000E+00 0. -1.
         -3    1    3    3    0  502 -0.52540343980E+01  0.88781336244E+01 -0.21593082321E+02  0.23930886700E+02  0.00000000000E+00 0.  1.
         11    1    5    5    0    0  0.83999313270E+02  0.45368922436E+02 -0.29426094910E+02  0.99900544615E+02  0.00000000000E+00 0.  1.
        -11    1    5    5    0    0  0.34054326675E+03  0.19390880320E+03  0.63874125381E+02  0.39705194167E+03  0.00000000000E+00 0. -1.
          4    1    6    6  503    0 -0.18275254775E+03 -0.59405659702E+02 -0.31622627021E+03  0.37003591729E+03  0.00000000000E+00 0. -1.
         -4    1    6    6    0  503 -0.82601213851E+02  0.31551956786E+02 -0.12212546713E+03  0.15077505174E+03  0.00000000000E+00 0.  1.
<mgrwt>
<rscale>  0 0.12855628E+04</rscale>
<asrwt>0</asrwt>
<pdfrwt beam="1">  1        2 0.18272985E+00 0.12855628E+04</pdfrwt>
<pdfrwt beam="2">  1       -2 0.53516835E-01 0.12855628E+04</pdfrwt>
<totfact> 0.62184264E+01</totfact>
</mgrwt>
</event>
<event>
12    2  0.3518828E-008  0.1155976E+04  0.7818608E-02  0.9152288E-01
         -2   -1    0    0    0  501 -0.00000000000E+00  0.00000000000E+00  0.61473372744E+03  0.61473372744E+03  0.00000000000E+00 0.  1.
          2   -1    0    0  501    0  0.00000000000E+00 -0.00000000000E+00 -0.54343866531E+03  0.54343866531E+03  0.00000000000E+00 0. -1.
         23    2    1    2    0    0 -0.19647859645E+03 -0.58423474661E+02  0.69785924336E+01  0.22466779028E+03  0.91704819839E+02 0.  0.
        254    2    1    2    0    0  0.19647859645E+03  0.58423474661E+02  0.64316469688E+02  0.93350460247E+03  0.90844762827E+03 0.  0.
         23    2    4    4    0    0  0.51503695453E+03 -0.30553150619E+02  0.20471689665E+03  0.56244173516E+03  0.90747661802E+02 0.  0.
         23    2    4    4    0    0 -0.31855835808E+03  0.88976625280E+02 -0.14040042697E+03  0.37106286731E+03  0.92623454139E+02 0.  0.
          3    1    3    3  502    0 -0.77772203837E+02 -0.37279285284E+02  0.46243568934E+02  0.97860760618E+02  0.00000000000E+00 0. -1.
         -3    1    3    3    0  502 -0.11870639261E+03 -0.21144189377E+02 -0.39264976501E+02  0.12680702966E+03  0.00000000000E+00 0.  1.
         11    1    5    5    0    0  0.41941148895E+03  0.30421915928E+01  0.13992727552E+03  0.44214804583E+03  0.00000000000E+00 0. -1.
        -11    1    5    5    0    0  0.95625465583E+02 -0.33595342211E+02  0.64789621130E+02  0.12029368933E+03  0.00000000000E+00 0.  1.
          3    1    6    6  503    0 -0.32145577688E+03  0.79069347766E+02 -0.14270499487E+03  0.36048646827E+03  0.00000000000E+00 0. -1.
         -3    1    6    6    0  503  0.28974187992E+01  0.99072775137E+01  0.23045679062E+01  0.10576399041E+02  0.00000000000E+00 0.  1.
<mgrwt>
<rscale>  0 0.11559759E+04</rscale>
<asrwt>0</asrwt>
<pdfrwt beam="1">  1        2 0.83605949E-01 0.11559759E+04</pdfrwt>
<pdfrwt beam="2">  1       -2 0.94574419E-01 0.11559759E+04</pdfrwt>
<totfact> 0.52060045E+01</totfact>
</mgrwt>
</event>
<event>
12    2  0.3518828E-008  0.1081023E+04  0.7818608E-02  0.9223888E-01
          2   -1    0    0  501    0  0.00000000000E+00  0.00000000000E+00  0.42470185458E+04  0.42470185458E+04  0.00000000000E+00 0. -1.
         -2   -1    0    0    0  501 -0.00000000000E+00 -0.00000000000E+00 -0.68790036861E+02  0.68790036861E+02  0.00000000000E+00 0.  1.
         23    2    1    2    0    0 -0.49413958063E+02  0.42364360742E+02  0.12289928640E+04  0.12341056522E+04  0.91415658864E+02 0.  0.
        254    2    1    2    0    0  0.49413958063E+02 -0.42364360742E+02  0.29492356449E+04  0.30817029305E+04  0.89144017410E+03 0.  0.
         23    2    4    4    0    0  0.36822099147E+03  0.63127943031E+02  0.24063663267E+04  0.24369291746E+04  0.91940566620E+02 0.  0.
         23    2    4    4    0    0 -0.31880703341E+03 -0.10549230377E+03  0.54286931825E+03  0.64477375592E+03  0.90882060525E+02 0.  0.
          3    1    3    3  502    0 -0.33669065581E+02  0.66252276406E+02  0.10686017771E+04  0.10711828640E+04  0.00000000000E+00 0. -1.
         -3    1    3    3    0  502 -0.15744892482E+02 -0.23887915664E+02  0.16039108696E+03  0.16292278825E+03  0.00000000000E+00 0.  1.
         11    1    5    5    0    0  0.29011088109E+03  0.86415377146E+02  0.18419398506E+04  0.18666478924E+04  0.00000000000E+00 0. -1.
        -11    1    5    5    0    0  0.78110110382E+02 -0.23287434116E+02  0.56442647607E+03  0.57028128220E+03  0.00000000000E+00 0.  1.
          1    1    6    6  503    0 -0.22307026635E+03 -0.85181529602E+02  0.45214707038E+03  0.51132495536E+03  0.00000000000E+00 0. -1.
         -1    1    6    6    0  503 -0.95736767063E+02 -0.20310774171E+02  0.90722247862E+02  0.13344880056E+03  0.00000000000E+00 0.  1.
<mgrwt>
<rscale>  0 0.10810228E+04</rscale>
<asrwt>0</asrwt>
<pdfrwt beam="1">  1        2 0.65338726E+00 0.10810228E+04</pdfrwt>
<pdfrwt beam="2">  1       -2 0.10583086E-01 0.10810228E+04</pdfrwt>
<totfact> 0.13987692E+01</totfact>
</mgrwt>
</event>
<event>
12    2  0.3518828E-008  0.2338936E+04  0.7818608E-02  0.8462725E-01
         -2   -1    0    0    0  501 -0.00000000000E+00  0.00000000000E+00  0.55341031379E+03  0.55341031379E+03  0.00000000000E+00 0.  1.
          2   -1    0    0  501    0  0.00000000000E+00 -0.00000000000E+00 -0.24713234536E+04  0.24713234536E+04  0.00000000000E+00 0. -1.
         23    2    1    2    0    0  0.52701409635E+03  0.79838118061E+03 -0.11732257577E+04  0.15165176171E+04  0.90612565399E+02 0.  0.
        254    2    1    2    0    0 -0.52701409635E+03 -0.79838118061E+03 -0.74468738205E+03  0.15082161503E+04  0.89721808480E+03 0.  0.
         23    2    4    4    0    0 -0.50388154292E+03 -0.50930869137E+03 -0.21712892350E+02  0.72258498166E+03  0.91463947170E+02 0.  0.
         23    2    4    4    0    0 -0.23132553423E+02 -0.28907248925E+03 -0.72297448970E+03  0.78563116862E+03  0.10210877182E+03 0.  0.
          3    1    3    3  502    0  0.32986382774E+03  0.53379722346E+03 -0.70641018115E+03  0.94486240515E+03  0.00000000000E+00 0. -1.
         -3    1    3    3    0  502  0.19715026860E+03  0.26458395715E+03 -0.46681557657E+03  0.57165521192E+03  0.00000000000E+00 0.  1.
         11    1    5    5    0    0 -0.12497300912E+03 -0.16813825193E+03  0.23007996873E+02  0.21075600274E+03  0.00000000000E+00 0.  1.
        -11    1    5    5    0    0 -0.37890853380E+03 -0.34117043944E+03 -0.44720889224E+02  0.51182897892E+03  0.00000000000E+00 0. -1.
          1    1    6    6  503    0  0.40675532619E+02 -0.10473549120E+03 -0.26887733251E+03  0.29140871985E+03  0.00000000000E+00 0. -1.
         -1    1    6    6    0  503 -0.63808086042E+02 -0.18433699805E+03 -0.45409715720E+03  0.49422244877E+03  0.00000000000E+00 0.  1.
<mgrwt>
<rscale>  0 0.23389364E+04</rscale>
<asrwt>0</asrwt>
<pdfrwt beam="1">  1        2 0.38020361E+00 0.23389364E+04</pdfrwt>
<pdfrwt beam="2">  1       -2 0.85140047E-01 0.23389364E+04</pdfrwt>
<totfact> 0.39233498E+00</totfact>
</mgrwt>
</event>
<event>
12    2  0.3518828E-008  0.4699355E+04  0.7818608E-02  0.7876636E-01
          1   -1    0    0  501    0  0.00000000000E+00  0.00000000000E+00  0.29657976529E+04  0.29657976529E+04  0.00000000000E+00 0. -1.
         -1   -1    0    0    0  501 -0.00000000000E+00 -0.00000000000E+00 -0.18615511440E+04  0.18615511440E+04  0.00000000000E+00 0.  1.
         23    2    1    2    0    0 -0.12530791166E+04  0.29627394549E+03 -0.13758210118E+04  0.18859249670E+04  0.76446069653E+02 0.  0.
        254    2    1    2    0    0  0.12530791166E+04 -0.29627394549E+03  0.24800675206E+04  0.29414238299E+04  0.91828847155E+03 0.  0.
         23    2    4    4    0    0  0.19753740804E+03 -0.32631467130E+03  0.12867653444E+04  0.13452362242E+04  0.91614163465E+02 0.  0.
         23    2    4    4    0    0  0.10555417086E+04  0.30040725808E+02  0.11933021762E+04  0.15961876057E+04  0.93669873415E+02 0.  0.
          3    1    3    3  502    0 -0.20598439477E+03  0.35735858399E+02 -0.18771279422E+03  0.28096746355E+03  0.00000000000E+00 0. -1.
         -3    1    3    3    0  502 -0.10470947219E+04  0.26053808709E+03 -0.11881082176E+04  0.16049575035E+04  0.00000000000E+00 0.  1.
         11    1    5    5    0    0  0.13538137719E+03 -0.16899837187E+03  0.59776377479E+03  0.63577519411E+03  0.00000000000E+00 0. -1.
        -11    1    5    5    0    0  0.62156030853E+02 -0.15731629942E+03  0.68900156962E+03  0.70946103006E+03  0.00000000000E+00 0.  1.
          1    1    6    6  503    0  0.30043693925E+03  0.37029097171E+02  0.38975019622E+03  0.49349642750E+03  0.00000000000E+00 0. -1.
         -1    1    6    6    0  503  0.75510476933E+03 -0.69883713631E+01  0.80355197995E+03  0.11026911782E+04  0.00000000000E+00 0.  1.
<mgrwt>
<rscale>  0 0.46993549E+04</rscale>
<asrwt>0</asrwt>
<pdfrwt beam="1">  1        1 0.45627656E+00 0.46993549E+04</pdfrwt>
<pdfrwt beam="2">  1       -1 0.28639248E+00 0.46993549E+04</pdfrwt>
<totfact> 0.18935760E-02</totfact>
</mgrwt>
</event>
<event>
12    2  0.3518828E-008  0.2069316E+04  0.7818608E-02  0.8574882E-01
         -2   -1    0    0    0  501 -0.00000000000E+00  0.00000000000E+00  0.59833710395E+03  0.59833710395E+03  0.00000000000E+00 0. -1.
          2   -1    0    0  501    0  0.00000000000E+00 -0.00000000000E+00 -0.17891538962E+04  0.17891538962E+04  0.00000000000E+00 0.  1.
         23    2    1    2    0    0  0.23873080760E+03 -0.65786214271E+03 -0.10150518784E+04  0.12373457958E+04  0.10449548033E+03 0.  0.
        254    2    1    2    0    0 -0.23873080760E+03  0.65786214271E+03 -0.17576491393E+03  0.11501452044E+04  0.89563702962E+03 0.  0.
         23    2    4    4    0    0  0.63919871741E+02 -0.97369401408E+02 -0.28643834535E+03  0.32382920324E+03  0.96186677088E+02 0.  0.
         23    2    4    4    0    0 -0.30265067934E+03  0.75523154411E+03  0.11067343142E+03  0.82631600111E+03  0.92614287995E+02 0.  0.
          3    1    3    3  502    0  0.11533152666E+03 -0.27771264703E+03 -0.35002093449E+03  0.46145458059E+03  0.00000000000E+00 0. -1.
         -3    1    3    3    0  502  0.12339928094E+03 -0.38014949568E+03 -0.66503094387E+03  0.77589121526E+03  0.00000000000E+00 0.  1.
         11    1    5    5    0    0  0.39675085677E+02 -0.14741299718E+02 -0.18949100447E+03  0.19416039533E+03  0.00000000000E+00 0. -1.
        -11    1    5    5    0    0  0.24244786063E+02 -0.82628101690E+02 -0.96947340884E+02  0.12966880791E+03  0.00000000000E+00 0.  1.
          1    1    6    6  503    0 -0.23712443811E+03  0.54516838914E+03  0.11819839156E+03  0.60614142857E+03  0.00000000000E+00 0. -1.
         -1    1    6    6    0  503 -0.65526241239E+02  0.21006315497E+03 -0.75249601378E+01  0.22017457254E+03  0.00000000000E+00 0.  1.
<mgrwt>
<rscale>  0 0.20693160E+04</rscale>
<asrwt>0</asrwt>
<pdfrwt beam="1">  1        2 0.27525445E+00 0.20693160E+04</pdfrwt>
<pdfrwt beam="2">  1       -2 0.92051860E-01 0.20693160E+04</pdfrwt>
<totfact> 0.81075947E+00</totfact>
</mgrwt>
</event>
<event>
12    2  0.3518828E-008  0.1875793E+04  0.7818608E-02  0.8667001E-01
          1   -1    0    0  501    0  0.00000000000E+00  0.00000000000E+00  0.82413649444E+03  0.82413649444E+03  0.00000000000E+00 0. -1.
         -1   -1    0    0    0  501 -0.00000000000E+00 -0.00000000000E+00 -0.10673591119E+04  0.10673591119E+04  0.00000000000E+00 0.  1.
         23    2    1    2    0    0  0.39316698635E+03  0.49134361047E+03 -0.43271793270E+03  0.76913336545E+03  0.91227747258E+02 0.  0.
        254    2    1    2    0    0 -0.39316698635E+03 -0.49134361047E+03  0.18949531519E+03  0.11223622409E+04  0.90982949099E+03 0.  0.
         23    2    4    4    0    0 -0.23683565025E+03 -0.11785966151E+03 -0.34634760010E+03  0.44529381562E+03  0.91366827074E+02 0.  0.
         23    2    4    4    0    0 -0.15633133610E+03 -0.37348394896E+03  0.53584291530E+03  0.67706842531E+03  0.85815359346E+02 0.  0.
          1    1    3    3  502    0  0.13514367217E+03  0.10715814169E+03 -0.13253454501E+03  0.21751341356E+03  0.00000000000E+00 0. -1.
         -1    1    3    3    0  502  0.25802331418E+03  0.38418546878E+03 -0.30018338769E+03  0.55161995189E+03  0.00000000000E+00 0.  1.
         11    1    5    5    0    0 -0.24083473426E+03 -0.99361353262E+02 -0.31626500197E+03  0.40975309544E+03  0.00000000000E+00 0. -1.
        -11    1    5    5    0    0  0.39990840039E+01 -0.18498308246E+02 -0.30082598132E+02  0.35540720184E+02  0.00000000000E+00 0.  1.
          1    1    6    6  503    0 -0.10306301069E+03 -0.27495659602E+03  0.44353687008E+03  0.53192863148E+03  0.00000000000E+00 0. -1.
         -1    1    6    6    0  503 -0.53268325407E+02 -0.98527352939E+02  0.92306045213E+02  0.14513979383E+03  0.00000000000E+00 0.  1.
<mgrwt>
<rscale>  0 0.18757927E+04</rscale>
<asrwt>0</asrwt>
<pdfrwt beam="1">  1        1 0.12679023E+00 0.18757927E+04</pdfrwt>
<pdfrwt beam="2">  1       -1 0.16420909E+00 0.18757927E+04</pdfrwt>
<totfact> 0.53665236E+00</totfact>
</mgrwt>
</event>
<event>
12    2  0.3518828E-008  0.1905145E+04  0.7818608E-02  0.8652299E-01
          1   -1    0    0  501    0  0.00000000000E+00  0.00000000000E+00  0.83019370286E+03  0.83019370286E+03  0.00000000000E+00 0. -1.
         -1   -1    0    0    0  501 -0.00000000000E+00 -0.00000000000E+00 -0.10929914753E+04  0.10929914753E+04  0.00000000000E+00 0.  1.
         23    2    1    2    0    0  0.52318511105E+03  0.13861227282E+03 -0.61607119299E+03  0.82536370317E+03  0.93517405191E+02 0.  0.
        254    2    1    2    0    0 -0.52318511105E+03 -0.13861227282E+03  0.35327342055E+03  0.10978214750E+04  0.88739723837E+03 0.  0.
         23    2    4    4    0    0 -0.72780905690E+03 -0.24599282088E+03  0.35052698735E+03  0.84930652632E+03  0.90740925533E+02 0.  0.
         23    2    4    4    0    0  0.20462394585E+03  0.10738054806E+03  0.27464332019E+01  0.24851494866E+03  0.91381592758E+02 0.  0.
          2    1    3    3  502    0  0.17314854551E+02  0.25615331347E+02 -0.34846815665E+02  0.46585941551E+02  0.00000000000E+00 0. -1.
         -2    1    3    3    0  502  0.50587025650E+03  0.11299694147E+03 -0.58122437732E+03  0.77877776162E+03  0.00000000000E+00 0.  1.
         11    1    5    5    0    0 -0.28796764985E+03 -0.75989387059E+02  0.92957220794E+02  0.31199487048E+03  0.00000000000E+00 0.  1.
        -11    1    5    5    0    0 -0.43984140705E+03 -0.17000343382E+03  0.25756976656E+03  0.53731165585E+03  0.00000000000E+00 0. -1.
          3    1    6    6  503    0  0.75036430779E+02  0.45738128485E+02 -0.43086451638E+02  0.97871776606E+02  0.00000000000E+00 0. -1.
         -3    1    6    6    0  503  0.12958751507E+03  0.61642419572E+02  0.45832884840E+02  0.15064317205E+03  0.00000000000E+00 0.  1.
<mgrwt>
<rscale>  0 0.19051453E+04</rscale>
<asrwt>0</asrwt>
<pdfrwt beam="1">  1        1 0.12772211E+00 0.19051453E+04</pdfrwt>
<pdfrwt beam="2">  1       -1 0.16815253E+00 0.19051453E+04</pdfrwt>
<totfact> 0.49438140E+00</totfact>
</mgrwt>
</event>
<event>
12    2  0.3518828E-008  0.1579978E+04  0.7818608E-02  0.8832944E-01
         -1   -1    0    0    0  501 -0.00000000000E+00  0.00000000000E+00  0.32207072545E+03  0.32207072545E+03  0.00000000000E+00 0.  1.
          1   -1    0    0  501    0  0.00000000000E+00 -0.00000000000E+00 -0.19377184859E+04  0.19377184859E+04  0.00000000000E+00 0. -1.
         23    2    1    2    0    0 -0.52348734808E+03  0.30541152761E+02 -0.47623132851E+03  0.71621162231E+03  0.10578773114E+03 0.  0.
        254    2    1    2    0    0  0.52348734808E+03 -0.30541152761E+02 -0.11394164319E+04  0.15435775890E+04  0.89966115978E+03 0.  0.
         23    2    4    4    0    0 -0.15804733830E+03  0.23485836481E+03 -0.41087697590E+03  0.50718324055E+03  0.90980973295E+02 0.  0.
         23    2    4    4    0    0  0.68153468638E+03 -0.26539951757E+03 -0.72853945602E+03  0.10363943485E+04  0.91744612474E+02 0.  0.
          1    1    3    3  502    0 -0.19722114567E+03 -0.37744434818E+02 -0.19824700128E+03  0.28217493896E+03  0.00000000000E+00 0. -1.
         -1    1    3    3    0  502 -0.32626620242E+03  0.68285587578E+02 -0.27798432723E+03  0.43403668335E+03  0.00000000000E+00 0.  1.
         11    1    5    5    0    0  0.89726009024E+01  0.36737933289E+02 -0.61529099019E+02  0.72221972664E+02  0.00000000000E+00 0. -1.
        -11    1    5    5    0    0 -0.16701993920E+03  0.19812043152E+03 -0.34934787688E+03  0.43496126789E+03  0.00000000000E+00 0.  1.
          3    1    6    6  503    0  0.23804244046E+02 -0.36066530144E+00 -0.47839638313E+02  0.53435972041E+02  0.00000000000E+00 0. -1.
         -3    1    6    6    0  503  0.65773044234E+03 -0.26503885227E+03 -0.68069981771E+03  0.98295837644E+03  0.00000000000E+00 0.  1.
<mgrwt>
<rscale>  0 0.15799777E+04</rscale>
<asrwt>0</asrwt>
<pdfrwt beam="1">  1        1 0.29811054E+00 0.15799777E+04</pdfrwt>
<pdfrwt beam="2">  1       -1 0.49549342E-01 0.15799777E+04</pdfrwt>
<totfact> 0.12896252E+01</totfact>
</mgrwt>
</event>
<event>
12    2  0.3518828E-008  0.2023501E+04  0.7818608E-02  0.8595711E-01
          1   -1    0    0  501    0  0.00000000000E+00  0.00000000000E+00  0.24965129076E+04  0.24965129076E+04  0.00000000000E+00 0. -1.
         -1   -1    0    0    0  501 -0.00000000000E+00 -0.00000000000E+00 -0.41002748840E+03  0.41002748840E+03  0.00000000000E+00 0.  1.
         23    2    1    2    0    0  0.57790652281E+03 -0.51138432881E+03  0.11555474262E+04  0.13924501180E+04  0.90208625852E+02 0.  0.
        254    2    1    2    0    0 -0.57790652281E+03  0.51138432881E+03  0.93093799300E+03  0.15140902780E+04  0.91122661403E+03 0.  0.
         23    2    4    4    0    0  0.17009943272E+03  0.15893271842E+03 -0.19585102749E+02  0.25099598163E+03  0.91771349294E+02 0.  0.
         23    2    4    4    0    0 -0.74800595553E+03  0.35245161039E+03  0.95052309575E+03  0.12630942963E+04  0.90432287709E+02 0.  0.
          1    1    3    3  502    0  0.57327560712E+03 -0.49523640200E+03  0.11438942675E+04  0.13720051424E+04  0.00000000000E+00 0. -1.
         -1    1    3    3    0  502  0.46309156928E+01 -0.16147926813E+02  0.11653158662E+02  0.20444975600E+02  0.00000000000E+00 0.  1.
         11    1    5    5    0    0  0.17880451629E+03  0.15153589666E+03 -0.76936716508E+01  0.23450666431E+03  0.00000000000E+00 0.  1.
        -11    1    5    5    0    0 -0.87050835752E+01  0.73968217630E+01 -0.11891431098E+02  0.16489317324E+02  0.00000000000E+00 0. -1.
          3    1    6    6  503    0 -0.45572908144E+01  0.84313620071E+01  0.26771118514E+02  0.28435005739E+02  0.00000000000E+00 0. -1.
         -3    1    6    6    0  503 -0.74344866472E+03  0.34402024838E+03  0.92375197724E+03  0.12346592906E+04  0.00000000000E+00 0.  1.
<mgrwt>
<rscale>  0 0.20235008E+04</rscale>
<asrwt>0</asrwt>
<pdfrwt beam="1">  1        1 0.38407890E+00 0.20235008E+04</pdfrwt>
<pdfrwt beam="2">  1       -1 0.63081153E-01 0.20235008E+04</pdfrwt>
<totfact> 0.32159672E+00</totfact>
</mgrwt>
</event>
<event>
12    2  0.3518828E-008  0.2021214E+04  0.7818608E-02  0.8596766E-01
         -2   -1    0    0    0  501 -0.00000000000E+00  0.00000000000E+00  0.12499030206E+04  0.12499030206E+04  0.00000000000E+00 0.  1.
          2   -1    0    0  501    0  0.00000000000E+00 -0.00000000000E+00 -0.81712428236E+03  0.81712428236E+03  0.00000000000E+00 0. -1.
         23    2    1    2    0    0  0.53122020511E+03 -0.52471616295E+03  0.48612924989E+03  0.89555877344E+03  0.90453917056E+02 0.  0.
        254    2    1    2    0    0 -0.53122020511E+03  0.52471616295E+03 -0.53350511604E+02  0.11714685296E+04  0.90109393556E+03 0.  0.
         23    2    4    4    0    0 -0.32618129291E+03 -0.21245698389E+03 -0.31601452651E+02  0.40059375875E+03  0.89131935286E+02 0.  0.
         23    2    4    4    0    0 -0.20503891219E+03  0.73717314684E+03 -0.21749058953E+02  0.77087477082E+03  0.91157483456E+02 0.  0.
          2    1    3    3  502    0  0.34987181047E+03 -0.37797464947E+03  0.37535725009E+03  0.63731325468E+03  0.00000000000E+00 0. -1.
         -2    1    3    3    0  502  0.18134839464E+03 -0.14674151348E+03  0.11077199980E+03  0.25824551875E+03  0.00000000000E+00 0.  1.
         11    1    5    5    0    0 -0.24303141615E+03 -0.19139862265E+03 -0.48616582964E+02  0.31314736807E+03  0.00000000000E+00 0. -1.
        -11    1    5    5    0    0 -0.83149876762E+02 -0.21058361245E+02  0.17015130313E+02  0.87446390682E+02  0.00000000000E+00 0.  1.
          3    1    6    6  503    0 -0.18381509727E+03  0.67133085769E+03  0.67044197048E+01  0.69607331490E+03  0.00000000000E+00 0. -1.
         -3    1    6    6    0  503 -0.21223814927E+02  0.65842289141E+02 -0.28453478658E+02  0.74801455915E+02  0.00000000000E+00 0.  1.
<mgrwt>
<rscale>  0 0.20212136E+04</rscale>
<asrwt>0</asrwt>
<pdfrwt beam="1">  1        2 0.12571143E+00 0.20212136E+04</pdfrwt>
<pdfrwt beam="2">  1       -2 0.19229277E+00 0.20212136E+04</pdfrwt>
<totfact> 0.46438742E+00</totfact>
</mgrwt>
</event>
<event>
12    2  0.3518828E-008  0.1499391E+04  0.7818608E-02  0.8884858E-01
         -2   -1    0    0    0  501 -0.00000000000E+00  0.00000000000E+00  0.38390682244E+03  0.38390682244E+03  0.00000000000E+00 0. -1.
          2   -1    0    0  501    0  0.00000000000E+00 -0.00000000000E+00 -0.14640104200E+04  0.14640104200E+04  0.00000000000E+00 0.  1.
         23    2    1    2    0    0  0.26128136611E+03 -0.32577457032E+03 -0.62441118559E+03  0.75693805054E+03  0.93106716813E+02 0.  0.
        254    2    1    2    0    0 -0.26128136611E+03  0.32577457032E+03 -0.45569241199E+03  0.10909791919E+04  0.89898998877E+03 0.  0.
         23    2    4    4    0    0 -0.52246613674E+03  0.37533898216E+03 -0.48060141410E+03  0.80816080734E+03  0.91082137257E+02 0.  0.
         23    2    4    4    0    0  0.26118477063E+03 -0.49564411833E+02  0.24909002107E+02  0.28281838458E+03  0.93229099202E+02 0.  0.
          3    1    3    3  502    0  0.71881113978E+02 -0.53813222161E+02 -0.83765190998E+02  0.12279806452E+03  0.00000000000E+00 0. -1.
         -3    1    3    3    0  502  0.18940025213E+03 -0.27196134816E+03 -0.54064599460E+03  0.63413998602E+03  0.00000000000E+00 0.  1.
         11    1    5    5    0    0 -0.12500358635E+03  0.12541023048E+03 -0.16813661128E+03  0.24417932460E+03  0.00000000000E+00 0. -1.
        -11    1    5    5    0    0 -0.39746255039E+03  0.24992875168E+03 -0.31246480281E+03  0.56398148274E+03  0.00000000000E+00 0.  1.
          3    1    6    6  503    0  0.83983090099E+02 -0.14394954012E+02 -0.35529642590E+02  0.92318630981E+02  0.00000000000E+00 0. -1.
         -3    1    6    6    0  503  0.17720168053E+03 -0.35169457821E+02  0.60438644697E+02  0.19049975359E+03  0.00000000000E+00 0.  1.
<mgrwt>
<rscale>  0 0.14993913E+04</rscale>
<asrwt>0</asrwt>
<pdfrwt beam="1">  1        2 0.22523238E+00 0.14993913E+04</pdfrwt>
<pdfrwt beam="2">  1       -2 0.59062587E-01 0.14993913E+04</pdfrwt>
<totfact> 0.34415363E+01</totfact>
</mgrwt>
</event>
<event>
12    2  0.3518828E-008  0.1660106E+04  0.7818608E-02  0.8784450E-01
          2   -1    0    0  501    0  0.00000000000E+00  0.00000000000E+00  0.13334403147E+04  0.13334403147E+04  0.00000000000E+00 0. -1.
         -2   -1    0    0    0  501 -0.00000000000E+00 -0.00000000000E+00 -0.51669964389E+03  0.51669964389E+03  0.00000000000E+00 0.  1.
         23    2    1    2    0    0  0.25652317616E+03  0.72971153097E+02 -0.28667410369E+03  0.40155712872E+03  0.89090722349E+02 0.  0.
        254    2    1    2    0    0 -0.25652317616E+03 -0.72971153097E+02  0.11034147745E+04  0.14485828299E+04  0.89985505574E+03 0.  0.
         23    2    4    4    0    0  0.17962661744E+03 -0.35479731852E+03  0.42461782474E+03  0.58900296652E+03  0.92072463618E+02 0.  0.
         23    2    4    4    0    0 -0.43614979359E+03  0.28182616543E+03  0.67879694975E+03  0.85957986335E+03  0.91976151885E+02 0.  0.
          2    1    3    3  502    0 -0.12804848546E+01  0.17286913168E+02 -0.15144299382E+02  0.23017967159E+02  0.00000000000E+00 0. -1.
         -2    1    3    3    0  502  0.25780366101E+03  0.55684239929E+02 -0.27152980431E+03  0.37853916156E+03  0.00000000000E+00 0.  1.
         11    1    5    5    0    0  0.18369813657E+03 -0.35062531910E+03  0.42740233814E+03  0.58254259795E+03  0.00000000000E+00 0. -1.
        -11    1    5    5    0    0 -0.40715191316E+01 -0.41719994183E+01 -0.27845133999E+01  0.64603685700E+01  0.00000000000E+00 0.  1.
          3    1    6    6  503    0 -0.30152166415E+03  0.19123461126E+03  0.53232674737E+03  0.64098186906E+03  0.00000000000E+00 0. -1.
         -3    1    6    6    0  503 -0.13462812944E+03  0.90591554163E+02  0.14647020239E+03  0.21859799429E+03  0.00000000000E+00 0.  1.
<mgrwt>
<rscale>  0 0.16601062E+04</rscale>
<asrwt>0</asrwt>
<pdfrwt beam="1">  1        2 0.20514466E+00 0.16601062E+04</pdfrwt>
<pdfrwt beam="2">  1       -2 0.79492253E-01 0.16601062E+04</pdfrwt>
<totfact> 0.21158212E+01</totfact>
</mgrwt>
</event>
<event>
12    2  0.3518828E-008  0.1480843E+04  0.7818608E-02  0.8897293E-01
         -1   -1    0    0    0  501 -0.00000000000E+00  0.00000000000E+00  0.20480830928E+03  0.20480830928E+03  0.00000000000E+00 0.  1.
          1   -1    0    0  501    0  0.00000000000E+00 -0.00000000000E+00 -0.26767681295E+04  0.26767681295E+04  0.00000000000E+00 0. -1.
         23    2    1    2    0    0  0.44645202287E+03 -0.10407714452E+03 -0.80218708471E+03  0.92898725251E+03  0.96756062881E+02 0.  0.
        254    2    1    2    0    0 -0.44645202287E+03  0.10407714452E+03 -0.16697727355E+04  0.19525891863E+04  0.90239242094E+03 0.  0.
         23    2    4    4    0    0 -0.24454284037E+02  0.20944170489E+03 -0.54122148468E+01  0.22994572286E+03  0.91552736918E+02 0.  0.
         23    2    4    4    0    0 -0.42199773883E+03 -0.10536456037E+03 -0.16643605207E+04  0.17226434634E+04  0.90668501384E+02 0.  0.
          3    1    3    3  502    0  0.44719896605E+03 -0.10748680172E+03 -0.77218282354E+03  0.89878064106E+03  0.00000000000E+00 0. -1.
         -3    1    3    3    0  502 -0.74694318303E+00  0.34096571963E+01 -0.30004261171E+02  0.30206611441E+02  0.00000000000E+00 0.  1.
         11    1    5    5    0    0 -0.33851716571E+02  0.19483099313E+03  0.20435074186E+02  0.19880303533E+03  0.00000000000E+00 0.  1.
        -11    1    5    5    0    0  0.93974325335E+01  0.14610711760E+02 -0.25847289033E+02  0.31142687532E+02  0.00000000000E+00 0. -1.
          2    1    6    6  503    0 -0.31562449482E+03 -0.82206897826E+02 -0.10778889809E+04  0.11261533870E+04  0.00000000000E+00 0.  1.
         -2    1    6    6    0  503 -0.10637324402E+03 -0.23157662540E+02 -0.58647153978E+03  0.59649007649E+03  0.00000000000E+00 0. -1.
<mgrwt>
<rscale>  0 0.14808435E+04</rscale>
<asrwt>0</asrwt>
<pdfrwt beam="1">  1        1 0.41181045E+00 0.14808435E+04</pdfrwt>
<pdfrwt beam="2">  1       -1 0.31508973E-01 0.14808435E+04</pdfrwt>
<totfact> 0.92760479E+00</totfact>
</mgrwt>
</event>
<event>
12    2  0.3518828E-008  0.1309468E+04  0.7818608E-02  0.9022090E-01
         -1   -1    0    0    0  501 -0.00000000000E+00  0.00000000000E+00  0.41281599413E+03  0.41281599413E+03  0.00000000000E+00 0.  1.
          1   -1    0    0  501    0  0.00000000000E+00 -0.00000000000E+00 -0.10384213241E+04  0.10384213241E+04  0.00000000000E+00 0. -1.
         23    2    1    2    0    0 -0.33822806855E+03 -0.31799517275E+02 -0.11996205541E+03  0.37012387170E+03  0.84801827886E+02 0.  0.
        254    2    1    2    0    0  0.33822806855E+03  0.31799517275E+02 -0.50564327454E+03  0.10811134465E+04  0.89315268989E+03 0.  0.
         23    2    4    4    0    0 -0.12020069633E+03 -0.80868159006E+02 -0.57173713040E+03  0.59673018429E+03  0.90640498809E+02 0.  0.
         23    2    4    4    0    0  0.45842876488E+03  0.11266767628E+03  0.66093855866E+02  0.48438326221E+03  0.86068630610E+02 0.  0.
          3    1    3    3  502    0 -0.26080427258E+03  0.66198021413E+01 -0.10996166602E+03  0.28311527400E+03  0.00000000000E+00 0. -1.
         -3    1    3    3    0  502 -0.77423795970E+02 -0.38419319416E+02 -0.10000389386E+02  0.87008597705E+02  0.00000000000E+00 0.  1.
         11    1    5    5    0    0 -0.95808421914E+02 -0.20298553799E+02 -0.42471418080E+03  0.43585940436E+03  0.00000000000E+00 0. -1.
        -11    1    5    5    0    0 -0.24392274416E+02 -0.60569605207E+02 -0.14702294960E+03  0.16087077993E+03  0.00000000000E+00 0.  1.
          1    1    6    6  503    0  0.28329787111E+03  0.26137298183E+02  0.37634759302E+02  0.28697947181E+03  0.00000000000E+00 0. -1.
         -1    1    6    6    0  503  0.17513089377E+03  0.86530378098E+02  0.28459096564E+02  0.19740379040E+03  0.00000000000E+00 0.  1.
<mgrwt>
<rscale>  0 0.13094685E+04</rscale>
<asrwt>0</asrwt>
<pdfrwt beam="1">  1        1 0.15975713E+00 0.13094685E+04</pdfrwt>
<pdfrwt beam="2">  1       -1 0.63510153E-01 0.13094685E+04</pdfrwt>
<totfact> 0.34875608E+01</totfact>
</mgrwt>
</event>
<event>
12    2  0.3518828E-008  0.1786990E+04  0.7818608E-02  0.8713249E-01
          2   -1    0    0  501    0  0.00000000000E+00  0.00000000000E+00  0.14588659027E+04  0.14588659027E+04  0.00000000000E+00 0. -1.
         -2   -1    0    0    0  501 -0.00000000000E+00 -0.00000000000E+00 -0.54722884224E+03  0.54722884224E+03  0.00000000000E+00 0.  1.
         23    2    1    2    0    0 -0.35456328706E+03  0.53994338297E+03  0.15414969947E+03  0.66974544943E+03  0.86849616282E+02 0.  0.
        254    2    1    2    0    0  0.35456328706E+03 -0.53994338297E+03  0.75748736094E+03  0.13363492955E+04  0.89150903313E+03 0.  0.
         23    2    4    4    0    0  0.37677024051E+03 -0.73639463671E+03  0.41393250808E+03  0.93022761502E+03  0.98744211946E+02 0.  0.
         23    2    4    4    0    0 -0.22206953450E+02  0.19645125375E+03  0.34355485286E+03  0.40612168043E+03  0.88423065522E+02 0.  0.
          4    1    3    3  502    0 -0.65062884839E+02  0.95523105128E+02  0.62814874962E+02  0.13154296299E+03  0.00000000000E+00 0. -1.
         -4    1    3    3    0  502 -0.28950040222E+03  0.44442027784E+03  0.91334824511E+02  0.53820248644E+03  0.00000000000E+00 0.  1.
         11    1    5    5    0    0  0.20624472649E+01 -0.93160666739E+01 -0.54898366949E+01  0.11008228465E+02  0.00000000000E+00 0.  1.
        -11    1    5    5    0    0  0.37470779324E+03 -0.72707857004E+03  0.41942234478E+03  0.91921938656E+03  0.00000000000E+00 0. -1.
          2    1    6    6  503    0 -0.38672019335E+02  0.18449047900E+03  0.33426289174E+03  0.38374984393E+03  0.00000000000E+00 0. -1.
         -2    1    6    6    0  503  0.16465065885E+02  0.11960774749E+02  0.92919611151E+01  0.22371836504E+02  0.00000000000E+00 0.  1.
<mgrwt>
<rscale>  0 0.17869902E+04</rscale>
<asrwt>0</asrwt>
<pdfrwt beam="1">  1        2 0.22444091E+00 0.17869902E+04</pdfrwt>
<pdfrwt beam="2">  1       -2 0.84189053E-01 0.17869902E+04</pdfrwt>
<totfact> 0.15588448E+01</totfact>
</mgrwt>
</event>
<event>
12    2  0.3518828E-008  0.3142043E+04  0.7818608E-02  0.8204293E-01
         -2   -1    0    0    0  501 -0.00000000000E+00  0.00000000000E+00  0.14221527037E+04  0.14221527037E+04  0.00000000000E+00 0.  1.
          2   -1    0    0  501    0  0.00000000000E+00 -0.00000000000E+00 -0.17354738165E+04  0.17354738165E+04  0.00000000000E+00 0. -1.
         23    2    1    2    0    0 -0.10667719976E+04  0.94363067084E+03  0.82607823962E+02  0.14294368050E+04  0.89577837921E+02 0.  0.
        254    2    1    2    0    0  0.10667719976E+04 -0.94363067084E+03 -0.39592893672E+03  0.17281897153E+04  0.89523104908E+03 0.  0.
         23    2    4    4    0    0 -0.96528203172E+02  0.36237658111E+02 -0.11515265062E+03  0.17883188717E+03  0.89943588153E+02 0.  0.
         23    2    4    4    0    0  0.11633002008E+04 -0.97986832896E+03 -0.28077628609E+03  0.15493578281E+04  0.90912361547E+02 0.  0.
          1    1    3    3  502    0 -0.23530038093E+03  0.20414369547E+03 -0.18844730178E+02  0.31208338873E+03  0.00000000000E+00 0. -1.
         -1    1    3    3    0  502 -0.83147161666E+03  0.73948697537E+03  0.10145255414E+03  0.11173534162E+04  0.00000000000E+00 0.  1.
         11    1    5    5    0    0  0.11393312838E+02  0.96538086304E+00  0.58988418188E+01  0.12866074476E+02  0.00000000000E+00 0. -1.
        -11    1    5    5    0    0 -0.10792151601E+03  0.35272277248E+02 -0.12105149244E+03  0.16596581269E+03  0.00000000000E+00 0.  1.
          3    1    6    6  503    0  0.19907791170E+03 -0.17810960451E+03 -0.83881980524E+02  0.27998434385E+03  0.00000000000E+00 0. -1.
         -3    1    6    6    0  503  0.96422228907E+03 -0.80175872444E+03 -0.19689430557E+03  0.12693734843E+04  0.00000000000E+00 0.  1.
<mgrwt>
<rscale>  0 0.31420431E+04</rscale>
<asrwt>0</asrwt>
<pdfrwt beam="1">  1        2 0.26699597E+00 0.31420431E+04</pdfrwt>
<pdfrwt beam="2">  1       -2 0.21879272E+00 0.31420431E+04</pdfrwt>
<totfact> 0.79766918E-01</totfact>
</mgrwt>
</event>
<event>
12    2  0.3518828E-008  0.1643013E+04  0.7818608E-02  0.8794550E-01
         -1   -1    0    0    0  501 -0.00000000000E+00  0.00000000000E+00  0.59634925782E+03  0.59634925782E+03  0.00000000000E+00 0.  1.
          1   -1    0    0  501    0  0.00000000000E+00 -0.00000000000E+00 -0.11316745723E+04  0.11316745723E+04  0.00000000000E+00 0. -1.
         23    2    1    2    0    0  0.38497163729E+03 -0.94379075388E+02  0.23008058574E+03  0.46698451149E+03  0.89592893933E+02 0.  0.
        254    2    1    2    0    0 -0.38497163729E+03  0.94379075388E+02 -0.76540590026E+03  0.12610393187E+04  0.92046911936E+03 0.  0.
         23    2    4    4    0    0 -0.13190913629E+03 -0.37971569610E+03 -0.51992491610E+03  0.66358042318E+03  0.91831528089E+02 0.  0.
         23    2    4    4    0    0 -0.25306250100E+03  0.47409477148E+03 -0.24548098417E+03  0.59745889549E+03  0.88824188482E+02 0.  0.
          3    1    3    3  502    0  0.23518829749E+03 -0.99898024820E+02  0.12937999468E+03  0.28641287272E+03  0.00000000000E+00 0. -1.
         -3    1    3    3    0  502  0.14978333981E+03  0.55189494327E+01  0.10070059106E+03  0.18057163876E+03  0.00000000000E+00 0.  1.
         11    1    5    5    0    0 -0.26107846720E+02 -0.14789555837E+02 -0.59392044137E+02  0.66541457220E+02  0.00000000000E+00 0.  1.
        -11    1    5    5    0    0 -0.10580128957E+03 -0.36492614026E+03 -0.46053287196E+03  0.59703896596E+03  0.00000000000E+00 0. -1.
          2    1    6    6  503    0 -0.23102095515E+03  0.36715452748E+03 -0.17660000511E+03  0.46835957401E+03  0.00000000000E+00 0. -1.
         -2    1    6    6    0  503 -0.22041545851E+02  0.10694024400E+03 -0.68880979054E+02  0.12909932148E+03  0.00000000000E+00 0.  1.
<mgrwt>
<rscale>  0 0.16430134E+04</rscale>
<asrwt>0</asrwt>
<pdfrwt beam="1">  1        1 0.17410378E+00 0.16430134E+04</pdfrwt>
<pdfrwt beam="2">  1       -1 0.91746039E-01 0.16430134E+04</pdfrwt>
<totfact> 0.13287428E+01</totfact>
</mgrwt>
</event>
<event>
12    2  0.3518828E-008  0.1340036E+04  0.7818608E-02  0.8998405E-01
          1   -1    0    0  501    0  0.00000000000E+00  0.00000000000E+00  0.48827248878E+03  0.48827248878E+03  0.00000000000E+00 0. -1.
         -1   -1    0    0    0  501 -0.00000000000E+00 -0.00000000000E+00 -0.91941295410E+03  0.91941295410E+03  0.00000000000E+00 0.  1.
         23    2    1    2    0    0  0.11850466224E+03  0.21783217274E+03  0.15932748297E+03  0.30871242334E+03  0.91781823048E+02 0.  0.
        254    2    1    2    0    0 -0.11850466224E+03 -0.21783217274E+03 -0.59046794829E+03  0.10989730195E+04  0.89308179316E+03 0.  0.
         23    2    4    4    0    0 -0.60034248343E+02 -0.40638071551E+03  0.49078409155E+02  0.42426878084E+03  0.94052704568E+02 0.  0.
         23    2    4    4    0    0 -0.58470413901E+02  0.18854854277E+03 -0.63954635745E+03  0.67470423871E+03  0.85070112984E+02 0.  0.
          1    1    3    3  502    0  0.42065038357E+02  0.95948373635E+02  0.12054195744E+03  0.15970573364E+03  0.00000000000E+00 0. -1.
         -1    1    3    3    0  502  0.76439623888E+02  0.12188379910E+03  0.38785525529E+02  0.14900668970E+03  0.00000000000E+00 0.  1.
         11    1    5    5    0    0 -0.56994569304E+02 -0.22377799734E+03 -0.13239247088E+02  0.23130121204E+03  0.00000000000E+00 0. -1.
        -11    1    5    5    0    0 -0.30396790390E+01 -0.18260271816E+03  0.62317656244E+02  0.19296756880E+03  0.00000000000E+00 0.  1.
          4    1    6    6  503    0 -0.27787951572E+02  0.11973588283E+02 -0.15837565542E+03  0.16124014791E+03  0.00000000000E+00 0. -1.
         -4    1    6    6    0  503 -0.30682462330E+02  0.17657495449E+03 -0.48117070202E+03  0.51346409079E+03  0.00000000000E+00 0.  1.
<mgrwt>
<rscale>  0 0.13400359E+04</rscale>
<asrwt>0</asrwt>
<pdfrwt beam="1">  1        1 0.75118845E-01 0.13400359E+04</pdfrwt>
<pdfrwt beam="2">  1       -1 0.14144815E+00 0.13400359E+04</pdfrwt>
<totfact> 0.18306397E+01</totfact>
</mgrwt>
</event>
<event>
12    2  0.3518828E-008  0.1354939E+04  0.7818608E-02  0.8987098E-01
          1   -1    0    0  501    0  0.00000000000E+00  0.00000000000E+00  0.12151525775E+04  0.12151525775E+04  0.00000000000E+00 0. -1.
         -1   -1    0    0    0  501 -0.00000000000E+00 -0.00000000000E+00 -0.37770127585E+03  0.37770127585E+03  0.00000000000E+00 0.  1.
         23    2    1    2    0    0  0.11345060144E+03 -0.18779755146E+03 -0.11469375715E+03  0.26375896355E+03  0.90967981297E+02 0.  0.
        254    2    1    2    0    0 -0.11345060144E+03  0.18779755146E+03  0.95214505882E+03  0.13290948898E+04  0.90098504637E+03 0.  0.
         23    2    4    4    0    0  0.27540615106E+02  0.29634253112E+01 -0.16179455538E+03  0.18752701487E+03  0.90673236335E+02 0.  0.
         23    2    4    4    0    0 -0.14099121655E+03  0.18483412615E+03  0.11139396142E+04  0.11415678749E+04  0.90959175865E+02 0.  0.
          2    1    3    3  502    0  0.21444024545E+02 -0.64671640039E+02  0.59047490829E+01  0.68389569934E+02  0.00000000000E+00 0. -1.
         -2    1    3    3    0  502  0.92006576896E+02 -0.12312591142E+03 -0.12059850624E+03  0.19536939362E+03  0.00000000000E+00 0.  1.
         11    1    5    5    0    0  0.11510930872E+02 -0.43845898362E+02 -0.77166126042E+02  0.89496230876E+02  0.00000000000E+00 0.  1.
        -11    1    5    5    0    0  0.16029684234E+02  0.46809323673E+02 -0.84628429336E+02  0.98030783998E+02  0.00000000000E+00 0. -1.
          2    1    6    6  503    0 -0.14740570920E+03  0.13897244852E+03  0.93876885533E+03  0.96037948140E+03  0.00000000000E+00 0. -1.
         -2    1    6    6    0  503  0.64144926501E+01  0.45861677625E+02  0.17517075887E+03  0.18118839354E+03  0.00000000000E+00 0.  1.
<mgrwt>
<rscale>  0 0.13549386E+04</rscale>
<asrwt>0</asrwt>
<pdfrwt beam="1">  1        1 0.18694655E+00 0.13549386E+04</pdfrwt>
<pdfrwt beam="2">  1       -1 0.58107889E-01 0.13549386E+04</pdfrwt>
<totfact> 0.30580387E+01</totfact>
</mgrwt>
</event>
<event>
12    2  0.3518828E-008  0.1265650E+04  0.7818608E-02  0.9057257E-01
         -2   -1    0    0    0  501 -0.00000000000E+00  0.00000000000E+00  0.23418672184E+03  0.23418672184E+03  0.00000000000E+00 0.  1.
          2   -1    0    0  501    0  0.00000000000E+00 -0.00000000000E+00 -0.17100351738E+04  0.17100351738E+04  0.00000000000E+00 0. -1.
         23    2    1    2    0    0  0.11592434095E+03 -0.25819661077E+03 -0.52752631338E+03  0.60569801925E+03  0.92098515601E+02 0.  0.
        254    2    1    2    0    0 -0.11592434095E+03  0.25819661077E+03 -0.94832213861E+03  0.13385238764E+04  0.90123656524E+03 0.  0.
         23    2    4    4    0    0 -0.42719932624E+03  0.39186997142E+03 -0.67078455946E+03  0.89123316489E+03  0.91012582395E+02 0.  0.
         23    2    4    4    0    0  0.31127498529E+03 -0.13367336065E+03 -0.27753757915E+03  0.44729071153E+03  0.91001038249E+02 0.  0.
          3    1    3    3  502    0  0.28525527680E+02 -0.13538542954E+03 -0.18114153592E+03  0.22793678136E+03  0.00000000000E+00 0. -1.
         -3    1    3    3    0  502  0.87398813273E+02 -0.12281118123E+03 -0.34638477746E+03  0.37776123789E+03  0.00000000000E+00 0.  1.
         11    1    5    5    0    0 -0.34999049015E+03  0.28725504466E+03 -0.56203177179E+03  0.72172606741E+03  0.00000000000E+00 0.  1.
        -11    1    5    5    0    0 -0.77208836093E+02  0.10461492676E+03 -0.10875278767E+03  0.16950709748E+03  0.00000000000E+00 0. -1.
          2    1    6    6  503    0  0.99598447493E+02 -0.12305272776E+02 -0.12182295444E+03  0.15783568262E+03  0.00000000000E+00 0. -1.
         -2    1    6    6    0  503  0.21167653779E+03 -0.12136808788E+03 -0.15571462471E+03  0.28945502890E+03  0.00000000000E+00 0.  1.
<mgrwt>
<rscale>  0 0.12656501E+04</rscale>
<asrwt>0</asrwt>
<pdfrwt beam="1">  1        2 0.26308235E+00 0.12656501E+04</pdfrwt>
<pdfrwt beam="2">  1       -2 0.36028725E-01 0.12656501E+04</pdfrwt>
<totfact> 0.68914957E+01</totfact>
</mgrwt>
</event>
<event>
12    2  0.3518828E-008  0.1848004E+04  0.7818608E-02  0.8681180E-01
         -2   -1    0    0    0  501 -0.00000000000E+00  0.00000000000E+00  0.70428569235E+03  0.70428569235E+03  0.00000000000E+00 0.  1.
          2   -1    0    0  501    0  0.00000000000E+00 -0.00000000000E+00 -0.12122626471E+04  0.12122626471E+04  0.00000000000E+00 0. -1.
         23    2    1    2    0    0 -0.14158714049E+03  0.61715877322E+03  0.12776788136E+03  0.65213676701E+03  0.89587173526E+02 0.  0.
        254    2    1    2    0    0  0.14158714049E+03 -0.61715877322E+03 -0.63574483615E+03  0.12644115725E+04  0.89086096459E+03 0.  0.
         23    2    4    4    0    0  0.49041193521E+03 -0.50535501084E+03 -0.36112509697E+03  0.79744779171E+03  0.98102454900E+02 0.  0.
         23    2    4    4    0    0 -0.34882479472E+03 -0.11180376238E+03 -0.27461973918E+03  0.46696378078E+03  0.91980175700E+02 0.  0.
          3    1    3    3  502    0  0.81955195061E+01  0.82552020525E+02  0.31072972886E+02  0.88586298470E+02  0.00000000000E+00 0. -1.
         -3    1    3    3    0  502 -0.14978266000E+03  0.53460675269E+03  0.96694908473E+02  0.56355046854E+03  0.00000000000E+00 0.  1.
         11    1    5    5    0    0  0.47537331834E+03 -0.49664992461E+03 -0.36673408099E+03  0.77918856868E+03  0.00000000000E+00 0.  1.
        -11    1    5    5    0    0  0.15038616876E+02 -0.87050862332E+01  0.56089840217E+01  0.18259223029E+02  0.00000000000E+00 0. -1.
          1    1    6    6  503    0 -0.20893831779E+02 -0.33493996292E+02 -0.18688764412E+02  0.43676880718E+02  0.00000000000E+00 0. -1.
         -1    1    6    6    0  503 -0.32793096294E+03 -0.78309766085E+02 -0.25593097477E+03  0.42328690006E+03  0.00000000000E+00 0.  1.
<mgrwt>
<rscale>  0 0.18480035E+04</rscale>
<asrwt>0</asrwt>
<pdfrwt beam="1">  1        2 0.18650194E+00 0.18480035E+04</pdfrwt>
<pdfrwt beam="2">  1       -2 0.10835165E+00 0.18480035E+04</pdfrwt>
<totfact> 0.11938142E+01</totfact>
</mgrwt>
</event>
<event>
12    2  0.3518828E-008  0.2830202E+04  0.7818608E-02  0.8293953E-01
          2   -1    0    0  501    0  0.00000000000E+00  0.00000000000E+00  0.15530781367E+04  0.15530781367E+04  0.00000000000E+00 0. -1.
         -2   -1    0    0    0  501 -0.00000000000E+00 -0.00000000000E+00 -0.12893819780E+04  0.12893819780E+04  0.00000000000E+00 0.  1.
         23    2    1    2    0    0 -0.29042465593E+03  0.10073014672E+04  0.84058103544E+03  0.13470800009E+04  0.95106913855E+02 0.  0.
        254    2    1    2    0    0  0.29042465593E+03 -0.10073014672E+04 -0.57688487682E+03  0.14953801138E+04  0.89686275255E+03 0.  0.
         23    2    4    4    0    0 -0.20416859008E+03 -0.60379571708E+03 -0.20059916649E+02  0.64420644833E+03  0.91353525757E+02 0.  0.
         23    2    4    4    0    0  0.49459324601E+03 -0.40350575016E+03 -0.55682496017E+03  0.85117366546E+03  0.83685142613E+02 0.  0.
          3    1    3    3  502    0 -0.77136764759E+02  0.24753803560E+03  0.26168448752E+03  0.36838014408E+03  0.00000000000E+00 0. -1.
         -3    1    3    3    0  502 -0.21328789117E+03  0.75976343165E+03  0.57889654791E+03  0.97869985684E+03  0.00000000000E+00 0.  1.
         11    1    5    5    0    0 -0.23002562660E+02 -0.14092178662E+02 -0.16708100756E+01  0.27027744906E+02  0.00000000000E+00 0.  1.
        -11    1    5    5    0    0 -0.18116602742E+03 -0.58970353842E+03 -0.18389106573E+02  0.61717870342E+03  0.00000000000E+00 0. -1.
          4    1    6    6  503    0  0.43332508183E+03 -0.34698316718E+03 -0.51779408793E+03  0.75913020118E+03  0.00000000000E+00 0. -1.
         -4    1    6    6    0  503  0.61268164178E+02 -0.56522582982E+02 -0.39030872238E+02  0.92043464279E+02  0.00000000000E+00 0.  1.
<mgrwt>
<rscale>  0 0.28302021E+04</rscale>
<asrwt>0</asrwt>
<pdfrwt beam="1">  1        2 0.23893510E+00 0.28302021E+04</pdfrwt>
<pdfrwt beam="2">  1       -2 0.19836646E+00 0.28302021E+04</pdfrwt>
<totfact> 0.14023494E+00</totfact>
</mgrwt>
</event>
<event>
12    2  0.3518828E-008  0.1541612E+04  0.7818608E-02  0.8857243E-01
          2   -1    0    0  501    0  0.00000000000E+00  0.00000000000E+00  0.12238210063E+04  0.12238210063E+04  0.00000000000E+00 0. -1.
         -2   -1    0    0    0  501 -0.00000000000E+00 -0.00000000000E+00 -0.48548120156E+03  0.48548120156E+03  0.00000000000E+00 0.  1.
         23    2    1    2    0    0 -0.31057067561E+03  0.36154080380E+03  0.45671034166E+03  0.66633992128E+03  0.90877154173E+02 0.  0.
        254    2    1    2    0    0  0.31057067561E+03 -0.36154080380E+03  0.28162946307E+03  0.10429622866E+04  0.88390569598E+03 0.  0.
         23    2    4    4    0    0 -0.18109224251E+03 -0.43075857126E+03  0.24820713900E+03  0.53702572782E+03  0.91883085949E+02 0.  0.
         23    2    4    4    0    0  0.49166291812E+03  0.69217767455E+02  0.33422324073E+02  0.50593655875E+03  0.91275546290E+02 0.  0.
          2    1    3    3  502    0 -0.69564581991E+02  0.67048730347E+02  0.14596043208E+03  0.17504059827E+03  0.00000000000E+00 0. -1.
         -2    1    3    3    0  502 -0.24100609362E+03  0.29449207346E+03  0.31074990958E+03  0.49129932301E+03  0.00000000000E+00 0.  1.
         11    1    5    5    0    0 -0.14503301443E+03 -0.37229912099E+03  0.24410258862E+03  0.46821713397E+03  0.00000000000E+00 0. -1.
        -11    1    5    5    0    0 -0.36059228075E+02 -0.58459450264E+02  0.41045503788E+01  0.68808593856E+02  0.00000000000E+00 0.  1.
          4    1    6    6  503    0  0.48277317264E+03  0.63113694918E+02  0.18122491527E+02  0.48721832828E+03  0.00000000000E+00 0. -1.
         -4    1    6    6    0  503  0.88897454766E+01  0.61040725361E+01  0.15299832547E+02  0.18718230475E+02  0.00000000000E+00 0.  1.
<mgrwt>
<rscale>  0 0.15416123E+04</rscale>
<asrwt>0</asrwt>
<pdfrwt beam="1">  1        2 0.18828015E+00 0.15416123E+04</pdfrwt>
<pdfrwt beam="2">  1       -2 0.74689416E-01 0.15416123E+04</pdfrwt>
<totfact> 0.28456950E+01</totfact>
</mgrwt>
</event>
<event>
12    2  0.3518828E-008  0.1110129E+04  0.7818608E-02  0.9195376E-01
         -2   -1    0    0    0  501 -0.00000000000E+00  0.00000000000E+00  0.12457561492E+04  0.12457561492E+04  0.00000000000E+00 0.  1.
          2   -1    0    0  501    0  0.00000000000E+00 -0.00000000000E+00 -0.24731681566E+03  0.24731681566E+03  0.00000000000E+00 0. -1.
         23    2    1    2    0    0  0.22275870628E+01  0.12547150577E+03  0.14277698752E+02  0.15653167256E+03  0.92467566894E+02 0.  0.
        254    2    1    2    0    0 -0.22275870628E+01 -0.12547150577E+03  0.98416163483E+03  0.13365412923E+04  0.89555594004E+03 0.  0.
         23    2    4    4    0    0 -0.16146480963E+03 -0.38054510797E+03  0.15719044289E+03  0.45184370567E+03  0.92565841779E+02 0.  0.
         23    2    4    4    0    0  0.15923722256E+03  0.25507360220E+03  0.82697119194E+03  0.88469758667E+03  0.91593842444E+02 0.  0.
          2    1    3    3  502    0 -0.40090322442E+01  0.97028988137E+02 -0.31660460517E+02  0.10214245757E+03  0.00000000000E+00 0. -1.
         -2    1    3    3    0  502  0.62366193070E+01  0.28442517635E+02  0.45938159270E+02  0.54389214987E+02  0.00000000000E+00 0.  1.
         11    1    5    5    0    0 -0.12761097542E+03 -0.36270421420E+03  0.13443862153E+03  0.40732376681E+03  0.00000000000E+00 0.  1.
        -11    1    5    5    0    0 -0.33853834201E+02 -0.17840893773E+02  0.22751821361E+02  0.44519938859E+02  0.00000000000E+00 0. -1.
          3    1    6    6  503    0  0.45987855770E+02  0.38370641818E+02  0.26760554089E+03  0.27422602820E+03  0.00000000000E+00 0. -1.
         -3    1    6    6    0  503  0.11324936679E+03  0.21670296038E+03  0.55936565105E+03  0.61047155846E+03  0.00000000000E+00 0.  1.
<mgrwt>
<rscale>  0 0.11101287E+04</rscale>
<asrwt>0</asrwt>
<pdfrwt beam="1">  1        2 0.38048742E-01 0.11101287E+04</pdfrwt>
<pdfrwt beam="2">  1       -2 0.19165479E+00 0.11101287E+04</pdfrwt>
<totfact> 0.20414055E+01</totfact>
</mgrwt>
</event>
<event>
12    2  0.3518828E-008  0.1509473E+04  0.7818608E-02  0.8878178E-01
         -1   -1    0    0    0  501 -0.00000000000E+00  0.00000000000E+00  0.25044421787E+03  0.25044421787E+03  0.00000000000E+00 0. -1.
          1   -1    0    0  501    0  0.00000000000E+00 -0.00000000000E+00 -0.22744668037E+04  0.22744668037E+04  0.00000000000E+00 0.  1.
         23    2    1    2    0    0 -0.22012608209E+03  0.39020465977E+03 -0.36257069173E+03  0.58353006880E+03  0.91294392916E+02 0.  0.
        254    2    1    2    0    0  0.22012608209E+03 -0.39020465977E+03 -0.16614518941E+04  0.19413809527E+04  0.89878942964E+03 0.  0.
         23    2    4    4    0    0  0.50718071080E+03 -0.42738022732E+03 -0.90868931267E+03  0.11286427305E+04  0.90730446845E+02 0.  0.
         23    2    4    4    0    0 -0.28705462871E+03  0.37175567554E+02 -0.75276258138E+03  0.81273822225E+03  0.10054616494E+03 0.  0.
          4    1    3    3  502    0 -0.21537706645E+03  0.31479214245E+03 -0.30948390431E+03  0.49118393778E+03  0.00000000000E+00 0. -1.
         -4    1    3    3    0  502 -0.47490156389E+01  0.75412517316E+02 -0.53086787413E+02  0.92346131025E+02  0.00000000000E+00 0.  1.
         11    1    5    5    0    0  0.39301618216E+03 -0.37507307583E+03 -0.71940399291E+03  0.90148967641E+03  0.00000000000E+00 0.  1.
        -11    1    5    5    0    0  0.11416452864E+03 -0.52307151489E+02 -0.18928531976E+03  0.22715305407E+03  0.00000000000E+00 0. -1.
          3    1    6    6  503    0 -0.17559878039E+02 -0.20162614419E+02 -0.36001836682E+02  0.44844314929E+02  0.00000000000E+00 0. -1.
         -3    1    6    6    0  503 -0.26949475067E+03  0.57338181973E+02 -0.71676074470E+03  0.76789390732E+03  0.00000000000E+00 0.  1.
<mgrwt>
<rscale>  0 0.15094728E+04</rscale>
<asrwt>0</asrwt>
<pdfrwt beam="1">  1        1 0.34991797E+00 0.15094728E+04</pdfrwt>
<pdfrwt beam="2">  1       -1 0.38529880E-01 0.15094728E+04</pdfrwt>
<totfact> 0.12234295E+01</totfact>
</mgrwt>
</event>
<event>
12    2  0.3518828E-008  0.2292951E+04  0.7818608E-02  0.8480705E-01
         -2   -1    0    0    0  501 -0.00000000000E+00  0.00000000000E+00  0.11630483295E+04  0.11630483295E+04  0.00000000000E+00 0.  1.
          2   -1    0    0  501    0  0.00000000000E+00 -0.00000000000E+00 -0.11301391961E+04  0.11301391961E+04  0.00000000000E+00 0. -1.
         23    2    1    2    0    0 -0.37091336280E+03  0.48666182136E+03  0.75951183850E+03  0.97932787045E+03  0.88365117201E+02 0.  0.
        254    2    1    2    0    0  0.37091336280E+03 -0.48666182136E+03 -0.72660270511E+03  0.13138596552E+04  0.90766692757E+03 0.  0.
         23    2    4    4    0    0  0.59409043179E+03 -0.19398263377E+03 -0.19571634476E+03  0.66109473325E+03  0.90380613951E+02 0.  0.
         23    2    4    4    0    0 -0.22317706899E+03 -0.29267918759E+03 -0.53088636035E+03  0.65276492195E+03  0.93768890074E+02 0.  0.
          3    1    3    3  502    0 -0.24246671068E+03  0.28164171520E+03  0.40005304327E+03  0.54603534589E+03  0.00000000000E+00 0. -1.
         -3    1    3    3    0  502 -0.12844665212E+03  0.20502010617E+03  0.35945879522E+03  0.43329252456E+03  0.00000000000E+00 0.  1.
         11    1    5    5    0    0  0.10602157273E+03 -0.19245452786E+01 -0.46485406875E+02  0.11578070138E+03  0.00000000000E+00 0.  1.
        -11    1    5    5    0    0  0.48806885906E+03 -0.19205808849E+03 -0.14923093789E+03  0.54531403187E+03  0.00000000000E+00 0. -1.
          1    1    6    6  503    0 -0.20120417807E+03 -0.29274505729E+03 -0.51510328817E+03  0.62571094550E+03  0.00000000000E+00 0. -1.
         -1    1    6    6    0  503 -0.21972890913E+02  0.65869694318E-01 -0.15783072182E+02  0.27053976443E+02  0.00000000000E+00 0.  1.
<mgrwt>
<rscale>  0 0.22929514E+04</rscale>
<asrwt>0</asrwt>
<pdfrwt beam="1">  1        2 0.17386757E+00 0.22929514E+04</pdfrwt>
<pdfrwt beam="2">  1       -2 0.17893051E+00 0.22929514E+04</pdfrwt>
<totfact> 0.34927943E+00</totfact>
</mgrwt>
</event>
<event>
12    2  0.3518828E-008  0.2289933E+04  0.7818608E-02  0.8481901E-01
          2   -1    0    0  501    0  0.00000000000E+00  0.00000000000E+00  0.13507724560E+04  0.13507724560E+04  0.00000000000E+00 0. -1.
         -2   -1    0    0    0  501 -0.00000000000E+00 -0.00000000000E+00 -0.97051754440E+03  0.97051754440E+03  0.00000000000E+00 0.  1.
         23    2    1    2    0    0 -0.52049376554E+03 -0.33934245612E+03  0.91405707945E+03  0.11088138769E+04  0.88886482345E+02 0.  0.
        254    2    1    2    0    0  0.52049376554E+03  0.33934245612E+03 -0.53380216786E+03  0.12124761234E+04  0.89391640159E+03 0.  0.
         23    2    4    4    0    0 -0.45668201288E+02  0.39753234013E+03 -0.48355235254E+03  0.63458738428E+03  0.93598742427E+02 0.  0.
         23    2    4    4    0    0  0.56616196683E+03 -0.58189884014E+02 -0.50249815314E+02  0.57788873916E+03  0.86630916098E+02 0.  0.
          3    1    3    3  502    0 -0.14929404816E+03 -0.88539359404E+02  0.32855883867E+03  0.37158961429E+03  0.00000000000E+00 0.  1.
         -3    1    3    3    0  502 -0.37119971738E+03 -0.25080309671E+03  0.58549824078E+03  0.73722426266E+03  0.00000000000E+00 0. -1.
         11    1    5    5    0    0  0.19060437501E+02  0.12079108800E+03 -0.19035166793E+03  0.22624664573E+03  0.00000000000E+00 0. -1.
        -11    1    5    5    0    0 -0.64728638789E+02  0.27674125213E+03 -0.29320068462E+03  0.40834073856E+03  0.00000000000E+00 0.  1.
          1    1    6    6  503    0  0.46891254316E+03 -0.73977697445E+02 -0.21253410607E+02  0.47518773165E+03  0.00000000000E+00 0. -1.
         -1    1    6    6    0  503  0.97249423668E+02  0.15787813431E+02 -0.28996404707E+02  0.10270100751E+03  0.00000000000E+00 0.  1.
<mgrwt>
<rscale>  0 0.22899331E+04</rscale>
<asrwt>0</asrwt>
<pdfrwt beam="1">  1        2 0.20781115E+00 0.22899331E+04</pdfrwt>
<pdfrwt beam="2">  1       -2 0.14931039E+00 0.22899331E+04</pdfrwt>
<totfact> 0.42514384E+00</totfact>
</mgrwt>
</event>
<event>
12    2  0.3518828E-008  0.1438200E+04  0.7818608E-02  0.8926622E-01
          1   -1    0    0  501    0  0.00000000000E+00  0.00000000000E+00  0.13991570036E+04  0.13991570036E+04  0.00000000000E+00 0. -1.
         -1   -1    0    0    0  501 -0.00000000000E+00 -0.00000000000E+00 -0.36958303012E+03  0.36958303012E+03  0.00000000000E+00 0.  1.
         23    2    1    2    0    0  0.41502147666E+03 -0.88062243169E+02  0.27095053388E+03  0.51243375721E+03  0.95793418136E+02 0.  0.
        254    2    1    2    0    0 -0.41502147666E+03  0.88062243169E+02  0.75862343964E+03  0.12563062766E+04  0.90708221931E+03 0.  0.
         23    2    4    4    0    0  0.23083597911E+03 -0.16103934830E+03  0.14712139325E+03  0.32897666983E+03  0.85802237668E+02 0.  0.
         23    2    4    4    0    0 -0.64585745577E+03  0.24910159147E+03  0.61150204639E+03  0.92732960673E+03  0.82595343243E+02 0.  0.
          2    1    3    3  502    0  0.97678763603E+02 -0.22943092220E+02  0.11586042366E+03  0.15326827496E+03  0.00000000000E+00 0. -1.
         -2    1    3    3    0  502  0.31734271305E+03 -0.65119150949E+02  0.15509011022E+03  0.35916548225E+03  0.00000000000E+00 0.  1.
         11    1    5    5    0    0  0.31222569869E+02  0.14964526922E+01  0.38472033801E+02  0.49570007309E+02  0.00000000000E+00 0. -1.
        -11    1    5    5    0    0  0.19961340925E+03 -0.16253580099E+03  0.10864935945E+03  0.27940666252E+03  0.00000000000E+00 0.  1.
          3    1    6    6  503    0 -0.46553605438E+03  0.14636144331E+03  0.39970432069E+03  0.63080031230E+03  0.00000000000E+00 0. -1.
         -3    1    6    6    0  503 -0.18032140139E+03  0.10274014816E+03  0.21179772570E+03  0.29652929443E+03  0.00000000000E+00 0.  1.
<mgrwt>
<rscale>  0 0.14381998E+04</rscale>
<asrwt>0</asrwt>
<pdfrwt beam="1">  1        1 0.21525492E+00 0.14381998E+04</pdfrwt>
<pdfrwt beam="2">  1       -1 0.56858928E-01 0.14381998E+04</pdfrwt>
<totfact> 0.23417562E+01</totfact>
</mgrwt>
</event>
<event>
12    2  0.3518828E-008  0.1319731E+04  0.7818608E-02  0.9014063E-01
         -1   -1    0    0    0  501 -0.00000000000E+00  0.00000000000E+00  0.29847988332E+03  0.29847988332E+03  0.00000000000E+00 0.  1.
          1   -1    0    0  501    0  0.00000000000E+00 -0.00000000000E+00 -0.14588002503E+04  0.14588002503E+04  0.00000000000E+00 0. -1.
         23    2    1    2    0    0 -0.12963447273E+03  0.11566093962E+03  0.83196093399E+02  0.21308969576E+03  0.91121232474E+02 0.  0.
        254    2    1    2    0    0  0.12963447273E+03 -0.11566093962E+03 -0.12435164604E+04  0.15441904378E+04  0.89889285884E+03 0.  0.
         23    2    4    4    0    0  0.15300586497E+03  0.32990371785E+02 -0.13341662394E+04  0.13465455568E+04  0.93199908973E+02 0.  0.
         23    2    4    4    0    0 -0.23371392240E+02 -0.14865131140E+03  0.90649779018E+02  0.19764488099E+03  0.90568660088E+02 0.  0.
          4    1    3    3  502    0 -0.59386636789E+02  0.77349080881E+02  0.90109441001E+02  0.13277561636E+03  0.00000000000E+00 0.  1.
         -4    1    3    3    0  502 -0.70247835941E+02  0.38311858737E+02 -0.69133476020E+01  0.80314079397E+02  0.00000000000E+00 0. -1.
         11    1    5    5    0    0  0.84265404293E+02  0.21968466660E+02 -0.10638567243E+04  0.10674148218E+04  0.00000000000E+00 0. -1.
        -11    1    5    5    0    0  0.68740460677E+02  0.11021905125E+02 -0.27030951505E+03  0.27913073506E+03  0.00000000000E+00 0.  1.
          2    1    6    6  503    0  0.28679090695E+02 -0.94463330066E+02  0.65227712574E+02  0.11832356256E+03  0.00000000000E+00 0. -1.
         -2    1    6    6    0  503 -0.52050482935E+02 -0.54187981338E+02  0.25422066444E+02  0.79321318430E+02  0.00000000000E+00 0.  1.
<mgrwt>
<rscale>  0 0.13197311E+04</rscale>
<asrwt>0</asrwt>
<pdfrwt beam="1">  1        1 0.22443080E+00 0.13197311E+04</pdfrwt>
<pdfrwt beam="2">  1       -1 0.45919983E-01 0.13197311E+04</pdfrwt>
<totfact> 0.32320776E+01</totfact>
</mgrwt>
</event>
<event>
12    2  0.3518828E-008  0.2157505E+04  0.7818608E-02  0.8536327E-01
         -1   -1    0    0    0  501 -0.00000000000E+00  0.00000000000E+00  0.98118937708E+03  0.98118937708E+03  0.00000000000E+00 0.  1.
          1   -1    0    0  501    0  0.00000000000E+00 -0.00000000000E+00 -0.11860164998E+04  0.11860164998E+04  0.00000000000E+00 0. -1.
         23    2    1    2    0    0  0.49205207641E+03  0.71142831455E+03  0.15343545583E+02  0.86995853546E+03  0.91361569550E+02 0.  0.
        254    2    1    2    0    0 -0.49205207641E+03 -0.71142831455E+03 -0.22017066827E+03  0.12972473414E+04  0.94134480872E+03 0.  0.
         23    2    4    4    0    0  0.19077165598E+03 -0.52430192526E+03 -0.86032547966E+02  0.57159092142E+03  0.89600494316E+02 0.  0.
         23    2    4    4    0    0 -0.68282373240E+03 -0.18712638928E+03 -0.13413812030E+03  0.72565641996E+03  0.85555066578E+02 0.  0.
          1    1    3    3  502    0  0.22197044141E+03  0.26985400731E+03 -0.27930956034E+02  0.35053131162E+03  0.00000000000E+00 0. -1.
         -1    1    3    3    0  502  0.27008163500E+03  0.44157430724E+03  0.43274501618E+02  0.51942722384E+03  0.00000000000E+00 0.  1.
         11    1    5    5    0    0  0.20042993384E+03 -0.49687119018E+03 -0.85138325506E+02  0.54249578107E+03  0.00000000000E+00 0. -1.
        -11    1    5    5    0    0 -0.96582778538E+01 -0.27430735086E+02 -0.89422245954E+00  0.29095140355E+02  0.00000000000E+00 0.  1.
          1    1    6    6  503    0 -0.53057021287E+03 -0.17199073586E+03 -0.80536497386E+02  0.56353499574E+03  0.00000000000E+00 0. -1.
         -1    1    6    6    0  503 -0.15225351952E+03 -0.15135653424E+02 -0.53601622917E+02  0.16212142422E+03  0.00000000000E+00 0.  1.
<mgrwt>
<rscale>  0 0.21575048E+04</rscale>
<asrwt>0</asrwt>
<pdfrwt beam="1">  1        1 0.18246408E+00 0.21575048E+04</pdfrwt>
<pdfrwt beam="2">  1       -1 0.15095221E+00 0.21575048E+04</pdfrwt>
<totfact> 0.34342870E+00</totfact>
</mgrwt>
</event>
<event>
12    2  0.3518828E-008  0.1857204E+04  0.7818608E-02  0.8676457E-01
          2   -1    0    0  501    0  0.00000000000E+00  0.00000000000E+00  0.18123649098E+04  0.18123649098E+04  0.00000000000E+00 0.  1.
         -2   -1    0    0    0  501 -0.00000000000E+00 -0.00000000000E+00 -0.47578833942E+03  0.47578833942E+03  0.00000000000E+00 0. -1.
         23    2    1    2    0    0  0.69282357747E+02  0.34293082065E+03  0.12693013800E+04  0.13197845516E+04  0.91124511403E+02 0.  0.
        254    2    1    2    0    0 -0.69282357747E+02 -0.34293082065E+03  0.67275190348E+02  0.96836869757E+03  0.90045010431E+03 0.  0.
         23    2    4    4    0    0 -0.34615303504E+03  0.12398247704E+03  0.16151282568E+03  0.41163925826E+03  0.90370945549E+02 0.  0.
         23    2    4    4    0    0  0.27687067730E+03 -0.46691329769E+03 -0.94237635327E+02  0.55672943931E+03  0.80009606806E+02 0.  0.
          3    1    3    3  502    0 -0.32879303812E+01  0.19717805836E+03  0.63485522016E+03  0.66477902175E+03  0.00000000000E+00 0. -1.
         -3    1    3    3    0  502  0.72570288128E+02  0.14575276229E+03  0.63444615984E+03  0.65500552988E+03  0.00000000000E+00 0.  1.
         11    1    5    5    0    0 -0.14839270992E+03  0.63617316526E+01  0.62269864514E+02  0.16105404066E+03  0.00000000000E+00 0. -1.
        -11    1    5    5    0    0 -0.19776032513E+03  0.11762074538E+03  0.99242961161E+02  0.25058521760E+03  0.00000000000E+00 0.  1.
          3    1    6    6  503    0  0.13670333107E+02 -0.37067110058E+02 -0.27879405991E+02  0.48354006387E+02  0.00000000000E+00 0. -1.
         -3    1    6    6    0  503  0.26320034419E+03 -0.42984618763E+03 -0.66358229336E+02  0.50837543293E+03  0.00000000000E+00 0.  1.
<mgrwt>
<rscale>  0 0.18572044E+04</rscale>
<asrwt>0</asrwt>
<pdfrwt beam="1">  1        2 0.27882537E+00 0.18572044E+04</pdfrwt>
<pdfrwt beam="2">  1       -2 0.73198207E-01 0.18572044E+04</pdfrwt>
<totfact> 0.13449027E+01</totfact>
</mgrwt>
</event>
<event>
12    2  0.3518828E-008  0.1568448E+04  0.7818608E-02  0.8840170E-01
         -1   -1    0    0    0  501 -0.00000000000E+00  0.00000000000E+00  0.54660351847E+03  0.54660351847E+03  0.00000000000E+00 0.  1.
          1   -1    0    0  501    0  0.00000000000E+00 -0.00000000000E+00 -0.11251431679E+04  0.11251431679E+04  0.00000000000E+00 0. -1.
         23    2    1    2    0    0 -0.18507463296E+03 -0.44249151191E+02  0.32044867201E+03  0.38354599957E+03  0.90606706391E+02 0.  0.
        254    2    1    2    0    0  0.18507463296E+03  0.44249151191E+02 -0.89898832146E+03  0.12882006868E+04  0.90281249452E+03 0.  0.
         23    2    4    4    0    0 -0.24792186197E+03  0.30514157003E+03 -0.32413209321E+03  0.51740877843E+03  0.89853228902E+02 0.  0.
         23    2    4    4    0    0  0.43299649493E+03 -0.26089241883E+03 -0.57485622825E+03  0.77079190840E+03  0.90053673272E+02 0.  0.
          1    1    3    3  502    0 -0.84313622440E+02 -0.59043017371E+02  0.11564076164E+03  0.15481489134E+03  0.00000000000E+00 0. -1.
         -1    1    3    3    0  502 -0.10076101052E+03  0.14793866180E+02  0.20480791038E+03  0.22873110823E+03  0.00000000000E+00 0.  1.
         11    1    5    5    0    0  0.49997475466E+01  0.11893976511E+02 -0.24805264097E+02  0.27960065803E+02  0.00000000000E+00 0. -1.
        -11    1    5    5    0    0 -0.25292160951E+03  0.29324759351E+03 -0.29932682912E+03  0.48944871262E+03  0.00000000000E+00 0.  1.
          3    1    6    6  503    0  0.12045948825E+03 -0.10233654584E+03 -0.13121774625E+03  0.20542968104E+03  0.00000000000E+00 0. -1.
         -3    1    6    6    0  503  0.31253700668E+03 -0.15855587299E+03 -0.44363848200E+03  0.56536222735E+03  0.00000000000E+00 0.  1.
<mgrwt>
<rscale>  0 0.15684479E+04</rscale>
<asrwt>0</asrwt>
<pdfrwt beam="1">  1        1 0.17309895E+00 0.15684479E+04</pdfrwt>
<pdfrwt beam="2">  1       -1 0.84092849E-01 0.15684479E+04</pdfrwt>
<totfact> 0.16367033E+01</totfact>
</mgrwt>
</event>
<event>
12    2  0.3518828E-008  0.2085219E+04  0.7818608E-02  0.8567783E-01
         -2   -1    0    0    0  501 -0.00000000000E+00  0.00000000000E+00  0.40643405902E+03  0.40643405902E+03  0.00000000000E+00 0. -1.
          2   -1    0    0  501    0  0.00000000000E+00 -0.00000000000E+00 -0.26745660540E+04  0.26745660540E+04  0.00000000000E+00 0.  1.
         23    2    1    2    0    0  0.11897546653E+03 -0.83766958249E+03 -0.11559225406E+04  0.14353519170E+04  0.90734307911E+02 0.  0.
        254    2    1    2    0    0 -0.11897546653E+03  0.83766958249E+03 -0.11122094543E+04  0.16456481960E+04  0.86908148277E+03 0.  0.
         23    2    4    4    0    0 -0.19219685336E+03  0.85026845191E+03 -0.47366651360E+03  0.99644304568E+03  0.92966157406E+02 0.  0.
         23    2    4    4    0    0  0.73221386826E+02 -0.12598869424E+02 -0.63854294075E+03  0.64920515035E+03  0.90609806636E+02 0.  0.
          4    1    3    3  502    0  0.58328332422E+02 -0.32265582146E+03 -0.37752885945E+03  0.50003701183E+03  0.00000000000E+00 0. -1.
         -4    1    3    3    0  502  0.60647134109E+02 -0.51501376103E+03 -0.77839368119E+03  0.93531490518E+03  0.00000000000E+00 0.  1.
         11    1    5    5    0    0 -0.23353395655E+02  0.27020582195E+03 -0.12180332997E+03  0.29730896134E+03  0.00000000000E+00 0. -1.
        -11    1    5    5    0    0 -0.16884345770E+03  0.58006262997E+03 -0.35186318362E+03  0.69913408434E+03  0.00000000000E+00 0.  1.
          1    1    6    6  503    0  0.56307215802E+01  0.19749338940E+02 -0.31813837702E+02  0.37866366124E+02  0.00000000000E+00 0. -1.
         -1    1    6    6    0  503  0.67590665246E+02 -0.32348208364E+02 -0.60672910305E+03  0.61133878423E+03  0.00000000000E+00 0.  1.
<mgrwt>
<rscale>  0 0.20852192E+04</rscale>
<asrwt>0</asrwt>
<pdfrwt beam="1">  1        2 0.41147169E+00 0.20852192E+04</pdfrwt>
<pdfrwt beam="2">  1       -2 0.62528318E-01 0.20852192E+04</pdfrwt>
<totfact> 0.60231672E+00</totfact>
</mgrwt>
</event>
<event>
12    2  0.3518828E-008  0.2181440E+04  0.7818608E-02  0.8526193E-01
         -2   -1    0    0    0  501 -0.00000000000E+00  0.00000000000E+00  0.54959871893E+03  0.54959871893E+03  0.00000000000E+00 0.  1.
          2   -1    0    0  501    0  0.00000000000E+00 -0.00000000000E+00 -0.21646164538E+04  0.21646164538E+04  0.00000000000E+00 0. -1.
         23    2    1    2    0    0  0.45026457942E+03 -0.64278011865E+03 -0.12515848526E+04  0.14799438265E+04  0.88682657984E+02 0.  0.
        254    2    1    2    0    0 -0.45026457942E+03  0.64278011865E+03 -0.36343288223E+03  0.12342713462E+04  0.88058947519E+03 0.  0.
         23    2    4    4    0    0 -0.51379808811E+03  0.28175189700E+03 -0.55339627048E+03  0.81136292615E+03  0.93218876572E+02 0.  0.
         23    2    4    4    0    0  0.63533508691E+02  0.36102822164E+03  0.18996338825E+03  0.42290842007E+03  0.91583619392E+02 0.  0.
          4    1    3    3  502    0  0.27197833217E+03 -0.39142015899E+03 -0.67732990224E+03  0.82822566399E+03  0.00000000000E+00 0. -1.
         -4    1    3    3    0  502  0.17828624725E+03 -0.25135995966E+03 -0.57425495040E+03  0.65171816251E+03  0.00000000000E+00 0.  1.
         11    1    5    5    0    0 -0.27326400753E+02 -0.61591061862E+01 -0.28433972987E+02  0.39914378199E+02  0.00000000000E+00 0.  1.
        -11    1    5    5    0    0 -0.48647168736E+03  0.28791100319E+03 -0.52496229749E+03  0.77144854796E+03  0.00000000000E+00 0. -1.
          3    1    6    6  503    0  0.16757210952E+02  0.27773068848E+03  0.11330497601E+03  0.30042163210E+03  0.00000000000E+00 0. -1.
         -3    1    6    6    0  503  0.46776297739E+02  0.83297533164E+02  0.76658412237E+02  0.12248678797E+03  0.00000000000E+00 0.  1.
<mgrwt>
<rscale>  0 0.21814403E+04</rscale>
<asrwt>0</asrwt>
<pdfrwt beam="1">  1        2 0.33301792E+00 0.21814403E+04</pdfrwt>
<pdfrwt beam="2">  1       -2 0.84553649E-01 0.21814403E+04</pdfrwt>
<totfact> 0.60340215E+00</totfact>
</mgrwt>
</event>
<event>
12    2  0.3518828E-008  0.1516621E+04  0.7818608E-02  0.8873475E-01
          1   -1    0    0  501    0  0.00000000000E+00  0.00000000000E+00  0.24058604120E+04  0.24058604120E+04  0.00000000000E+00 0. -1.
         -1   -1    0    0    0  501 -0.00000000000E+00 -0.00000000000E+00 -0.23901410653E+03  0.23901410653E+03  0.00000000000E+00 0.  1.
         23    2    1    2    0    0 -0.23640821690E+03 -0.25712894996E+03  0.11857200565E+03  0.38174876559E+03  0.98329332258E+02 0.  0.
        254    2    1    2    0    0  0.23640821690E+03  0.25712894996E+03  0.20482742999E+04  0.22631257530E+04  0.89683132439E+03 0.  0.
         23    2    4    4    0    0  0.54973602346E+03  0.19863797379E+03  0.98218756230E+03  0.11466205683E+04  0.91540046097E+02 0.  0.
         23    2    4    4    0    0 -0.31332780656E+03  0.58490976161E+02  0.10660867375E+04  0.11165051846E+04  0.91909666003E+02 0.  0.
          1    1    3    3  502    0 -0.90622968325E+02 -0.35811443346E+02  0.39952377102E+02  0.10531464427E+03  0.00000000000E+00 0. -1.
         -1    1    3    3    0  502 -0.14578524857E+03 -0.22131750661E+03  0.78619628546E+02  0.27643412131E+03  0.00000000000E+00 0.  1.
         11    1    5    5    0    0  0.27083813043E+03  0.12960226239E+03  0.56897014822E+03  0.64333278238E+03  0.00000000000E+00 0. -1.
        -11    1    5    5    0    0  0.27889789303E+03  0.69035711408E+02  0.41321741408E+03  0.50328778595E+03  0.00000000000E+00 0.  1.
          3    1    6    6  503    0  0.65718021807E+00 -0.10115722304E+02  0.26537035715E+02  0.28407287588E+02  0.00000000000E+00 0. -1.
         -3    1    6    6    0  503 -0.31398498678E+03  0.68606698465E+02  0.10395497018E+04  0.10880978971E+04  0.00000000000E+00 0.  1.
<mgrwt>
<rscale>  0 0.15166207E+04</rscale>
<asrwt>0</asrwt>
<pdfrwt beam="1">  1        1 0.37013235E+00 0.15166207E+04</pdfrwt>
<pdfrwt beam="2">  1       -1 0.36771403E-01 0.15166207E+04</pdfrwt>
<totfact> 0.10816912E+01</totfact>
</mgrwt>
</event>
<event>
12    2  0.3518828E-008  0.2121548E+04  0.7818608E-02  0.8551810E-01
          1   -1    0    0  501    0  0.00000000000E+00  0.00000000000E+00  0.10586711801E+04  0.10586711801E+04  0.00000000000E+00 0. -1.
         -1   -1    0    0    0  501 -0.00000000000E+00 -0.00000000000E+00 -0.10628808003E+04  0.10628808003E+04  0.00000000000E+00 0.  1.
         23    2    1    2    0    0 -0.44111085554E+03  0.20012926248E+03 -0.71961426150E+03  0.87225405720E+03  0.91388983926E+02 0.  0.
        254    2    1    2    0    0  0.44111085554E+03 -0.20012926248E+03  0.71540464133E+03  0.12492979232E+04  0.90239181701E+03 0.  0.
         23    2    4    4    0    0 -0.15241589025E+02 -0.14080548397E+03 -0.17554488867E+03  0.24234636249E+03  0.88641193162E+02 0.  0.
         23    2    4    4    0    0  0.45635244456E+03 -0.59323778510E+02  0.89094953000E+03  0.10069515607E+04  0.91561543138E+02 0.  0.
          2    1    3    3  502    0 -0.14154028781E+02 -0.96286702315E+01 -0.21713854760E+02  0.27650303972E+02  0.00000000000E+00 0. -1.
         -2    1    3    3    0  502 -0.42695682675E+03  0.20975793271E+03 -0.69790040674E+03  0.84460375323E+03  0.00000000000E+00 0.  1.
         11    1    5    5    0    0  0.28395692749E+02 -0.26401179255E+02 -0.72900863590E+02  0.82570415676E+02  0.00000000000E+00 0. -1.
        -11    1    5    5    0    0 -0.43637281773E+02 -0.11440430471E+03 -0.10264402508E+03  0.15977594682E+03  0.00000000000E+00 0.  1.
          2    1    6    6  503    0  0.46485431553E+02  0.21409348801E+02  0.10874533568E+03  0.12018653666E+03  0.00000000000E+00 0. -1.
         -2    1    6    6    0  503  0.40986701301E+03 -0.80733127311E+02  0.78220419432E+03  0.88676502401E+03  0.00000000000E+00 0.  1.
<mgrwt>
<rscale>  0 0.21215478E+04</rscale>
<asrwt>0</asrwt>
<pdfrwt beam="1">  1        1 0.16287249E+00 0.21215478E+04</pdfrwt>
<pdfrwt beam="2">  1       -1 0.16352012E+00 0.21215478E+04</pdfrwt>
<totfact> 0.34395742E+00</totfact>
</mgrwt>
</event>
<event>
12    2  0.3518828E-008  0.1470234E+04  0.7818608E-02  0.8904492E-01
         -2   -1    0    0    0  501 -0.00000000000E+00  0.00000000000E+00  0.13924394998E+04  0.13924394998E+04  0.00000000000E+00 0.  1.
          2   -1    0    0  501    0  0.00000000000E+00 -0.00000000000E+00 -0.38809372509E+03  0.38809372509E+03  0.00000000000E+00 0. -1.
         23    2    1    2    0    0  0.32036331149E+03 -0.21754826595E+03  0.27395447383E+02  0.39964893453E+03  0.94915019728E+02 0.  0.
        254    2    1    2    0    0 -0.32036331149E+03  0.21754826595E+03  0.97695032738E+03  0.13808842904E+04  0.89579550231E+03 0.  0.
         23    2    4    4    0    0 -0.29774188094E+03 -0.29682919423E+03  0.58259064267E+03  0.72578850284E+03  0.10295288105E+03 0.  0.
         23    2    4    4    0    0 -0.22621430543E+02  0.51437746018E+03  0.39435968471E+03  0.65509578756E+03  0.92385222273E+02 0.  0.
          3    1    3    3  502    0  0.22162599503E+03 -0.15842612826E+03 -0.24254427762E+02  0.27350538761E+03  0.00000000000E+00 0. -1.
         -3    1    3    3    0  502  0.98737316460E+02 -0.59122137688E+02  0.51649875144E+02  0.12614354692E+03  0.00000000000E+00 0.  1.
         11    1    5    5    0    0 -0.16408335871E+03 -0.22791002384E+03  0.40880160607E+03  0.49596883037E+03  0.00000000000E+00 0. -1.
        -11    1    5    5    0    0 -0.13365852224E+03 -0.68919170389E+02  0.17378903660E+03  0.22981967247E+03  0.00000000000E+00 0.  1.
          1    1    6    6  503    0  0.84560063693E+01  0.45977104528E+03  0.35524102455E+03  0.58108269949E+03  0.00000000000E+00 0. -1.
         -1    1    6    6    0  503 -0.31077436912E+02  0.54606414902E+02  0.39118660156E+02  0.74013088071E+02  0.00000000000E+00 0.  1.
<mgrwt>
<rscale>  0 0.14702340E+04</rscale>
<asrwt>0</asrwt>
<pdfrwt beam="1">  1        2 0.59706728E-01 0.14702340E+04</pdfrwt>
<pdfrwt beam="2">  1       -2 0.21422146E+00 0.14702340E+04</pdfrwt>
<totfact> 0.85648945E+00</totfact>
</mgrwt>
</event>
<event>
12    2  0.3518828E-008  0.1523432E+04  0.7818608E-02  0.8869018E-01
          2   -1    0    0  501    0  0.00000000000E+00  0.00000000000E+00  0.17366990142E+04  0.17366990142E+04  0.00000000000E+00 0.  1.
         -2   -1    0    0    0  501 -0.00000000000E+00 -0.00000000000E+00 -0.33408871700E+03  0.33408871700E+03  0.00000000000E+00 0. -1.
         23    2    1    2    0    0 -0.26063827339E+03  0.23691945543E+03  0.85084643961E+03  0.92539651456E+03  0.91410652732E+02 0.  0.
        254    2    1    2    0    0  0.26063827339E+03 -0.23691945543E+03  0.55176385759E+03  0.11453912166E+04  0.93990134945E+03 0.  0.
         23    2    4    4    0    0 -0.57414756367E+02 -0.24816523672E+03 -0.19092993298E+03  0.33112406938E+03  0.91139843365E+02 0.  0.
         23    2    4    4    0    0  0.31805302976E+03  0.11245781293E+02  0.74269379057E+03  0.81426714726E+03  0.10076072261E+03 0.  0.
          1    1    3    3  502    0 -0.54279051829E+01  0.37437293628E+02  0.61936247341E+02  0.72574870606E+02  0.00000000000E+00 0. -1.
         -1    1    3    3    0  502 -0.25521036821E+03  0.19948216180E+03  0.78891019227E+03  0.85282164395E+03  0.00000000000E+00 0.  1.
         11    1    5    5    0    0 -0.74173198215E+02 -0.18609447001E+03 -0.17216878869E+03  0.26414940262E+03  0.00000000000E+00 0.  1.
        -11    1    5    5    0    0  0.16758441848E+02 -0.62070766708E+02 -0.18761144288E+02  0.66974666763E+02  0.00000000000E+00 0. -1.
          2    1    6    6  503    0  0.10446110928E+03 -0.13406135695E+02  0.14603367744E+03  0.18004911212E+03  0.00000000000E+00 0. -1.
         -2    1    6    6    0  503  0.21359192048E+03  0.24651916987E+02  0.59666011313E+03  0.63421803514E+03  0.00000000000E+00 0.  1.
<mgrwt>
<rscale>  0 0.15234324E+04</rscale>
<asrwt>0</asrwt>
<pdfrwt beam="1">  1        2 0.26718446E+00 0.15234324E+04</pdfrwt>
<pdfrwt beam="2">  1       -2 0.51398265E-01 0.15234324E+04</pdfrwt>
<totfact> 0.32270922E+01</totfact>
</mgrwt>
</event>
<event>
12    2  0.3518828E-008  0.1333389E+04  0.7818608E-02  0.9003499E-01
          2   -1    0    0  501    0  0.00000000000E+00  0.00000000000E+00  0.17880259896E+04  0.17880259896E+04  0.00000000000E+00 0. -1.
         -2   -1    0    0    0  501 -0.00000000000E+00 -0.00000000000E+00 -0.24858779590E+03  0.24858779590E+03  0.00000000000E+00 0.  1.
         23    2    1    2    0    0  0.18206138244E+03 -0.56663117972E+02 -0.36104477187E+02  0.21448439614E+03  0.91339843454E+02 0.  0.
        254    2    1    2    0    0 -0.18206138244E+03  0.56663117972E+02  0.15755426709E+04  0.18221293893E+04  0.89524507698E+03 0.  0.
         23    2    4    4    0    0  0.25671242993E+03 -0.70013538793E+02  0.14417235789E+03  0.31685893589E+03  0.93865591015E+02 0.  0.
         23    2    4    4    0    0 -0.43877381237E+03  0.12667665677E+03  0.14313703130E+04  0.15052704534E+04  0.91916980782E+02 0.  0.
          1    1    3    3  502    0  0.29886081669E+00 -0.80922896984E+01 -0.24705958535E+02  0.25999208786E+02  0.00000000000E+00 0. -1.
         -1    1    3    3    0  502  0.18176252162E+03 -0.48570828274E+02 -0.11398518651E+02  0.18848518736E+03  0.00000000000E+00 0.  1.
         11    1    5    5    0    0  0.12730849485E+03 -0.75966412991E+02  0.49085714159E+02  0.15616579682E+03  0.00000000000E+00 0. -1.
        -11    1    5    5    0    0  0.12940393509E+03  0.59528741979E+01  0.95086643726E+02  0.16069313907E+03  0.00000000000E+00 0.  1.
          2    1    6    6  503    0 -0.36462775427E+03  0.12602903927E+03  0.12772122273E+04  0.13342068024E+04  0.00000000000E+00 0. -1.
         -2    1    6    6    0  503 -0.74146058104E+02  0.64761749519E+00  0.15415808568E+03  0.17106365108E+03  0.00000000000E+00 0.  1.
<mgrwt>
<rscale>  0 0.13333888E+04</rscale>
<asrwt>0</asrwt>
<pdfrwt beam="1">  1        2 0.27508091E+00 0.13333888E+04</pdfrwt>
<pdfrwt beam="2">  1       -2 0.38244277E-01 0.13333888E+04</pdfrwt>
<totfact> 0.55320041E+01</totfact>
</mgrwt>
</event>
<event>
12    2  0.3518828E-008  0.1378457E+04  0.7818608E-02  0.8969562E-01
         -2   -1    0    0    0  501 -0.00000000000E+00  0.00000000000E+00  0.15074159291E+04  0.15074159291E+04  0.00000000000E+00 0.  1.
          2   -1    0    0  501    0  0.00000000000E+00 -0.00000000000E+00 -0.31513272136E+03  0.31513272136E+03  0.00000000000E+00 0. -1.
         23    2    1    2    0    0  0.11018528941E+03  0.32571317343E+03  0.57335701286E+03  0.67476440610E+03  0.91317414560E+02 0.  0.
        254    2    1    2    0    0 -0.11018528941E+03 -0.32571317343E+03  0.61892619490E+03  0.11477842444E+04  0.90338760648E+03 0.  0.
         23    2    4    4    0    0  0.36246058357E+02 -0.29847021906E+03  0.82222485639E+03  0.88003774922E+03  0.89523612324E+02 0.  0.
         23    2    4    4    0    0 -0.14643134776E+03 -0.27242954367E+02 -0.20329866149E+03  0.26774649515E+03  0.90407531396E+02 0.  0.
          1    1    3    3  502    0  0.60974885826E+02  0.18291848037E+03  0.23323112927E+03  0.30261174270E+03  0.00000000000E+00 0. -1.
         -1    1    3    3    0  502  0.49210403580E+02  0.14279469306E+03  0.34012588359E+03  0.37215266340E+03  0.00000000000E+00 0.  1.
         11    1    5    5    0    0  0.73541747345E+01 -0.71462358991E+00  0.31323911857E+01  0.80253627607E+01  0.00000000000E+00 0. -1.
        -11    1    5    5    0    0  0.28891883622E+02 -0.29775559547E+03  0.81909246520E+03  0.87201238645E+03  0.00000000000E+00 0.  1.
          2    1    6    6  503    0 -0.13047338343E+02 -0.24963635934E+02 -0.47828927587E+01  0.28570828130E+02  0.00000000000E+00 0. -1.
         -2    1    6    6    0  503 -0.13338400942E+03 -0.22793184332E+01 -0.19851576873E+03  0.23917566702E+03  0.00000000000E+00 0.  1.
<mgrwt>
<rscale>  0 0.13784572E+04</rscale>
<asrwt>0</asrwt>
<pdfrwt beam="1">  1        2 0.48481958E-01 0.13784572E+04</pdfrwt>
<pdfrwt beam="2">  1       -2 0.23191014E+00 0.13784572E+04</pdfrwt>
<totfact> 0.84279662E+00</totfact>
</mgrwt>
</event>
<event>
12    2  0.3518828E-008  0.2124943E+04  0.7818608E-02  0.8550335E-01
         -2   -1    0    0    0  501 -0.00000000000E+00  0.00000000000E+00  0.11259244787E+04  0.11259244787E+04  0.00000000000E+00 0.  1.
          2   -1    0    0  501    0  0.00000000000E+00 -0.00000000000E+00 -0.10025945821E+04  0.10025945821E+04  0.00000000000E+00 0. -1.
         23    2    1    2    0    0  0.64258315559E+03  0.17644356317E+03  0.61333680475E+03  0.91140766714E+03  0.10215897814E+03 0.  0.
        254    2    1    2    0    0 -0.64258315559E+03 -0.17644356317E+03 -0.49000690821E+03  0.12171113937E+04  0.89286501311E+03 0.  0.
         23    2    4    4    0    0 -0.71201535855E+03 -0.34323352690E+02 -0.26093736006E+02  0.71900617685E+03  0.90249852851E+02 0.  0.
         23    2    4    4    0    0  0.69432202958E+02 -0.14212021048E+03 -0.46391317221E+03  0.49810521680E+03  0.88737763253E+02 0.  0.
          3    1    3    3  502    0  0.13458270458E+03  0.30061323696E+02  0.75367849191E+02  0.15715120186E+03  0.00000000000E+00 0. -1.
         -3    1    3    3    0  502  0.50800045101E+03  0.14638223948E+03  0.53796895556E+03  0.75425646528E+03  0.00000000000E+00 0.  1.
         11    1    5    5    0    0 -0.45146473607E+03  0.21843837320E+02 -0.15289872650E+02  0.45225141387E+03  0.00000000000E+00 0. -1.
        -11    1    5    5    0    0 -0.26055062248E+03 -0.56167190010E+02 -0.10803863357E+02  0.26675476298E+03  0.00000000000E+00 0.  1.
          4    1    6    6  503    0 -0.79398655147E+01 -0.83017952363E+02 -0.23443211433E+03  0.24882411079E+03  0.00000000000E+00 0. -1.
         -4    1    6    6    0  503  0.77372068472E+02 -0.59102258120E+02 -0.22948105787E+03  0.24928110602E+03  0.00000000000E+00 0.  1.
<mgrwt>
<rscale>  0 0.21249431E+04</rscale>
<asrwt>0</asrwt>
<pdfrwt beam="1">  1        2 0.15424532E+00 0.21249431E+04</pdfrwt>
<pdfrwt beam="2">  1       -2 0.17321915E+00 0.21249431E+04</pdfrwt>
<totfact> 0.46659716E+00</totfact>
</mgrwt>
</event>
<event>
12    2  0.3518828E-008  0.1441798E+04  0.7818608E-02  0.8924107E-01
         -2   -1    0    0    0  501 -0.00000000000E+00  0.00000000000E+00  0.31696284678E+03  0.31696284678E+03  0.00000000000E+00 0. -1.
          2   -1    0    0  501    0  0.00000000000E+00 -0.00000000000E+00 -0.16396099208E+04  0.16396099208E+04  0.00000000000E+00 0.  1.
         23    2    1    2    0    0  0.24644953966E+03  0.45726129347E+02  0.72475690760E+02  0.27947760246E+03  0.10013366077E+03 0.  0.
        254    2    1    2    0    0 -0.24644953966E+03 -0.45726129347E+02 -0.13951227648E+04  0.16770951651E+04  0.89635506893E+03 0.  0.
         23    2    4    4    0    0 -0.46823638310E+03 -0.21326302609E+03 -0.12431220440E+04  0.13484633453E+04  0.90964544809E+02 0.  0.
         23    2    4    4    0    0  0.22178684343E+03  0.16753689674E+03 -0.15200072073E+03  0.32863181985E+03  0.87387860864E+02 0.  0.
          2    1    3    3  502    0  0.13242480450E+03 -0.20277406689E+02  0.11981712980E+02  0.13450302418E+03  0.00000000000E+00 0.  1.
         -2    1    3    3    0  502  0.11402473517E+03  0.66003536036E+02  0.60493977779E+02  0.14497457828E+03  0.00000000000E+00 0. -1.
         11    1    5    5    0    0 -0.40557992574E+03 -0.14727052681E+03 -0.10242059719E+04  0.11113872219E+04  0.00000000000E+00 0.  1.
        -11    1    5    5    0    0 -0.62656457353E+02 -0.65992499282E+02 -0.21891607214E+03  0.23707612332E+03  0.00000000000E+00 0. -1.
          4    1    6    6  503    0 -0.38061318489E+01 -0.79052506923E+00  0.50009154636E+01  0.63340922799E+01  0.00000000000E+00 0. -1.
         -4    1    6    6    0  503  0.22559297528E+03  0.16832742181E+03 -0.15700163620E+03  0.32229772757E+03  0.00000000000E+00 0.  1.
<mgrwt>
<rscale>  0 0.14417981E+04</rscale>
<asrwt>0</asrwt>
<pdfrwt beam="1">  1        2 0.25224768E+00 0.14417981E+04</pdfrwt>
<pdfrwt beam="2">  1       -2 0.48763515E-01 0.14417981E+04</pdfrwt>
<totfact> 0.40945580E+01</totfact>
</mgrwt>
</event>
<event>
12    2  0.3518828E-008  0.2306253E+04  0.7818608E-02  0.8475460E-01
         -2   -1    0    0    0  501 -0.00000000000E+00  0.00000000000E+00  0.11639932640E+04  0.11639932640E+04  0.00000000000E+00 0.  1.
          2   -1    0    0  501    0  0.00000000000E+00 -0.00000000000E+00 -0.11423611466E+04  0.11423611466E+04  0.00000000000E+00 0. -1.
         23    2    1    2    0    0 -0.61199355091E+03 -0.71099259128E+03  0.27773934660E+03  0.98273063875E+03  0.92594775707E+02 0.  0.
        254    2    1    2    0    0  0.61199355091E+03  0.71099259128E+03 -0.25610722918E+03  0.13236237719E+04  0.89796570391E+03 0.  0.
         23    2    4    4    0    0  0.52382600677E+02  0.71005728970E+03 -0.23678314037E+03  0.75582571512E+03  0.90999805241E+02 0.  0.
         23    2    4    4    0    0  0.55961095023E+03  0.93530157735E+00 -0.19324088816E+02  0.56779805675E+03  0.94105910724E+02 0.  0.
          1    1    3    3  502    0 -0.47324319731E+03 -0.57810735635E+03  0.25423290554E+03  0.78917780603E+03  0.00000000000E+00 0. -1.
         -1    1    3    3    0  502 -0.13875035359E+03 -0.13288523493E+03  0.23506441066E+02  0.19355283273E+03  0.00000000000E+00 0.  1.
         11    1    5    5    0    0  0.95475990931E+01  0.59180652103E+03 -0.18989199554E+03  0.62159881351E+03  0.00000000000E+00 0.  1.
        -11    1    5    5    0    0  0.42835001584E+02  0.11825076867E+03 -0.46891144825E+02  0.13422690161E+03  0.00000000000E+00 0. -1.
          4    1    6    6  503    0  0.90350081712E+01  0.40378572498E+01 -0.14053351119E+02  0.17188145377E+02  0.00000000000E+00 0. -1.
         -4    1    6    6    0  503  0.55057594206E+03 -0.31025556724E+01 -0.52707376971E+01  0.55060991137E+03  0.00000000000E+00 0.  1.
<mgrwt>
<rscale>  0 0.23062530E+04</rscale>
<asrwt>0</asrwt>
<pdfrwt beam="1">  1        2 0.17574787E+00 0.23062530E+04</pdfrwt>
<pdfrwt beam="2">  1       -2 0.17907589E+00 0.23062530E+04</pdfrwt>
<totfact> 0.34216777E+00</totfact>
</mgrwt>
</event>
<event>
12    2  0.3518828E-008  0.2055653E+04  0.7818608E-02  0.8581034E-01
          1   -1    0    0  501    0  0.00000000000E+00  0.00000000000E+00  0.21236806491E+04  0.21236806491E+04  0.00000000000E+00 0. -1.
         -1   -1    0    0    0  501 -0.00000000000E+00 -0.00000000000E+00 -0.49745089763E+03  0.49745089763E+03  0.00000000000E+00 0.  1.
         23    2    1    2    0    0 -0.65502960682E+02 -0.32861981366E+03 -0.30653872517E+03  0.46322104127E+03  0.91247593145E+02 0.  0.
        254    2    1    2    0    0  0.65502960682E+02  0.32861981366E+03  0.19327684766E+04  0.21579105055E+04  0.89927868066E+03 0.  0.
         23    2    4    4    0    0 -0.53621293432E+02 -0.29855338199E+03  0.64680103928E+03  0.71937819911E+03  0.84522446345E+02 0.  0.
         23    2    4    4    0    0  0.11912425411E+03  0.62717319565E+03  0.12859674374E+04  0.14385323063E+04  0.90145111894E+02 0.  0.
          3    1    3    3  502    0 -0.13829775196E+02 -0.21664312822E+01 -0.26787524080E+01  0.14252432106E+02  0.00000000000E+00 0. -1.
         -3    1    3    3    0  502 -0.51673185486E+02 -0.32645338238E+03 -0.30385997276E+03  0.44896860916E+03  0.00000000000E+00 0.  1.
         11    1    5    5    0    0 -0.29825283091E+02 -0.22771144765E+03  0.55739362441E+03  0.60285131121E+03  0.00000000000E+00 0. -1.
        -11    1    5    5    0    0 -0.23796010341E+02 -0.70841934336E+02  0.89407414875E+02  0.11652688790E+03  0.00000000000E+00 0.  1.
          3    1    6    6  503    0  0.37944369508E+02  0.42732657784E+03  0.85280157364E+03  0.95462993003E+03  0.00000000000E+00 0. -1.
         -3    1    6    6    0  503  0.81179884606E+02  0.19984661781E+03  0.43316586371E+03  0.48390237631E+03  0.00000000000E+00 0.  1.
<mgrwt>
<rscale>  0 0.20556525E+04</rscale>
<asrwt>0</asrwt>
<pdfrwt beam="1">  1        1 0.32672009E+00 0.20556525E+04</pdfrwt>
<pdfrwt beam="2">  1       -1 0.76530909E-01 0.20556525E+04</pdfrwt>
<totfact> 0.38846630E+00</totfact>
</mgrwt>
</event>
<event>
12    2  0.3518828E-008  0.1863529E+04  0.7818608E-02  0.8673226E-01
          1   -1    0    0  501    0  0.00000000000E+00  0.00000000000E+00  0.27591643237E+04  0.27591643237E+04  0.00000000000E+00 0. -1.
         -1   -1    0    0    0  501 -0.00000000000E+00 -0.00000000000E+00 -0.31465501523E+03  0.31465501523E+03  0.00000000000E+00 0.  1.
         23    2    1    2    0    0  0.23590404392E+03  0.24708903723E+03 -0.88472859007E+02  0.36463977513E+03  0.91820523676E+02 0.  0.
        254    2    1    2    0    0 -0.23590404392E+03 -0.24708903723E+03  0.25329821675E+04  0.27091795638E+04  0.89830481348E+03 0.  0.
         23    2    4    4    0    0  0.74632543440E+02 -0.38603374160E+03  0.21620514284E+04  0.21994351694E+04  0.91959879273E+02 0.  0.
         23    2    4    4    0    0 -0.31053658736E+03  0.13894470437E+03  0.37093073909E+03  0.50974439436E+03  0.80691582097E+02 0.  0.
          3    1    3    3  502    0  0.20730241344E+03  0.24555643675E+03 -0.65605140575E+02  0.32798824478E+03  0.00000000000E+00 0. -1.
         -3    1    3    3    0  502  0.28601630482E+02  0.15326004824E+01 -0.22867718433E+02  0.36651530347E+02  0.00000000000E+00 0.  1.
         11    1    5    5    0    0  0.38463534057E+02 -0.15557113503E+03  0.11326757132E+04  0.11439563334E+04  0.00000000000E+00 0.  1.
        -11    1    5    5    0    0  0.36169009383E+02 -0.23046260656E+03  0.10293757151E+04  0.10554788360E+04  0.00000000000E+00 0. -1.
          3    1    6    6  503    0 -0.16428781044E+03  0.63693088440E+02  0.13420970240E+03  0.22149387890E+03  0.00000000000E+00 0.  1.
         -3    1    6    6    0  503 -0.14624877692E+03  0.75251615925E+02  0.23672103669E+03  0.28825051546E+03  0.00000000000E+00 0. -1.
<mgrwt>
<rscale>  0 0.18635288E+04</rscale>
<asrwt>0</asrwt>
<pdfrwt beam="1">  1        1 0.42448680E+00 0.18635288E+04</pdfrwt>
<pdfrwt beam="2">  1       -1 0.48408466E-01 0.18635288E+04</pdfrwt>
<totfact> 0.35757254E+00</totfact>
</mgrwt>
</event>
<event>
12    2  0.3518828E-008  0.2007304E+04  0.7818608E-02  0.8603214E-01
         -1   -1    0    0    0  501 -0.00000000000E+00  0.00000000000E+00  0.78132305734E+03  0.78132305734E+03  0.00000000000E+00 0.  1.
          1   -1    0    0  501    0  0.00000000000E+00 -0.00000000000E+00 -0.12892453303E+04  0.12892453303E+04  0.00000000000E+00 0. -1.
         23    2    1    2    0    0  0.59129990800E+03  0.51219067908E+03 -0.38917503325E+03  0.87846199658E+03  0.90903245276E+02 0.  0.
        254    2    1    2    0    0 -0.59129990800E+03 -0.51219067908E+03 -0.11874723975E+03  0.11921063911E+04  0.89165120301E+03 0.  0.
         23    2    4    4    0    0  0.83403830106E+02  0.71872554646E+02 -0.24790156161E+03  0.28575235441E+03  0.89874138755E+02 0.  0.
         23    2    4    4    0    0 -0.67470373810E+03 -0.58406323373E+03  0.12915432185E+03  0.90635403669E+03  0.91879300014E+02 0.  0.
          4    1    3    3  502    0  0.13707125326E+03  0.13897357389E+03 -0.13859283855E+03  0.23939540014E+03  0.00000000000E+00 0. -1.
         -4    1    3    3    0  502  0.45422865473E+03  0.37321710520E+03 -0.25058219470E+03  0.63906659645E+03  0.00000000000E+00 0.  1.
         11    1    5    5    0    0  0.93370336534E+02  0.30182748482E+02 -0.15518400124E+03  0.18360580681E+03  0.00000000000E+00 0. -1.
        -11    1    5    5    0    0 -0.99665064274E+01  0.41689806164E+02 -0.92717560361E+02  0.10214654761E+03  0.00000000000E+00 0.  1.
          3    1    6    6  503    0 -0.66783524077E+03 -0.58626598588E+03  0.13236075108E+03  0.89846039614E+03  0.00000000000E+00 0. -1.
         -3    1    6    6    0  503 -0.68684973382E+01  0.22027521530E+01 -0.32064292287E+01  0.78936405499E+01  0.00000000000E+00 0.  1.
<mgrwt>
<rscale>  0 0.20073038E+04</rscale>
<asrwt>0</asrwt>
<pdfrwt beam="1">  1        1 0.19834544E+00 0.20073038E+04</pdfrwt>
<pdfrwt beam="2">  1       -1 0.12020355E+00 0.20073038E+04</pdfrwt>
<totfact> 0.52629091E+00</totfact>
</mgrwt>
</event>
<event>
12    2  0.3518828E-008  0.1715758E+04  0.7818608E-02  0.8752427E-01
          2   -1    0    0  501    0  0.00000000000E+00  0.00000000000E+00  0.86047422400E+03  0.86047422400E+03  0.00000000000E+00 0.  1.
         -2   -1    0    0    0  501 -0.00000000000E+00 -0.00000000000E+00 -0.85529200601E+03  0.85529200601E+03  0.00000000000E+00 0. -1.
         23    2    1    2    0    0  0.13217521903E+03  0.16317495565E+03 -0.58130103272E+03  0.62478750913E+03  0.91390296186E+02 0.  0.
        254    2    1    2    0    0 -0.13217521903E+03 -0.16317495565E+03  0.58648325072E+03  0.10909787209E+04  0.89564256899E+03 0.  0.
         23    2    4    4    0    0  0.13310260659E+03 -0.44841588968E+03  0.15649121691E+03  0.50361274539E+03  0.10170143731E+03 0.  0.
         23    2    4    4    0    0 -0.26527782562E+03  0.28524093402E+03  0.42999203381E+03  0.58736597550E+03  0.91492758379E+02 0.  0.
          1    1    3    3  502    0  0.69629053042E+02  0.13816370269E+03 -0.46869689524E+03  0.49357288558E+03  0.00000000000E+00 0. -1.
         -1    1    3    3    0  502  0.62546165992E+02  0.25011252963E+02 -0.11260413748E+03  0.13121462355E+03  0.00000000000E+00 0.  1.
         11    1    5    5    0    0  0.13408723321E+03 -0.28609224187E+03  0.11307542718E+03  0.33558040646E+03  0.00000000000E+00 0. -1.
        -11    1    5    5    0    0 -0.98462662323E+00 -0.16232364781E+03  0.43415789728E+02  0.16803233893E+03  0.00000000000E+00 0.  1.
          3    1    6    6  503    0 -0.14465195902E+03  0.10486106353E+03  0.15103660079E+03  0.23394889756E+03  0.00000000000E+00 0. -1.
         -3    1    6    6    0  503 -0.12062586660E+03  0.18037987049E+03  0.27895543302E+03  0.35341707794E+03  0.00000000000E+00 0.  1.
<mgrwt>
<rscale>  0 0.17157584E+04</rscale>
<asrwt>0</asrwt>
<pdfrwt beam="1">  1        2 0.13238065E+00 0.17157584E+04</pdfrwt>
<pdfrwt beam="2">  1       -2 0.13158339E+00 0.17157584E+04</pdfrwt>
<totfact> 0.12490343E+01</totfact>
</mgrwt>
</event>
<event>
12    2  0.3518828E-008  0.1244712E+04  0.7818608E-02  0.9074596E-01
          1   -1    0    0  501    0  0.00000000000E+00  0.00000000000E+00  0.18477740446E+04  0.18477740446E+04  0.00000000000E+00 0. -1.
         -1   -1    0    0    0  501 -0.00000000000E+00 -0.00000000000E+00 -0.20961801016E+03  0.20961801016E+03  0.00000000000E+00 0.  1.
         23    2    1    2    0    0 -0.27906246481E+01  0.16693016993E+03  0.74633478652E+03  0.77025330668E+03  0.91657371045E+02 0.  0.
        254    2    1    2    0    0  0.27906246481E+01 -0.16693016993E+03  0.89182124788E+03  0.12871387480E+04  0.91296634622E+03 0.  0.
         23    2    4    4    0    0 -0.49058815967E+02 -0.52836871971E+03  0.62937420788E+03  0.82813083434E+03  0.90047286679E+02 0.  0.
         23    2    4    4    0    0  0.51849440615E+02  0.36143854978E+03  0.26244704000E+03  0.45900791371E+03  0.92106602838E+02 0.  0.
          3    1    3    3  502    0  0.23490546961E+02  0.11718157857E+03  0.62740137812E+03  0.63868287704E+03  0.00000000000E+00 0. -1.
         -3    1    3    3    0  502 -0.26281171609E+02  0.49748591363E+02  0.11893340840E+03  0.13157042965E+03  0.00000000000E+00 0.  1.
         11    1    5    5    0    0 -0.43666841505E+02 -0.49931801430E+03  0.55355916326E+03  0.74676168868E+03  0.00000000000E+00 0. -1.
        -11    1    5    5    0    0 -0.53919744623E+01 -0.29050705406E+02  0.75815044624E+02  0.81369145654E+02  0.00000000000E+00 0.  1.
          1    1    6    6  503    0  0.60782739705E+02  0.24401601747E+03  0.21906857589E+03  0.33351071822E+03  0.00000000000E+00 0. -1.
         -1    1    6    6    0  503 -0.89332990902E+01  0.11742253231E+03  0.43378464108E+02  0.12549719549E+03  0.00000000000E+00 0.  1.
<mgrwt>
<rscale>  0 0.12447116E+04</rscale>
<asrwt>0</asrwt>
<pdfrwt beam="1">  1        1 0.28427292E+00 0.12447116E+04</pdfrwt>
<pdfrwt beam="2">  1       -1 0.32248926E-01 0.12447116E+04</pdfrwt>
<totfact> 0.33522113E+01</totfact>
</mgrwt>
</event>
<event>
12    2  0.3518828E-008  0.2182635E+04  0.7818608E-02  0.8525691E-01
          2   -1    0    0  501    0  0.00000000000E+00  0.00000000000E+00  0.14680474403E+04  0.14680474403E+04  0.00000000000E+00 0. -1.
         -2   -1    0    0    0  501 -0.00000000000E+00 -0.00000000000E+00 -0.81126425470E+03  0.81126425470E+03  0.00000000000E+00 0.  1.
         23    2    1    2    0    0 -0.49281759886E+03  0.71255636227E+03  0.25916839735E+02  0.87129423960E+03  0.88748037840E+02 0.  0.
        254    2    1    2    0    0  0.49281759886E+03 -0.71255636227E+03  0.63086634584E+03  0.14080174554E+04  0.91318949465E+03 0.  0.
         23    2    4    4    0    0  0.38512326005E+03 -0.91053714206E+03  0.39266724464E+03  0.10675832329E+04  0.90269495182E+02 0.  0.
         23    2    4    4    0    0  0.10769433880E+03  0.19798077978E+03  0.23819910121E+03  0.34043422242E+03  0.91445000993E+02 0.  0.
          1    1    3    3  502    0 -0.18767797978E+03  0.22227481610E+03 -0.22536389259E+02  0.29178246487E+03  0.00000000000E+00 0. -1.
         -1    1    3    3    0  502 -0.30513961908E+03  0.49028154617E+03  0.48453228993E+02  0.57951177473E+03  0.00000000000E+00 0.  1.
         11    1    5    5    0    0  0.26467383895E+03 -0.54493395123E+03  0.20687870783E+03  0.64015939576E+03  0.00000000000E+00 0. -1.
        -11    1    5    5    0    0  0.12044942111E+03 -0.36560319082E+03  0.18578853680E+03  0.42742383718E+03  0.00000000000E+00 0.  1.
          2    1    6    6  503    0  0.55227842202E+01  0.14788780181E+02  0.69454581401E+02  0.71226034864E+02  0.00000000000E+00 0. -1.
         -2    1    6    6    0  503  0.10217155458E+03  0.18319199960E+03  0.16874451981E+03  0.26920818756E+03  0.00000000000E+00 0.  1.
<mgrwt>
<rscale>  0 0.21826355E+04</rscale>
<asrwt>0</asrwt>
<pdfrwt beam="1">  1        2 0.22585345E+00 0.21826355E+04</pdfrwt>
<pdfrwt beam="2">  1       -2 0.12480989E+00 0.21826355E+04</pdfrwt>
<totfact> 0.58315219E+00</totfact>
</mgrwt>
</event>
<event>
12    2  0.3518828E-008  0.1821987E+04  0.7818608E-02  0.8694694E-01
         -1   -1    0    0    0  501 -0.00000000000E+00  0.00000000000E+00  0.68952623297E+03  0.68952623297E+03  0.00000000000E+00 0.  1.
          1   -1    0    0  501    0  0.00000000000E+00 -0.00000000000E+00 -0.12035936388E+04  0.12035936388E+04  0.00000000000E+00 0. -1.
         23    2    1    2    0    0 -0.62285180512E+03 -0.26001394637E+03 -0.31905681347E+03  0.75151448587E+03  0.86169303120E+02 0.  0.
        254    2    1    2    0    0  0.62285180512E+03  0.26001394637E+03 -0.19501059232E+03  0.11416053859E+04  0.89982337292E+03 0.  0.
         23    2    4    4    0    0  0.13312528128E+01 -0.22231993476E+03  0.14457676114E+03  0.27979722143E+03  0.89197083115E+02 0.  0.
         23    2    4    4    0    0  0.62152055231E+03  0.48233388113E+03 -0.33958735346E+03  0.86180816442E+03  0.91978105036E+02 0.  0.
          2    1    3    3  502    0 -0.16696996460E+03 -0.92245774043E+02 -0.54579005964E+02  0.19841149109E+03  0.00000000000E+00 0. -1.
         -2    1    3    3    0  502 -0.45588184052E+03 -0.16776817233E+03 -0.26447780751E+03  0.55310299477E+03  0.00000000000E+00 0.  1.
         11    1    5    5    0    0 -0.23212815034E+02 -0.19959427892E+03  0.14239165819E+03  0.24627646108E+03  0.00000000000E+00 0. -1.
        -11    1    5    5    0    0  0.24544067847E+02 -0.22725655834E+02  0.21851029443E+01  0.33520760350E+02  0.00000000000E+00 0.  1.
          2    1    6    6  503    0  0.43077536831E+03  0.32364824774E+03 -0.18606744387E+03  0.57003219196E+03  0.00000000000E+00 0. -1.
         -2    1    6    6    0  503  0.19074518400E+03  0.15868563340E+03 -0.15351990959E+03  0.29177597246E+03  0.00000000000E+00 0.  1.
<mgrwt>
<rscale>  0 0.18219873E+04</rscale>
<asrwt>0</asrwt>
<pdfrwt beam="1">  1        1 0.18516825E+00 0.18219873E+04</pdfrwt>
<pdfrwt beam="2">  1       -1 0.10608096E+00 0.18219873E+04</pdfrwt>
<totfact> 0.83159840E+00</totfact>
</mgrwt>
</event>
<event>
12    2  0.3518828E-008  0.1782919E+04  0.7818608E-02  0.8715436E-01
         -2   -1    0    0    0  501 -0.00000000000E+00  0.00000000000E+00  0.36342351089E+03  0.36342351089E+03  0.00000000000E+00 0.  1.
          2   -1    0    0  501    0  0.00000000000E+00 -0.00000000000E+00 -0.21867060757E+04  0.21867060757E+04  0.00000000000E+00 0. -1.
         23    2    1    2    0    0  0.58328652732E+03 -0.23461288293E+03 -0.41178228337E+03  0.75694311670E+03  0.90176799856E+02 0.  0.
        254    2    1    2    0    0 -0.58328652732E+03  0.23461288293E+03 -0.14115002815E+04  0.17931864699E+04  0.90990015578E+03 0.  0.
         23    2    4    4    0    0 -0.61147679588E+03 -0.12985354983E+03 -0.49571267537E+03  0.80286245709E+03  0.89951387883E+02 0.  0.
         23    2    4    4    0    0  0.28190268559E+02  0.36446643276E+03 -0.91578760610E+03  0.99032401282E+03  0.91892540678E+02 0.  0.
          1    1    3    3  502    0  0.30562689591E+03 -0.99609670973E+02 -0.25711080893E+03  0.41162586668E+03  0.00000000000E+00 0. -1.
         -1    1    3    3    0  502  0.27765963142E+03 -0.13500321195E+03 -0.15467147445E+03  0.34531725002E+03  0.00000000000E+00 0.  1.
         11    1    5    5    0    0 -0.15156576098E+03 -0.70514316933E+02 -0.14781707408E+03  0.22314644559E+03  0.00000000000E+00 0. -1.
        -11    1    5    5    0    0 -0.45991103491E+03 -0.59339232896E+02 -0.34789560129E+03  0.57971601150E+03  0.00000000000E+00 0.  1.
          4    1    6    6  503    0  0.18588141567E+02  0.86964515283E+01 -0.62736237903E+02  0.66007445203E+02  0.00000000000E+00 0. -1.
         -4    1    6    6    0  503  0.96021269923E+01  0.35576998123E+03 -0.85305136820E+03  0.92431656762E+03  0.00000000000E+00 0.  1.
<mgrwt>
<rscale>  0 0.17829194E+04</rscale>
<asrwt>0</asrwt>
<pdfrwt beam="1">  1        2 0.33641632E+00 0.17829194E+04</pdfrwt>
<pdfrwt beam="2">  1       -2 0.55911309E-01 0.17829194E+04</pdfrwt>
<totfact> 0.14924926E+01</totfact>
</mgrwt>
</event>
<event>
12    2  0.3518828E-008  0.1897277E+04  0.7818608E-02  0.8656213E-01
         -2   -1    0    0    0  501 -0.00000000000E+00  0.00000000000E+00  0.73472716206E+03  0.73472716206E+03  0.00000000000E+00 0.  1.
          2   -1    0    0  501    0  0.00000000000E+00 -0.00000000000E+00 -0.12248285399E+04  0.12248285399E+04  0.00000000000E+00 0. -1.
         23    2    1    2    0    0  0.11215684394E+03 -0.52414201793E+03  0.32210062377E+03  0.63207629481E+03  0.92019661037E+02 0.  0.
        254    2    1    2    0    0 -0.11215684394E+03  0.52414201793E+03 -0.81220200162E+03  0.13274794072E+04  0.90289837324E+03 0.  0.
         23    2    4    4    0    0  0.33677664214E+03  0.23026386881E+03 -0.62609462833E+03  0.75211062353E+03  0.85064389943E+02 0.  0.
         23    2    4    4    0    0 -0.44893348608E+03  0.29387814912E+03 -0.18610737329E+03  0.57536878363E+03  0.92236876174E+02 0.  0.
          3    1    3    3  502    0 -0.12131948462E+02 -0.72274466196E+02  0.26191648297E+02  0.77825349841E+02  0.00000000000E+00 0. -1.
         -3    1    3    3    0  502  0.12428879240E+03 -0.45186755174E+03  0.29590897548E+03  0.55425094497E+03  0.00000000000E+00 0.  1.
         11    1    5    5    0    0  0.14039110307E+03  0.90291240050E+02 -0.18338486026E+03  0.24797616180E+03  0.00000000000E+00 0. -1.
        -11    1    5    5    0    0  0.19638553908E+03  0.13997262876E+03 -0.44270976807E+03  0.50413446173E+03  0.00000000000E+00 0.  1.
          4    1    6    6  503    0 -0.40482675294E+03  0.24820534534E+03 -0.13447668436E+03  0.49353274662E+03  0.00000000000E+00 0. -1.
         -4    1    6    6    0  503 -0.44106733143E+02  0.45672803780E+02 -0.51630688935E+02  0.81836037010E+02  0.00000000000E+00 0.  1.
<mgrwt>
<rscale>  0 0.18972768E+04</rscale>
<asrwt>0</asrwt>
<pdfrwt beam="1">  1        2 0.18843516E+00 0.18972768E+04</pdfrwt>
<pdfrwt beam="2">  1       -2 0.11303495E+00 0.18972768E+04</pdfrwt>
<totfact> 0.10547575E+01</totfact>
</mgrwt>
</event>
<event>
12    2  0.3518828E-008  0.2437204E+04  0.7818608E-02  0.8425705E-01
          2   -1    0    0  501    0  0.00000000000E+00  0.00000000000E+00  0.93072992698E+03  0.93072992698E+03  0.00000000000E+00 0. -1.
         -2   -1    0    0    0  501 -0.00000000000E+00 -0.00000000000E+00 -0.15955114998E+04  0.15955114998E+04  0.00000000000E+00 0.  1.
         23    2    1    2    0    0  0.15471409160E+02  0.85251580611E+03 -0.94788186662E+03  0.12782293676E+04  0.91475237112E+02 0.  0.
        254    2    1    2    0    0 -0.15471409160E+02 -0.85251580611E+03  0.28310029384E+03  0.12480120591E+04  0.86623654920E+03 0.  0.
         23    2    4    4    0    0  0.38752639362E+03 -0.59824570333E+03  0.25503062288E+03  0.76238634973E+03  0.90098281616E+02 0.  0.
         23    2    4    4    0    0 -0.40299780278E+03 -0.25427010278E+03  0.28069670961E+02  0.48562570939E+03  0.89352722294E+02 0.  0.
          1    1    3    3  502    0 -0.48635538649E+01  0.58332258399E+01 -0.22706509997E+02  0.23942979683E+02  0.00000000000E+00 0. -1.
         -1    1    3    3    0  502  0.20334963025E+02  0.84668258027E+03 -0.92517535663E+03  0.12542863879E+04  0.00000000000E+00 0.  1.
         11    1    5    5    0    0  0.40373024970E+02 -0.11368563733E+03  0.63223730617E+02  0.13620442502E+03  0.00000000000E+00 0.  1.
        -11    1    5    5    0    0  0.34715336865E+03 -0.48456006600E+03  0.19180689227E+03  0.62618192472E+03  0.00000000000E+00 0. -1.
          1    1    6    6  503    0 -0.34476242989E+03 -0.20385504637E+03  0.54451944775E+02  0.40420666407E+03  0.00000000000E+00 0. -1.
         -1    1    6    6    0  503 -0.58235372891E+02 -0.50415056413E+02 -0.26382273814E+02  0.81419045318E+02  0.00000000000E+00 0.  1.
<mgrwt>
<rscale>  0 0.24372036E+04</rscale>
<asrwt>0</asrwt>
<pdfrwt beam="1">  1        2 0.14318922E+00 0.24372036E+04</pdfrwt>
<pdfrwt beam="2">  1       -2 0.24546330E+00 0.24372036E+04</pdfrwt>
<totfact> 0.17176189E+00</totfact>
</mgrwt>
</event>
<event>
12    2  0.3518828E-008  0.2064501E+04  0.7818608E-02  0.8577044E-01
          2   -1    0    0  501    0  0.00000000000E+00  0.00000000000E+00  0.12680395338E+04  0.12680395338E+04  0.00000000000E+00 0. -1.
         -2   -1    0    0    0  501 -0.00000000000E+00 -0.00000000000E+00 -0.84030599047E+03  0.84030599047E+03  0.00000000000E+00 0.  1.
         23    2    1    2    0    0  0.24281272947E+03  0.69870362807E+03  0.56422739707E+03  0.93512182570E+03  0.94633460381E+02 0.  0.
        254    2    1    2    0    0 -0.24281272947E+03 -0.69870362807E+03 -0.13649385377E+03  0.11732236985E+04  0.90037686179E+03 0.  0.
         23    2    4    4    0    0 -0.34351036944E+03  0.81743515211E+02  0.18094960095E+02  0.36605756243E+03  0.94812104907E+02 0.  0.
         23    2    4    4    0    0  0.10069763998E+03 -0.78044714328E+03 -0.15458881387E+03  0.80716613612E+03  0.91551689059E+02 0.  0.
          4    1    3    3  502    0  0.40164764121E+02  0.17163625201E+03  0.18116593986E+03  0.25277125835E+03  0.00000000000E+00 0. -1.
         -4    1    3    3    0  502  0.20264796535E+03  0.52706737606E+03  0.38306145721E+03  0.68235056735E+03  0.00000000000E+00 0.  1.
         11    1    5    5    0    0 -0.18705613645E+03  0.88879510442E+02  0.28723821643E+02  0.20908042349E+03  0.00000000000E+00 0.  1.
        -11    1    5    5    0    0 -0.15645423300E+03 -0.71359952309E+01 -0.10628861548E+02  0.15697713894E+03  0.00000000000E+00 0. -1.
          2    1    6    6  503    0  0.25247813568E+02 -0.60675497225E+02 -0.32169454935E+02  0.73169952059E+02  0.00000000000E+00 0. -1.
         -2    1    6    6    0  503  0.75449826410E+02 -0.71977164606E+03 -0.12241935893E+03  0.73399618406E+03  0.00000000000E+00 0.  1.
<mgrwt>
<rscale>  0 0.20645011E+04</rscale>
<asrwt>0</asrwt>
<pdfrwt beam="1">  1        2 0.19508300E+00 0.20645011E+04</pdfrwt>
<pdfrwt beam="2">  1       -2 0.12927785E+00 0.20645011E+04</pdfrwt>
<totfact> 0.70275237E+00</totfact>
</mgrwt>
</event>
<event>
12    2  0.3518828E-008  0.1170852E+04  0.7818608E-02  0.9138759E-01
         -1   -1    0    0    0  501 -0.00000000000E+00  0.00000000000E+00  0.21250297008E+04  0.21250297008E+04  0.00000000000E+00 0.  1.
          1   -1    0    0  501    0  0.00000000000E+00 -0.00000000000E+00 -0.16127957757E+03  0.16127957757E+03  0.00000000000E+00 0. -1.
         23    2    1    2    0    0 -0.91753662737E+02 -0.94577066731E+02  0.54967782301E+02  0.16948402531E+03  0.91322623533E+02 0.  0.
        254    2    1    2    0    0  0.91753662737E+02  0.94577066731E+02  0.19087823409E+04  0.21168252530E+04  0.90561336714E+03 0.  0.
         23    2    4    4    0    0  0.16648591535E+03 -0.25183869989E+03  0.20986443938E+03  0.37924754586E+03  0.92980252483E+02 0.  0.
         23    2    4    4    0    0 -0.74732252613E+02  0.34641576662E+03  0.16989179015E+04  0.17375777072E+04  0.85237664264E+02 0.  0.
          4    1    3    3  502    0 -0.85322076523E+02 -0.10362954512E+03  0.23710253892E+02  0.13631256547E+03  0.00000000000E+00 0. -1.
         -4    1    3    3    0  502 -0.64315862136E+01  0.90524783910E+01  0.31257528409E+02  0.33171459849E+02  0.00000000000E+00 0.  1.
         11    1    5    5    0    0  0.12353687895E+03 -0.22092557585E+03  0.13301549008E+03  0.28594158691E+03  0.00000000000E+00 0. -1.
        -11    1    5    5    0    0  0.42949036396E+02 -0.30913124036E+02  0.76848949307E+02  0.93305958945E+02  0.00000000000E+00 0.  1.
          2    1    6    6  503    0 -0.28794626460E+02  0.23749444077E+02  0.22303343170E+03  0.22613508853E+03  0.00000000000E+00 0.  1.
         -2    1    6    6    0  503 -0.45937626153E+02  0.32266632254E+03  0.14758844698E+04  0.15114426187E+04  0.00000000000E+00 0. -1.
<mgrwt>
<rscale>  0 0.11708525E+04</rscale>
<asrwt>0</asrwt>
<pdfrwt beam="1">  1        1 0.24812244E-01 0.11708525E+04</pdfrwt>
<pdfrwt beam="2">  1       -1 0.32692763E+00 0.11708525E+04</pdfrwt>
<totfact> 0.43573329E+00</totfact>
</mgrwt>
</event>
<event>
12    2  0.3518828E-008  0.1146283E+04  0.7818608E-02  0.9161220E-01
         -1   -1    0    0    0  501 -0.00000000000E+00  0.00000000000E+00  0.84328332140E+03  0.84328332140E+03  0.00000000000E+00 0.  1.
          1   -1    0    0  501    0  0.00000000000E+00 -0.00000000000E+00 -0.38953824714E+03  0.38953824714E+03  0.00000000000E+00 0. -1.
         23    2    1    2    0    0 -0.13516082260E+03 -0.84578032049E+02  0.23633525246E+03  0.29967599385E+03  0.92355066260E+02 0.  0.
        254    2    1    2    0    0  0.13516082260E+03  0.84578032049E+02  0.21740982179E+03  0.93314557469E+03  0.89334861139E+03 0.  0.
         23    2    4    4    0    0  0.21531164095E+03 -0.30684715224E+03 -0.11855466004E+03  0.40330100745E+03  0.89901154741E+02 0.  0.
         23    2    4    4    0    0 -0.80150818357E+02  0.39142518429E+03  0.33596448183E+03  0.52984456724E+03  0.90693460654E+02 0.  0.
          4    1    3    3  502    0 -0.13585441509E+03 -0.42840639668E+02  0.17935289235E+03  0.22903974000E+03  0.00000000000E+00 0. -1.
         -4    1    3    3    0  502  0.69359249745E+00 -0.41737392381E+02  0.56982360117E+02  0.70636253849E+02  0.00000000000E+00 0.  1.
         11    1    5    5    0    0  0.61005701371E+02 -0.31351503984E+02 -0.95605952711E+01  0.69253284281E+02  0.00000000000E+00 0.  1.
        -11    1    5    5    0    0  0.15430593958E+03 -0.27549564825E+03 -0.10899406477E+03  0.33404772316E+03  0.00000000000E+00 0. -1.
          2    1    6    6  503    0 -0.68775324528E+02  0.33608676789E+03  0.32446947880E+03  0.47219149028E+03  0.00000000000E+00 0. -1.
         -2    1    6    6    0  503 -0.11375493830E+02  0.55338416392E+02  0.11495003031E+02  0.57653076963E+02  0.00000000000E+00 0.  1.
<mgrwt>
<rscale>  0 0.11462829E+04</rscale>
<asrwt>0</asrwt>
<pdfrwt beam="1">  1        1 0.59928961E-01 0.11462829E+04</pdfrwt>
<pdfrwt beam="2">  1       -1 0.12973590E+00 0.11462829E+04</pdfrwt>
<totfact> 0.31483701E+01</totfact>
</mgrwt>
</event>
<event>
12    2  0.3518828E-008  0.1772666E+04  0.7818608E-02  0.8720972E-01
          2   -1    0    0  501    0  0.00000000000E+00  0.00000000000E+00  0.91737227492E+03  0.91737227492E+03  0.00000000000E+00 0. -1.
         -2   -1    0    0    0  501 -0.00000000000E+00 -0.00000000000E+00 -0.85634365067E+03  0.85634365067E+03  0.00000000000E+00 0.  1.
         23    2    1    2    0    0  0.55002026319E+03 -0.43484429198E+02  0.38403503961E+03  0.67842935703E+03  0.91489318144E+02 0.  0.
        254    2    1    2    0    0 -0.55002026319E+03  0.43484429198E+02 -0.32300641536E+03  0.10952865686E+04  0.88932915021E+03 0.  0.
         23    2    4    4    0    0  0.10914897197E+02  0.18896635380E+03 -0.44820161119E+03  0.49540663125E+03  0.93357528684E+02 0.  0.
         23    2    4    4    0    0 -0.56093516039E+03 -0.14548192460E+03  0.12519519583E+03  0.59987993732E+03  0.91481460398E+02 0.  0.
          2    1    3    3  502    0  0.12037350638E+03 -0.31259199709E+02  0.12632337899E+03  0.17726961015E+03  0.00000000000E+00 0.  1.
         -2    1    3    3    0  502  0.42964675681E+03 -0.12225229490E+02  0.25771166062E+03  0.50115974688E+03  0.00000000000E+00 0. -1.
         11    1    5    5    0    0 -0.21104233588E+02  0.17400797101E+03 -0.38419981692E+03  0.42229570442E+03  0.00000000000E+00 0.  1.
        -11    1    5    5    0    0  0.32019130785E+02  0.14958382793E+02 -0.64001794269E+02  0.73110926828E+02  0.00000000000E+00 0. -1.
          4    1    6    6  503    0 -0.12646364872E+03 -0.73352864967E+02  0.34753973217E+02  0.15027154055E+03  0.00000000000E+00 0. -1.
         -4    1    6    6    0  503 -0.43447151167E+03 -0.72129059636E+02  0.90441222609E+02  0.44960839677E+03  0.00000000000E+00 0.  1.
<mgrwt>
<rscale>  0 0.17726657E+04</rscale>
<asrwt>0</asrwt>
<pdfrwt beam="1">  1        2 0.14113420E+00 0.17726657E+04</pdfrwt>
<pdfrwt beam="2">  1       -2 0.13174518E+00 0.17726657E+04</pdfrwt>
<totfact> 0.11336312E+01</totfact>
</mgrwt>
</event>
<event>
12    2  0.3518828E-008  0.2121790E+04  0.7818608E-02  0.8551705E-01
          2   -1    0    0  501    0  0.00000000000E+00  0.00000000000E+00  0.26675125530E+04  0.26675125530E+04  0.00000000000E+00 0. -1.
         -2   -1    0    0    0  501 -0.00000000000E+00 -0.00000000000E+00 -0.42192801917E+03  0.42192801917E+03  0.00000000000E+00 0.  1.
         23    2    1    2    0    0  0.56494514332E+03 -0.21525275052E+03  0.24706795663E+02  0.61220959337E+03  0.93238398167E+02 0.  0.
        254    2    1    2    0    0 -0.56494514332E+03  0.21525275052E+03  0.22208777382E+04  0.24772309788E+04  0.91590317878E+03 0.  0.
         23    2    4    4    0    0 -0.36272239821E+02  0.35732198950E+03  0.16090731921E+04  0.16513289133E+04  0.93680108617E+02 0.  0.
         23    2    4    4    0    0 -0.52867290350E+03 -0.14206923898E+03  0.61180454607E+03  0.82590206552E+03  0.90170459033E+02 0.  0.
          4    1    3    3  502    0  0.22582891807E+03 -0.13483814207E+03  0.17766199755E+02  0.26362030014E+03  0.00000000000E+00 0. -1.
         -4    1    3    3    0  502  0.33911622525E+03 -0.80414608450E+02  0.69405959083E+01  0.34858929322E+03  0.00000000000E+00 0.  1.
         11    1    5    5    0    0  0.28911622927E+02  0.69395705212E+02  0.37182278718E+03  0.37934658415E+03  0.00000000000E+00 0. -1.
        -11    1    5    5    0    0 -0.65183862748E+02  0.28792628429E+03  0.12372504049E+04  0.12719823291E+04  0.00000000000E+00 0.  1.
          1    1    6    6  503    0 -0.17107751145E+03 -0.12471568471E+02  0.15217490095E+03  0.22930384956E+03  0.00000000000E+00 0. -1.
         -1    1    6    6    0  503 -0.35759539205E+03 -0.12959767051E+03  0.45962964512E+03  0.59659821596E+03  0.00000000000E+00 0.  1.
<mgrwt>
<rscale>  0 0.21217901E+04</rscale>
<asrwt>0</asrwt>
<pdfrwt beam="1">  1        2 0.41038654E+00 0.21217901E+04</pdfrwt>
<pdfrwt beam="2">  1       -2 0.64912005E-01 0.21217901E+04</pdfrwt>
<totfact> 0.55953627E+00</totfact>
</mgrwt>
</event>
<event>
12    2  0.3518828E-008  0.3275712E+04  0.7818608E-02  0.8169103E-01
         -2   -1    0    0    0  501 -0.00000000000E+00  0.00000000000E+00  0.20395293591E+04  0.20395293591E+04  0.00000000000E+00 0.  1.
          2   -1    0    0  501    0  0.00000000000E+00 -0.00000000000E+00 -0.13152898651E+04  0.13152898651E+04  0.00000000000E+00 0. -1.
         23    2    1    2    0    0 -0.32719421843E+03  0.13320262644E+04 -0.31734371286E+03  0.14107138711E+04  0.89758388669E+02 0.  0.
        254    2    1    2    0    0  0.32719421843E+03 -0.13320262644E+04  0.10415832069E+04  0.19441053530E+04  0.90183148154E+03 0.  0.
         23    2    4    4    0    0  0.16748664912E+03 -0.30514843048E+03 -0.12430337997E+03  0.37956578803E+03  0.86322157689E+02 0.  0.
         23    2    4    4    0    0  0.15970756931E+03 -0.10268778339E+04  0.11658865868E+04  0.15645395650E+04  0.92238405767E+02 0.  0.
          1    1    3    3  502    0 -0.20228323452E+03  0.87905910794E+03 -0.25001591548E+03  0.93604026634E+03  0.00000000000E+00 0. -1.
         -1    1    3    3    0  502 -0.12491098392E+03  0.45296715648E+03 -0.67327797375E+02  0.47467360476E+03  0.00000000000E+00 0.  1.
         11    1    5    5    0    0  0.12489340247E+02 -0.20677711545E+02 -0.36764092125E+02  0.43990338079E+02  0.00000000000E+00 0.  1.
        -11    1    5    5    0    0  0.15499730888E+03 -0.28447071894E+03 -0.87539287849E+02  0.33557544995E+03  0.00000000000E+00 0. -1.
          2    1    6    6  503    0  0.16249067494E+03 -0.94081917257E+03  0.10374335778E+04  0.14098979975E+04  0.00000000000E+00 0. -1.
         -2    1    6    6    0  503 -0.27831056255E+01 -0.86058661372E+02  0.12845300901E+03  0.15464156750E+03  0.00000000000E+00 0.  1.
<mgrwt>
<rscale>  0 0.32757120E+04</rscale>
<asrwt>0</asrwt>
<pdfrwt beam="1">  1        2 0.20235229E+00 0.32757120E+04</pdfrwt>
<pdfrwt beam="2">  1       -2 0.31377375E+00 0.32757120E+04</pdfrwt>
<totfact> 0.35446959E-01</totfact>
</mgrwt>
</event>
<event>
12    2  0.3518828E-008  0.1731017E+04  0.7818608E-02  0.8743869E-01
          2   -1    0    0  501    0  0.00000000000E+00  0.00000000000E+00  0.88311868845E+03  0.88311868845E+03  0.00000000000E+00 0. -1.
         -2   -1    0    0    0  501 -0.00000000000E+00 -0.00000000000E+00 -0.84824994221E+03  0.84824994221E+03  0.00000000000E+00 0.  1.
         23    2    1    2    0    0 -0.62569131916E+03 -0.92934332946E+01 -0.39003831335E+02  0.63359244434E+03  0.91335052923E+02 0.  0.
        254    2    1    2    0    0  0.62569131916E+03  0.92934332946E+01  0.73872577579E+02  0.10977761863E+04  0.89893236829E+03 0.  0.
         23    2    4    4    0    0  0.84574332675E+03  0.56277641407E+02  0.79096388086E+02  0.85575227610E+03  0.87216808939E+02 0.  0.
         23    2    4    4    0    0 -0.22005200760E+03 -0.46984208113E+02 -0.52238105075E+01  0.24202391023E+03  0.88982487420E+02 0.  0.
          4    1    3    3  502    0 -0.36473208593E+03  0.32930640883E+02  0.10821661281E+01  0.36621727526E+03  0.00000000000E+00 0. -1.
         -4    1    3    3    0  502 -0.26095923323E+03 -0.42224074178E+02 -0.40085997463E+02  0.26737516908E+03  0.00000000000E+00 0.  1.
         11    1    5    5    0    0  0.79654789168E+03  0.57740480853E+02  0.94431531653E+02  0.80420135603E+03  0.00000000000E+00 0.  1.
        -11    1    5    5    0    0  0.49195435070E+02 -0.14628394459E+01 -0.15335143566E+02  0.51550920062E+02  0.00000000000E+00 0. -1.
          1    1    6    6  503    0 -0.18433325010E+03 -0.71104037270E+02  0.53574068477E+01  0.19764420815E+03  0.00000000000E+00 0. -1.
         -1    1    6    6    0  503 -0.35718757500E+02  0.24119829158E+02 -0.10581217355E+02  0.44379702080E+02  0.00000000000E+00 0.  1.
<mgrwt>
<rscale>  0 0.17310175E+04</rscale>
<asrwt>0</asrwt>
<pdfrwt beam="1">  1        2 0.13586441E+00 0.17310175E+04</pdfrwt>
<pdfrwt beam="2">  1       -2 0.13049999E+00 0.17310175E+04</pdfrwt>
<totfact> 0.12290721E+01</totfact>
</mgrwt>
</event>
<event>
12    2  0.3518828E-008  0.1962939E+04  0.7818608E-02  0.8624147E-01
         -1   -1    0    0    0  501 -0.00000000000E+00  0.00000000000E+00  0.97246399971E+03  0.97246399971E+03  0.00000000000E+00 0.  1.
          1   -1    0    0  501    0  0.00000000000E+00 -0.00000000000E+00 -0.99055847636E+03  0.99055847636E+03  0.00000000000E+00 0. -1.
         23    2    1    2    0    0  0.71398030553E+03 -0.27794641087E+01  0.29403592852E+03  0.77779334134E+03  0.93433144448E+02 0.  0.
        254    2    1    2    0    0 -0.71398030553E+03  0.27794641087E+01 -0.31213040517E+03  0.11852291347E+04  0.89306612851E+03 0.  0.
         23    2    4    4    0    0 -0.87456674748E+03 -0.16900774802E+03 -0.24405078555E+03  0.92791901281E+03  0.89678836543E+02 0.  0.
         23    2    4    4    0    0  0.16058644195E+03  0.17178721213E+03 -0.68079619618E+02  0.25731012192E+03  0.79213715012E+02 0.  0.
          2    1    3    3  502    0  0.24457719827E+03 -0.40109348755E+02  0.78984521140E+02  0.26012558573E+03  0.00000000000E+00 0. -1.
         -2    1    3    3    0  502  0.46940310725E+03  0.37329884646E+02  0.21505140737E+03  0.51766775561E+03  0.00000000000E+00 0.  1.
         11    1    5    5    0    0 -0.24069639583E+03 -0.62928385252E+02 -0.30324652526E+02  0.25062785397E+03  0.00000000000E+00 0.  1.
        -11    1    5    5    0    0 -0.63387035165E+03 -0.10607936277E+03 -0.21372613303E+03  0.67729115884E+03  0.00000000000E+00 0. -1.
          1    1    6    6  503    0  0.14003121927E+03  0.10465038255E+03 -0.29790606707E+02  0.17733562865E+03  0.00000000000E+00 0. -1.
         -1    1    6    6    0  503  0.20555222680E+02  0.67136829575E+02 -0.38289012910E+02  0.79974493274E+02  0.00000000000E+00 0.  1.
<mgrwt>
<rscale>  0 0.19629391E+04</rscale>
<asrwt>0</asrwt>
<pdfrwt beam="1">  1        1 0.15239361E+00 0.19629391E+04</pdfrwt>
<pdfrwt beam="2">  1       -1 0.14960985E+00 0.19629391E+04</pdfrwt>
<totfact> 0.50330208E+00</totfact>
</mgrwt>
</event>
<event>
12    2  0.3518828E-008  0.1294865E+04  0.7818608E-02  0.9033647E-01
          1   -1    0    0  501    0  0.00000000000E+00  0.00000000000E+00  0.12799587626E+04  0.12799587626E+04  0.00000000000E+00 0. -1.
         -1   -1    0    0    0  501 -0.00000000000E+00 -0.00000000000E+00 -0.32748634169E+03  0.32748634169E+03  0.00000000000E+00 0.  1.
         23    2    1    2    0    0 -0.26430227200E+03  0.19264857336E+03  0.24405294130E+03  0.41667314986E+03  0.84175482485E+02 0.  0.
        254    2    1    2    0    0  0.26430227200E+03 -0.19264857336E+03  0.70841947963E+03  0.11907719545E+04  0.89950571127E+03 0.  0.
         23    2    4    4    0    0  0.10207482686E+03 -0.15240254845E+03 -0.18570317995E+03  0.27618030066E+03  0.90244558723E+02 0.  0.
         23    2    4    4    0    0  0.16222744515E+03 -0.40246024913E+02  0.89412265958E+03  0.91459165380E+03  0.95315666778E+02 0.  0.
          2    1    3    3  502    0 -0.37676273292E+02  0.15872787370E+02  0.20389373917E+01  0.40934144840E+02  0.00000000000E+00 0.  1.
         -2    1    3    3    0  502 -0.22662599871E+03  0.17677578599E+03  0.24201400391E+03  0.37573900502E+03  0.00000000000E+00 0. -1.
         11    1    5    5    0    0  0.80996580309E+02 -0.59393402906E+02 -0.13472011627E+03  0.16804026915E+03  0.00000000000E+00 0.  1.
        -11    1    5    5    0    0  0.21078246549E+02 -0.93009145544E+02 -0.50983063683E+02  0.10814003151E+03  0.00000000000E+00 0. -1.
          2    1    6    6  503    0  0.28490451754E+02 -0.48152594145E+02  0.33519272309E+03  0.33983016313E+03  0.00000000000E+00 0.  1.
         -2    1    6    6    0  503  0.13373699339E+03  0.79065692314E+01  0.55892993649E+03  0.57476149066E+03  0.00000000000E+00 0. -1.
<mgrwt>
<rscale>  0 0.12948653E+04</rscale>
<asrwt>0</asrwt>
<pdfrwt beam="1">  1        1 0.19691673E+00 0.12948653E+04</pdfrwt>
<pdfrwt beam="2">  1       -1 0.50382515E-01 0.12948653E+04</pdfrwt>
<totfact> 0.36347901E+01</totfact>
</mgrwt>
</event>
<event>
12    2  0.3976462E-008  0.1451676E+04  0.7818608E-02  0.8917239E-01
         -2   -1    0    0    0  501 -0.00000000000E+00  0.00000000000E+00  0.35418221996E+03  0.35418221996E+03  0.00000000000E+00 0.  1.
          2   -1    0    0  501    0  0.00000000000E+00 -0.00000000000E+00 -0.14874851545E+04  0.14874851545E+04  0.00000000000E+00 0. -1.
         23    2    1    2    0    0 -0.20093125441E+03 -0.25009995102E+03  0.15973931711E+02  0.33507262795E+03  0.95368469679E+02 0.  0.
        254    2    1    2    0    0  0.20093125441E+03  0.25009995102E+03 -0.11492768663E+04  0.15065947465E+04  0.91981903678E+03 0.  0.
         23    2    4    4    0    0 -0.29686059949E+02 -0.76021401948E+02 -0.10839982217E+04  0.10908643059E+04  0.90952039305E+02 0.  0.
         23    2    4    4    0    0  0.23061731436E+03  0.32612135297E+03 -0.65278644508E+02  0.41573044060E+03  0.95031654061E+02 0.  0.
          1    1    3    3  502    0  0.10650254572E+02 -0.10139316150E+02  0.20934886714E+01  0.14853159572E+02  0.00000000000E+00 0. -1.
         -1    1    3    3    0  502 -0.21158150898E+03 -0.23996063487E+03  0.13880443040E+02  0.32021946838E+03  0.00000000000E+00 0.  1.
         11    1    5    5    0    0  0.96928505487E+01 -0.64573237882E+02 -0.89933345416E+03  0.90170079082E+03  0.00000000000E+00 0. -1.
        -11    1    5    5    0    0 -0.39378910497E+02 -0.11448164066E+02 -0.18466476759E+03  0.18916351509E+03  0.00000000000E+00 0.  1.
          3    1    6    6  503    0  0.14585657608E+03  0.25328485004E+03 -0.13579196552E+02  0.29259485749E+03  0.00000000000E+00 0. -1.
         -3    1    6    6    0  503  0.84760738274E+02  0.72836502924E+02 -0.51699447956E+02  0.12313558312E+03  0.00000000000E+00 0.  1.
<mgrwt>
<rscale>  0 0.14516760E+04</rscale>
<asrwt>0</asrwt>
<pdfrwt beam="1">  1        2 0.22884387E+00 0.14516760E+04</pdfrwt>
<pdfrwt beam="2">  1       -2 0.54489573E-01 0.14516760E+04</pdfrwt>
<totfact> 0.39650869E+01</totfact>
</mgrwt>
</event>
<event>
12    2  0.3518828E-008  0.1756284E+04  0.7818608E-02  0.8729899E-01
         -2   -1    0    0    0  501 -0.00000000000E+00  0.00000000000E+00  0.51216045965E+03  0.51216045965E+03  0.00000000000E+00 0.  1.
          2   -1    0    0  501    0  0.00000000000E+00 -0.00000000000E+00 -0.15056482578E+04  0.15056482578E+04  0.00000000000E+00 0. -1.
         23    2    1    2    0    0 -0.62858637247E+03 -0.13757475585E+03 -0.37753708721E+03  0.75157767026E+03  0.91033516439E+02 0.  0.
        254    2    1    2    0    0  0.62858637247E+03  0.13757475585E+03 -0.61595071090E+03  0.12662310471E+04  0.89994341232E+03 0.  0.
         23    2    4    4    0    0  0.53476550447E+02  0.43830691431E+03 -0.25599766258E+03  0.51857488967E+03  0.91719247538E+02 0.  0.
         23    2    4    4    0    0  0.57510982203E+03 -0.30073215846E+03 -0.35995304832E+03  0.74765615747E+03  0.90732542608E+02 0.  0.
          4    1    3    3  502    0 -0.16645357365E+03 -0.16384065930E+02 -0.58971584698E+02  0.17734959148E+03  0.00000000000E+00 0. -1.
         -4    1    3    3    0  502 -0.46213279882E+03 -0.12119068992E+03 -0.31856550251E+03  0.57422807878E+03  0.00000000000E+00 0.  1.
         11    1    5    5    0    0  0.46412006261E+02  0.43780521645E+03 -0.24080198176E+03  0.50180980091E+03  0.00000000000E+00 0.  1.
        -11    1    5    5    0    0  0.70645441860E+01  0.50169786007E+00 -0.15195680820E+02  0.16765088753E+02  0.00000000000E+00 0. -1.
          3    1    6    6  503    0  0.59944644706E+02 -0.28406515848E+02 -0.71232279703E+02  0.97336161026E+02  0.00000000000E+00 0. -1.
         -3    1    6    6    0  503  0.51516517732E+03 -0.27232564261E+03 -0.28872076862E+03  0.65031999645E+03  0.00000000000E+00 0.  1.
<mgrwt>
<rscale>  0 0.17562841E+04</rscale>
<asrwt>0</asrwt>
<pdfrwt beam="1">  1        2 0.23163819E+00 0.17562841E+04</pdfrwt>
<pdfrwt beam="2">  1       -2 0.78793917E-01 0.17562841E+04</pdfrwt>
<totfact> 0.17073809E+01</totfact>
</mgrwt>
</event>
<event>
12    2  0.4880829E-008  0.2554321E+04  0.7818608E-02  0.8383885E-01
          2   -1    0    0  501    0  0.00000000000E+00  0.00000000000E+00  0.13489315489E+04  0.13489315489E+04  0.00000000000E+00 0. -1.
         -2   -1    0    0    0  501 -0.00000000000E+00 -0.00000000000E+00 -0.12092078111E+04  0.12092078111E+04  0.00000000000E+00 0.  1.
         23    2    1    2    0    0 -0.52068855582E+03 -0.20769091959E+03 -0.89906610281E+03  0.10636104644E+04  0.93248445011E+02 0.  0.
        254    2    1    2    0    0  0.52068855582E+03  0.20769091959E+03  0.10387898406E+04  0.14945288955E+04  0.91666798596E+03 0.  0.
         23    2    4    4    0    0  0.17527180382E+03 -0.35426534334E+03  0.43970659125E+03  0.59822828658E+03  0.91165002992E+02 0.  0.
         23    2    4    4    0    0  0.34541675200E+03  0.56195626293E+03  0.59908324934E+03  0.89630060897E+03  0.96677132675E+02 0.  0.
          1    1    3    3  502    0 -0.12684380099E+02 -0.14727476750E+02 -0.67394781297E+02  0.70141632544E+02  0.00000000000E+00 0. -1.
         -1    1    3    3    0  502 -0.50800417572E+03 -0.19296344284E+03 -0.83167132151E+03  0.99346883185E+03  0.00000000000E+00 0.  1.
         11    1    5    5    0    0  0.17231924345E+03 -0.33918598281E+03  0.38443921710E+03  0.54086464503E+03  0.00000000000E+00 0.  1.
        -11    1    5    5    0    0  0.29525603660E+01 -0.15079360535E+02  0.55267374150E+02  0.57363641554E+02  0.00000000000E+00 0. -1.
          4    1    6    6  503    0  0.22209274519E+02  0.48001865879E+02  0.17913070708E+02  0.55841822183E+02  0.00000000000E+00 0. -1.
         -4    1    6    6    0  503  0.32320747748E+03  0.51395439706E+03  0.58117017863E+03  0.84045878678E+03  0.00000000000E+00 0.  1.
<mgrwt>
<rscale>  0 0.25543207E+04</rscale>
<asrwt>0</asrwt>
<pdfrwt beam="1">  1        2 0.20752793E+00 0.25543207E+04</pdfrwt>
<pdfrwt beam="2">  1       -2 0.18603197E+00 0.25543207E+04</pdfrwt>
<totfact> 0.22667877E+00</totfact>
</mgrwt>
</event>
<event>
12    2  0.3518828E-008  0.1827390E+04  0.7818608E-02  0.8691868E-01
          1   -1    0    0  501    0  0.00000000000E+00  0.00000000000E+00  0.19527911643E+04  0.19527911643E+04  0.00000000000E+00 0. -1.
         -1   -1    0    0    0  501 -0.00000000000E+00 -0.00000000000E+00 -0.42751047550E+03  0.42751047550E+03  0.00000000000E+00 0.  1.
         23    2    1    2    0    0  0.39444109933E+02 -0.34012778942E+03 -0.19629796132E+03  0.40667509548E+03  0.98025469781E+02 0.  0.
        254    2    1    2    0    0 -0.39444109933E+02  0.34012778942E+03  0.17215786501E+04  0.19736265443E+04  0.90228927565E+03 0.  0.
         23    2    4    4    0    0 -0.45592478413E+03  0.97558388979E+02  0.84168529423E+03  0.96612700176E+03  0.87075834569E+02 0.  0.
         23    2    4    4    0    0  0.41648067420E+03  0.24256940044E+03  0.87989335588E+03  0.10074995426E+04  0.92449686313E+02 0.  0.
          3    1    3    3  502    0 -0.19561269534E+02 -0.22933578774E+02 -0.34267040273E+02  0.45637948576E+02  0.00000000000E+00 0. -1.
         -3    1    3    3    0  502  0.59005379467E+02 -0.31719421064E+03 -0.16203092105E+03  0.36103714691E+03  0.00000000000E+00 0.  1.
         11    1    5    5    0    0 -0.27151346654E+03  0.14373628750E+02  0.49280021324E+03  0.56283053745E+03  0.00000000000E+00 0.  1.
        -11    1    5    5    0    0 -0.18441131760E+03  0.83184760229E+02  0.34888508099E+03  0.40329646432E+03  0.00000000000E+00 0. -1.
          2    1    6    6  503    0  0.16564908903E+03  0.12671571514E+03  0.30278864264E+03  0.36766486815E+03  0.00000000000E+00 0. -1.
         -2    1    6    6    0  503  0.25083158517E+03  0.11585368529E+03  0.57710471325E+03  0.63983467440E+03  0.00000000000E+00 0.  1.
<mgrwt>
<rscale>  0 0.18273901E+04</rscale>
<asrwt>0</asrwt>
<pdfrwt beam="1">  1        1 0.30042941E+00 0.18273901E+04</pdfrwt>
<pdfrwt beam="2">  1       -1 0.65770843E-01 0.18273901E+04</pdfrwt>
<totfact> 0.70769850E+00</totfact>
</mgrwt>
</event>
<event>
12    2  0.3518828E-008  0.2300948E+04  0.7818608E-02  0.8477548E-01
         -2   -1    0    0    0  501 -0.00000000000E+00  0.00000000000E+00  0.35006233475E+03  0.35006233475E+03  0.00000000000E+00 0.  1.
          2   -1    0    0  501    0  0.00000000000E+00 -0.00000000000E+00 -0.37810119275E+04  0.37810119275E+04  0.00000000000E+00 0. -1.
         23    2    1    2    0    0 -0.52048745033E+03 -0.69929096711E+03 -0.68314537836E+03  0.11113382082E+04  0.92032398269E+02 0.  0.
        254    2    1    2    0    0  0.52048745033E+03  0.69929096711E+03 -0.27478042144E+04  0.30197360540E+04  0.89914559055E+03 0.  0.
         23    2    4    4    0    0  0.65418189584E+03  0.20570596673E+03 -0.19370227924E+04  0.20567860393E+04  0.89680632523E+02 0.  0.
         23    2    4    4    0    0 -0.13369444551E+03  0.49358500038E+03 -0.81078142198E+03  0.96295001470E+03  0.91683472986E+02 0.  0.
          1    1    3    3  502    0 -0.88893861664E+02 -0.69583281137E+02 -0.78916835584E+02  0.13773822488E+03  0.00000000000E+00 0. -1.
         -1    1    3    3    0  502 -0.43159358867E+03 -0.62970768597E+03 -0.60422854278E+03  0.97359998329E+03  0.00000000000E+00 0.  1.
         11    1    5    5    0    0  0.17294766513E+03  0.50963030070E+02 -0.39963268481E+03  0.43842263636E+03  0.00000000000E+00 0. -1.
        -11    1    5    5    0    0  0.48123423071E+03  0.15474293666E+03 -0.15373901076E+04  0.16183634030E+04  0.00000000000E+00 0.  1.
          4    1    6    6  503    0 -0.96368846032E+02  0.45520173137E+03 -0.74143306281E+03  0.87533910992E+03  0.00000000000E+00 0. -1.
         -4    1    6    6    0  503 -0.37325599480E+02  0.38383269005E+02 -0.69348359172E+02  0.87610904777E+02  0.00000000000E+00 0.  1.
<mgrwt>
<rscale>  0 0.23009475E+04</rscale>
<asrwt>0</asrwt>
<pdfrwt beam="1">  1        2 0.58169416E+00 0.23009475E+04</pdfrwt>
<pdfrwt beam="2">  1       -2 0.53855742E-01 0.23009475E+04</pdfrwt>
<totfact> 0.15011747E+00</totfact>
</mgrwt>
</event>
<event>
12    2  0.3518828E-008  0.1655662E+04  0.7818608E-02  0.8787064E-01
         -2   -1    0    0    0  501 -0.00000000000E+00  0.00000000000E+00  0.57721410543E+03  0.57721410543E+03  0.00000000000E+00 0.  1.
          2   -1    0    0  501    0  0.00000000000E+00 -0.00000000000E+00 -0.11872615312E+04  0.11872615312E+04  0.00000000000E+00 0. -1.
         23    2    1    2    0    0  0.43032997087E+02  0.58066742471E+03 -0.37545957434E+03  0.69896899449E+03  0.92527111361E+02 0.  0.
        254    2    1    2    0    0 -0.43032997087E+02 -0.58066742471E+03 -0.23458785140E+03  0.10655066421E+04  0.86095670472E+03 0.  0.
         23    2    4    4    0    0  0.12962218858E+03 -0.13910532074E+03  0.28622185300E+03  0.35561705189E+03  0.91587861817E+02 0.  0.
         23    2    4    4    0    0 -0.17265518567E+03 -0.44156210396E+03 -0.52080970439E+03  0.70988959022E+03  0.88958289756E+02 0.  0.
          3    1    3    3  502    0  0.19790011596E+02  0.22276669378E+02 -0.28004384725E+02  0.40891809955E+02  0.00000000000E+00 0. -1.
         -3    1    3    3    0  502  0.23242985490E+02  0.55839075533E+03 -0.34745518961E+03  0.65807718453E+03  0.00000000000E+00 0.  1.
         11    1    5    5    0    0  0.24752044501E+02 -0.70247741540E+02  0.55120352498E+02  0.92658848244E+02  0.00000000000E+00 0.  1.
        -11    1    5    5    0    0  0.10487014408E+03 -0.68857579204E+02  0.23110150050E+03  0.26295820365E+03  0.00000000000E+00 0. -1.
          2    1    6    6  503    0 -0.32769127942E+02 -0.96061121006E+02 -0.17017336818E+03  0.19814270098E+03  0.00000000000E+00 0.  1.
         -2    1    6    6    0  503 -0.13988605772E+03 -0.34550098296E+03 -0.35063633622E+03  0.51174688924E+03  0.00000000000E+00 0. -1.
<mgrwt>
<rscale>  0 0.16556619E+04</rscale>
<asrwt>0</asrwt>
<pdfrwt beam="1">  1        2 0.18265562E+00 0.16556619E+04</pdfrwt>
<pdfrwt beam="2">  1       -2 0.88802171E-01 0.16556619E+04</pdfrwt>
<totfact> 0.20065634E+01</totfact>
</mgrwt>
</event>
<event>
12    2  0.3518828E-008  0.1441225E+04  0.7818608E-02  0.8924507E-01
         -2   -1    0    0    0  501 -0.00000000000E+00  0.00000000000E+00  0.99396991083E+02  0.99396991083E+02  0.00000000000E+00 0.  1.
          2   -1    0    0  501    0  0.00000000000E+00 -0.00000000000E+00 -0.52243283855E+04  0.52243283855E+04  0.00000000000E+00 0. -1.
         23    2    1    2    0    0  0.38203960483E+02 -0.41659836316E+03 -0.20232007546E+04  0.20680211648E+04  0.91413927285E+02 0.  0.
        254    2    1    2    0    0 -0.38203960483E+02  0.41659836316E+03 -0.31017306398E+04  0.32557042117E+04  0.89658419208E+03 0.  0.
         23    2    4    4    0    0  0.39058620963E+02  0.32808577146E+03 -0.31786857524E+03  0.46772664606E+03  0.92530724612E+02 0.  0.
         23    2    4    4    0    0 -0.77262581446E+02  0.88512591699E+02 -0.27838620646E+04  0.27879775657E+04  0.95534950177E+02 0.  0.
          2    1    3    3  502    0  0.29516106270E+02 -0.32293260573E+03 -0.13567796708E+04  0.13949938149E+04  0.00000000000E+00 0. -1.
         -2    1    3    3    0  502  0.86878542125E+01 -0.93665757429E+02 -0.66642108378E+03  0.67302734999E+03  0.00000000000E+00 0.  1.
         11    1    5    5    0    0  0.11130944482E+02  0.13672234666E+03 -0.19567062285E+03  0.23896420369E+03  0.00000000000E+00 0.  1.
        -11    1    5    5    0    0  0.27927676482E+02  0.19136342481E+03 -0.12219795239E+03  0.22876244236E+03  0.00000000000E+00 0. -1.
          1    1    6    6  503    0 -0.81422399545E+02  0.10356526667E+03 -0.22245050153E+04  0.22284025522E+04  0.00000000000E+00 0. -1.
         -1    1    6    6    0  503  0.41598180990E+01 -0.15052674974E+02 -0.55935704934E+03  0.55957501352E+03  0.00000000000E+00 0.  1.
<mgrwt>
<rscale>  0 0.14412252E+04</rscale>
<asrwt>0</asrwt>
<pdfrwt beam="1">  1        2 0.80374285E+00 0.14412252E+04</pdfrwt>
<pdfrwt beam="2">  1       -2 0.15291844E-01 0.14412252E+04</pdfrwt>
<totfact> 0.59885691E-01</totfact>
</mgrwt>
</event>
<event>
12    2  0.3518828E-008  0.3391073E+04  0.7818608E-02  0.8140101E-01
          1   -1    0    0  501    0  0.00000000000E+00  0.00000000000E+00  0.24427535798E+04  0.24427535798E+04  0.00000000000E+00 0. -1.
         -1   -1    0    0    0  501 -0.00000000000E+00 -0.00000000000E+00 -0.11768864820E+04  0.11768864820E+04  0.00000000000E+00 0.  1.
         23    2    1    2    0    0 -0.55523132521E+03  0.69614788310E+02  0.21573944793E+04  0.22309540423E+04  0.98371522167E+02 0.  0.
        254    2    1    2    0    0  0.55523132521E+03 -0.69614788310E+02 -0.89152738150E+03  0.13886860195E+04  0.90581441008E+03 0.  0.
         23    2    4    4    0    0  0.37923625876E+03 -0.44824850565E+02  0.76864615677E+02  0.39996501600E+03  0.90743802503E+02 0.  0.
         23    2    4    4    0    0  0.17599506645E+03 -0.24789937745E+02 -0.96839199718E+03  0.98872100349E+03  0.90539262834E+02 0.  0.
          1    1    3    3  502    0 -0.30638195573E+03  0.51842114184E+01  0.10293454529E+04  0.10739873557E+04  0.00000000000E+00 0. -1.
         -1    1    3    3    0  502 -0.24884936947E+03  0.64430576892E+02  0.11280490264E+04  0.11569666866E+04  0.00000000000E+00 0.  1.
         11    1    5    5    0    0  0.16285230177E+03 -0.55810135642E+02  0.61321277810E+02  0.18274556778E+03  0.00000000000E+00 0.  1.
        -11    1    5    5    0    0  0.21638395699E+03  0.10985285077E+02  0.15543337867E+02  0.21721944821E+03  0.00000000000E+00 0. -1.
          3    1    6    6  503    0  0.10250908817E+03 -0.20960853187E+02 -0.77085016894E+03  0.77791866765E+03  0.00000000000E+00 0. -1.
         -3    1    6    6    0  503  0.73485978273E+02 -0.38290845580E+01 -0.19754182824E+03  0.21080233584E+03  0.00000000000E+00 0.  1.
<mgrwt>
<rscale>  0 0.33910728E+04</rscale>
<asrwt>0</asrwt>
<pdfrwt beam="1">  1        1 0.37580824E+00 0.33910728E+04</pdfrwt>
<pdfrwt beam="2">  1       -1 0.18105946E+00 0.33910728E+04</pdfrwt>
<totfact> 0.24986067E-01</totfact>
</mgrwt>
</event>
<event>
12    2  0.3518828E-008  0.2351407E+04  0.7818608E-02  0.8457923E-01
          1   -1    0    0  501    0  0.00000000000E+00  0.00000000000E+00  0.10718466196E+04  0.10718466196E+04  0.00000000000E+00 0. -1.
         -1   -1    0    0    0  501 -0.00000000000E+00 -0.00000000000E+00 -0.12896236168E+04  0.12896236168E+04  0.00000000000E+00 0.  1.
         23    2    1    2    0    0  0.36338593315E+03  0.74980737462E+03 -0.65248268627E+03  0.10621886438E+04  0.90832943738E+02 0.  0.
        254    2    1    2    0    0 -0.36338593315E+03 -0.74980737462E+03  0.43470568917E+03  0.12992815926E+04  0.89716396787E+03 0.  0.
         23    2    4    4    0    0  0.88509562116E+01  0.18943630291E+03  0.79662371291E+02  0.22459981933E+03  0.90191646815E+02 0.  0.
         23    2    4    4    0    0 -0.37223688936E+03 -0.93924367754E+03  0.35504331788E+03  0.10746817733E+04  0.90256128107E+02 0.  0.
          2    1    3    3  502    0  0.13565253148E+03  0.18859580027E+03 -0.19101210239E+03  0.30075838880E+03  0.00000000000E+00 0. -1.
         -2    1    3    3    0  502  0.22773340167E+03  0.56121157436E+03 -0.46147058388E+03  0.76143025499E+03  0.00000000000E+00 0.  1.
         11    1    5    5    0    0 -0.21950290525E+02  0.44776257494E+01  0.10553816270E+02  0.24763832990E+02  0.00000000000E+00 0. -1.
        -11    1    5    5    0    0  0.30801246737E+02  0.18495867716E+03  0.69108555021E+02  0.19983598634E+03  0.00000000000E+00 0.  1.
          2    1    6    6  503    0 -0.20519047902E+02 -0.10833838221E+03  0.19189303384E+02  0.11192169473E+03  0.00000000000E+00 0. -1.
         -2    1    6    6    0  503 -0.35171784146E+03 -0.83090529532E+03  0.33585401449E+03  0.96276007855E+03  0.00000000000E+00 0.  1.
<mgrwt>
<rscale>  0 0.23514070E+04</rscale>
<asrwt>0</asrwt>
<pdfrwt beam="1">  1        1 0.16489948E+00 0.23514070E+04</pdfrwt>
<pdfrwt beam="2">  1       -1 0.19840363E+00 0.23514070E+04</pdfrwt>
<totfact> 0.18500534E+00</totfact>
</mgrwt>
</event>
<event>
12    2  0.3518828E-008  0.1303570E+04  0.7818608E-02  0.9026739E-01
          1   -1    0    0  501    0  0.00000000000E+00  0.00000000000E+00  0.16185143991E+03  0.16185143991E+03  0.00000000000E+00 0. -1.
         -1   -1    0    0    0  501 -0.00000000000E+00 -0.00000000000E+00 -0.26247746514E+04  0.26247746514E+04  0.00000000000E+00 0.  1.
         23    2    1    2    0    0  0.12574747202E+03 -0.19018868621E+03 -0.13695403295E+03  0.28035438804E+03  0.88645432317E+02 0.  0.
        254    2    1    2    0    0 -0.12574747202E+03  0.19018868621E+03 -0.23259691785E+04  0.25062717033E+04  0.90514146300E+03 0.  0.
         23    2    4    4    0    0  0.30423058200E+03 -0.33123310722E+01 -0.34980320207E+03  0.47260452277E+03  0.91790719585E+02 0.  0.
         23    2    4    4    0    0 -0.42997805401E+03  0.19350101729E+03 -0.19761659765E+04  0.20336671805E+04  0.90810042990E+02 0.  0.
          2    1    3    3  502    0  0.12329234311E+03 -0.17637920266E+03 -0.14909682422E+03  0.26180238348E+03  0.00000000000E+00 0. -1.
         -2    1    3    3    0  502  0.24551289014E+01 -0.13809483553E+02  0.12142791261E+02  0.18552004569E+02  0.00000000000E+00 0.  1.
         11    1    5    5    0    0  0.12210594685E+03 -0.60355097489E+01 -0.20999201876E+03  0.24298752556E+03  0.00000000000E+00 0.  1.
        -11    1    5    5    0    0  0.18212463514E+03  0.27231786768E+01 -0.13981118331E+03  0.22961699721E+03  0.00000000000E+00 0. -1.
          2    1    6    6  503    0 -0.30559364773E+03  0.16854553906E+03 -0.15617421198E+04  0.16002604553E+04  0.00000000000E+00 0. -1.
         -2    1    6    6    0  503 -0.12438440628E+03  0.24955478223E+02 -0.41442385671E+03  0.43340672518E+03  0.00000000000E+00 0.  1.
<mgrwt>
<rscale>  0 0.13035698E+04</rscale>
<asrwt>0</asrwt>
<pdfrwt beam="1">  1        1 0.24900221E-01 0.13035698E+04</pdfrwt>
<pdfrwt beam="2">  1       -1 0.40381149E+00 0.13035698E+04</pdfrwt>
<totfact> 0.13146911E+00</totfact>
</mgrwt>
</event>
<event>
12    2  0.3518828E-008  0.2427539E+04  0.7818608E-02  0.8429265E-01
         -2   -1    0    0    0  501 -0.00000000000E+00  0.00000000000E+00  0.47380017298E+03  0.47380017298E+03  0.00000000000E+00 0.  1.
          2   -1    0    0  501    0  0.00000000000E+00 -0.00000000000E+00 -0.31094048344E+04  0.31094048344E+04  0.00000000000E+00 0. -1.
         23    2    1    2    0    0 -0.88511992491E+03 -0.89167124833E+02 -0.33367297822E+03  0.95450633640E+03  0.91414617131E+02 0.  0.
        254    2    1    2    0    0  0.88511992491E+03  0.89167124833E+02 -0.23019316832E+04  0.26286986710E+04  0.90541657323E+03 0.  0.
         23    2    4    4    0    0  0.48076177796E+03 -0.29401793798E+03 -0.56822773936E+03  0.80539322487E+03  0.90537549596E+02 0.  0.
         23    2    4    4    0    0  0.40435814695E+03  0.38318506282E+03 -0.17337039439E+04  0.18233054461E+04  0.91526398171E+02 0.  0.
          3    1    3    3  502    0 -0.59406129945E+01 -0.92531485375E+01 -0.78111135217E+00  0.11023691557E+02  0.00000000000E+00 0. -1.
         -3    1    3    3    0  502 -0.87917931191E+03 -0.79913976296E+02 -0.33289186687E+03  0.94348264485E+03  0.00000000000E+00 0.  1.
         11    1    5    5    0    0  0.14526375629E+03 -0.79862309958E+02 -0.11258184041E+03  0.20038517469E+03  0.00000000000E+00 0. -1.
        -11    1    5    5    0    0  0.33549802167E+03 -0.21415562802E+03 -0.45564589895E+03  0.60500805019E+03  0.00000000000E+00 0.  1.
          3    1    6    6  503    0  0.80477969416E+01 -0.16000980501E+01 -0.84409778849E+01  0.11771892670E+02  0.00000000000E+00 0. -1.
         -3    1    6    6    0  503  0.39631035001E+03  0.38478516087E+03 -0.17252629660E+04  0.18115335535E+04  0.00000000000E+00 0.  1.
<mgrwt>
<rscale>  0 0.24275391E+04</rscale>
<asrwt>0</asrwt>
<pdfrwt beam="1">  1        2 0.47836999E+00 0.24275391E+04</pdfrwt>
<pdfrwt beam="2">  1       -2 0.72892332E-01 0.24275391E+04</pdfrwt>
<totfact> 0.22660334E+00</totfact>
</mgrwt>
</event>
<event>
12    2  0.3518828E-008  0.2156177E+04  0.7818608E-02  0.8536893E-01
         -1   -1    0    0    0  501 -0.00000000000E+00  0.00000000000E+00  0.11553492618E+04  0.11553492618E+04  0.00000000000E+00 0.  1.
          1   -1    0    0  501    0  0.00000000000E+00 -0.00000000000E+00 -0.10059940810E+04  0.10059940810E+04  0.00000000000E+00 0. -1.
         23    2    1    2    0    0  0.58657859992E+03  0.42665668455E+02 -0.61213537247E+03  0.85401191239E+03  0.93444203273E+02 0.  0.
        254    2    1    2    0    0 -0.58657859992E+03 -0.42665668455E+02  0.76149055326E+03  0.13073314304E+04  0.88507219658E+03 0.  0.
         23    2    4    4    0    0  0.16504075505E+03 -0.41892503316E+02 -0.48139208372E+02  0.19887686820E+03  0.90781014870E+02 0.  0.
         23    2    4    4    0    0 -0.75161935497E+03 -0.77316513861E+00  0.80962976163E+03  0.11084545622E+04  0.90768458552E+02 0.  0.
          2    1    3    3  502    0  0.74461881268E+02  0.12319218326E+02 -0.39504159263E+02  0.85187519633E+02  0.00000000000E+00 0.  1.
         -2    1    3    3    0  502  0.51211671865E+03  0.30346450128E+02 -0.57263121321E+03  0.76882439276E+03  0.00000000000E+00 0. -1.
         11    1    5    5    0    0  0.40696882281E+02  0.23053209434E+02  0.85945835520E+01  0.47555794169E+02  0.00000000000E+00 0. -1.
        -11    1    5    5    0    0  0.12434387277E+03 -0.64945712750E+02 -0.56733791924E+02  0.15132107403E+03  0.00000000000E+00 0.  1.
          1    1    6    6  503    0 -0.27760358522E+03  0.10104271384E+02  0.23819528219E+03  0.36592736887E+03  0.00000000000E+00 0. -1.
         -1    1    6    6    0  503 -0.47401576975E+03 -0.10877436523E+02  0.57143447944E+03  0.74252719336E+03  0.00000000000E+00 0.  1.
<mgrwt>
<rscale>  0 0.21561767E+04</rscale>
<asrwt>0</asrwt>
<pdfrwt beam="1">  1        1 0.15476832E+00 0.21561767E+04</pdfrwt>
<pdfrwt beam="2">  1       -1 0.17774604E+00 0.21561767E+04</pdfrwt>
<totfact> 0.29597370E+00</totfact>
</mgrwt>
</event>
<event>
12    2  0.3518828E-008  0.1369978E+04  0.7818608E-02  0.8975841E-01
          1   -1    0    0  501    0  0.00000000000E+00  0.00000000000E+00  0.40104705375E+03  0.40104705375E+03  0.00000000000E+00 0. -1.
         -1   -1    0    0    0  501 -0.00000000000E+00 -0.00000000000E+00 -0.11699626076E+04  0.11699626076E+04  0.00000000000E+00 0.  1.
         23    2    1    2    0    0 -0.17238279936E+03 -0.32312734044E+03 -0.14337159111E+03  0.40373475747E+03  0.91209832777E+02 0.  0.
        254    2    1    2    0    0  0.17238279936E+03  0.32312734044E+03 -0.62554396270E+03  0.11672749039E+04  0.91493078658E+03 0.  0.
         23    2    4    4    0    0 -0.85843561171E+02 -0.22804806353E+03 -0.46457754318E+03  0.53142548370E+03  0.84886482007E+02 0.  0.
         23    2    4    4    0    0  0.25822636053E+03  0.55117540397E+03 -0.16096641953E+03  0.63584942015E+03  0.88989424531E+02 0.  0.
          3    1    3    3  502    0  0.10831690648E+02 -0.20394978303E+02 -0.13797289660E+02  0.26900666614E+02  0.00000000000E+00 0. -1.
         -3    1    3    3    0  502 -0.18321449000E+03 -0.30273236214E+03 -0.12957430145E+03  0.37683409085E+03  0.00000000000E+00 0.  1.
         11    1    5    5    0    0 -0.79650679675E+01 -0.12722992017E+03 -0.19091344404E+03  0.22956227480E+03  0.00000000000E+00 0. -1.
        -11    1    5    5    0    0 -0.77878493203E+02 -0.10081814336E+03 -0.27366409913E+03  0.30186320890E+03  0.00000000000E+00 0.  1.
          1    1    6    6  503    0  0.14210653933E+03  0.39903509550E+03 -0.11762871485E+03  0.43961322833E+03  0.00000000000E+00 0. -1.
         -1    1    6    6    0  503  0.11611982119E+03  0.15214030847E+03 -0.43337704683E+02  0.19623619183E+03  0.00000000000E+00 0.  1.
<mgrwt>
<rscale>  0 0.13699782E+04</rscale>
<asrwt>0</asrwt>
<pdfrwt beam="1">  1        1 0.61699548E-01 0.13699782E+04</pdfrwt>
<pdfrwt beam="2">  1       -1 0.17999424E+00 0.13699782E+04</pdfrwt>
<totfact> 0.12160151E+01</totfact>
</mgrwt>
</event>
<event>
12    2  0.3518828E-008  0.1283462E+04  0.7818608E-02  0.9042784E-01
          1   -1    0    0  501    0  0.00000000000E+00  0.00000000000E+00  0.33542151956E+04  0.33542151956E+04  0.00000000000E+00 0. -1.
         -1   -1    0    0    0  501 -0.00000000000E+00 -0.00000000000E+00 -0.12277637581E+03  0.12277637581E+03  0.00000000000E+00 0.  1.
         23    2    1    2    0    0 -0.18823521122E+03  0.13597396553E+03  0.28740863051E+03  0.38059777710E+03  0.91266275234E+02 0.  0.
        254    2    1    2    0    0  0.18823521122E+03 -0.13597396553E+03  0.29440301893E+04  0.30963937943E+04  0.93081650180E+03 0.  0.
         23    2    4    4    0    0 -0.26906950218E+03  0.11514194921E+03  0.44885804381E+03  0.54563047460E+03  0.10287373745E+03 0.  0.
         23    2    4    4    0    0  0.45730471340E+03 -0.25111591474E+03  0.24951721455E+04  0.25507633197E+04  0.91228691115E+02 0.  0.
          3    1    3    3  502    0  0.94598057406E+01  0.13550215264E+01  0.60211089318E+01  0.11295032570E+02  0.00000000000E+00 0. -1.
         -3    1    3    3    0  502 -0.19769501696E+03  0.13461894400E+03  0.28138752158E+03  0.36930274453E+03  0.00000000000E+00 0.  1.
         11    1    5    5    0    0 -0.23784707114E+03  0.64533713922E+02  0.32164381416E+03  0.40520435915E+03  0.00000000000E+00 0.  1.
        -11    1    5    5    0    0 -0.31222431042E+02  0.50608235287E+02  0.12721422964E+03  0.14042611546E+03  0.00000000000E+00 0. -1.
          4    1    6    6  503    0  0.79674574695E+02 -0.80837849808E+02  0.63014892006E+03  0.64028935433E+03  0.00000000000E+00 0. -1.
         -4    1    6    6    0  503  0.37763013871E+03 -0.17027806493E+03  0.18650232255E+04  0.19104739654E+04  0.00000000000E+00 0.  1.
<mgrwt>
<rscale>  0 0.12834615E+04</rscale>
<asrwt>0</asrwt>
<pdfrwt beam="1">  1        1 0.51603304E+00 0.12834615E+04</pdfrwt>
<pdfrwt beam="2">  1       -1 0.18888676E-01 0.12834615E+04</pdfrwt>
<totfact> 0.73013934E+00</totfact>
</mgrwt>
</event>
<event>
12    2  0.3518828E-008  0.2488594E+04  0.7818608E-02  0.8407060E-01
         -2   -1    0    0    0  501 -0.00000000000E+00  0.00000000000E+00  0.81300553293E+03  0.81300553293E+03  0.00000000000E+00 0.  1.
          2   -1    0    0  501    0  0.00000000000E+00 -0.00000000000E+00 -0.19043843038E+04  0.19043843038E+04  0.00000000000E+00 0. -1.
         23    2    1    2    0    0 -0.50300095659E+03  0.79043467529E+03 -0.10560034399E+04  0.14140800946E+04  0.81745401999E+02 0.  0.
        254    2    1    2    0    0  0.50300095659E+03 -0.79043467529E+03 -0.35375330975E+02  0.13033097421E+04  0.90529991250E+03 0.  0.
         23    2    4    4    0    0 -0.95358489285E+02 -0.67120941724E+03 -0.55606149411E+02  0.68617863919E+03  0.90187348049E+02 0.  0.
         23    2    4    4    0    0  0.59835944587E+03 -0.11922525804E+03  0.20230818436E+02  0.61713110291E+03  0.90514217351E+02 0.  0.
          4    1    3    3  502    0 -0.12659611864E+03  0.25678277519E+03 -0.35427071083E+03  0.45549062278E+03  0.00000000000E+00 0.  1.
         -4    1    3    3    0  502 -0.37640483795E+03  0.53365190009E+03 -0.70173272905E+03  0.95858947184E+03  0.00000000000E+00 0. -1.
         11    1    5    5    0    0 -0.46997433337E+02 -0.54528954720E+03 -0.25109827445E+02  0.54788680624E+03  0.00000000000E+00 0. -1.
        -11    1    5    5    0    0 -0.48361055949E+02 -0.12591987005E+03 -0.30496321966E+02  0.13829183294E+03  0.00000000000E+00 0.  1.
          2    1    6    6  503    0  0.39747115193E+02  0.59167114112E+01 -0.16623981613E+02  0.43487899521E+02  0.00000000000E+00 0. -1.
         -2    1    6    6    0  503  0.55861233068E+03 -0.12514196946E+03  0.36854800050E+02  0.57364320339E+03  0.00000000000E+00 0.  1.
<mgrwt>
<rscale>  0 0.24885940E+04</rscale>
<asrwt>0</asrwt>
<pdfrwt beam="1">  1        2 0.29298219E+00 0.24885940E+04</pdfrwt>
<pdfrwt beam="2">  1       -2 0.12507778E+00 0.24885940E+04</pdfrwt>
<totfact> 0.32272698E+00</totfact>
</mgrwt>
</event>
<event>
12    2  0.3518828E-008  0.1704656E+04  0.7818608E-02  0.8758713E-01
          1   -1    0    0  501    0  0.00000000000E+00  0.00000000000E+00  0.14299207167E+04  0.14299207167E+04  0.00000000000E+00 0. -1.
         -1   -1    0    0    0  501 -0.00000000000E+00 -0.00000000000E+00 -0.50804426064E+03  0.50804426064E+03  0.00000000000E+00 0.  1.
         23    2    1    2    0    0  0.42138701781E+03 -0.21867527900E+02  0.83005772945E+03  0.93754129994E+03  0.10928241999E+03 0.  0.
        254    2    1    2    0    0 -0.42138701781E+03  0.21867527900E+02  0.91818726645E+02  0.10004236774E+04  0.90242542530E+03 0.  0.
         23    2    4    4    0    0 -0.19869482267E+02 -0.29394436644E+02 -0.36838446385E+03  0.38106162035E+03  0.90785549841E+02 0.  0.
         23    2    4    4    0    0 -0.40151753555E+03  0.51261964544E+02  0.46020319050E+03  0.61936205708E+03  0.89321110837E+02 0.  0.
          2    1    3    3  502    0  0.27753557438E+03 -0.60426804686E+02  0.49141500891E+03  0.56759678007E+03  0.00000000000E+00 0. -1.
         -2    1    3    3    0  502  0.14385144344E+03  0.38559276786E+02  0.33864272055E+03  0.36994451987E+03  0.00000000000E+00 0.  1.
         11    1    5    5    0    0  0.64273491718E+01 -0.25276243008E+02 -0.34392558586E+03  0.34491304396E+03  0.00000000000E+00 0.  1.
        -11    1    5    5    0    0 -0.26296831439E+02 -0.41181936358E+01 -0.24458877990E+02  0.36148576391E+02  0.00000000000E+00 0. -1.
          2    1    6    6  503    0 -0.99826191615E+02 -0.14981924518E+02  0.15617553461E+03  0.18595839375E+03  0.00000000000E+00 0. -1.
         -2    1    6    6    0  503 -0.30169134393E+03  0.66243889062E+02  0.30402765589E+03  0.43340366333E+03  0.00000000000E+00 0.  1.
<mgrwt>
<rscale>  0 0.17046560E+04</rscale>
<asrwt>0</asrwt>
<pdfrwt beam="1">  1        1 0.21998780E+00 0.17046560E+04</pdfrwt>
<pdfrwt beam="2">  1       -1 0.78160656E-01 0.17046560E+04</pdfrwt>
<totfact> 0.11412586E+01</totfact>
</mgrwt>
</event>
<event>
12    2  0.3518828E-008  0.2296351E+04  0.7818608E-02  0.8479361E-01
         -2   -1    0    0    0  501 -0.00000000000E+00  0.00000000000E+00  0.12640579104E+04  0.12640579104E+04  0.00000000000E+00 0.  1.
          2   -1    0    0  501    0  0.00000000000E+00 -0.00000000000E+00 -0.10429169547E+04  0.10429169547E+04  0.00000000000E+00 0. -1.
         23    2    1    2    0    0  0.10341970443E+03  0.93324639546E+03  0.32947951615E+03  0.99922375926E+03  0.90812441878E+02 0.  0.
        254    2    1    2    0    0 -0.10341970443E+03 -0.93324639546E+03 -0.10833856051E+03  0.13077511059E+04  0.90378716594E+03 0.  0.
         23    2    4    4    0    0 -0.43614233497E+03 -0.23618297643E+03  0.63991826400E+02  0.51022169218E+03  0.10113696961E+03 0.  0.
         23    2    4    4    0    0  0.33272263053E+03 -0.69706341904E+03 -0.17233038691E+03  0.79752941370E+03  0.98760540861E+02 0.  0.
          3    1    3    3  502    0  0.75152828263E+02  0.42047062441E+03  0.11240977991E+03  0.44167799607E+03  0.00000000000E+00 0. -1.
         -3    1    3    3    0  502  0.28266876170E+02  0.51277577105E+03  0.21706973624E+03  0.55754576319E+03  0.00000000000E+00 0.  1.
         11    1    5    5    0    0 -0.74683004922E+02 -0.50113762998E+02  0.51177842789E+02  0.10348000801E+03  0.00000000000E+00 0.  1.
        -11    1    5    5    0    0 -0.36145933004E+03 -0.18606921343E+03  0.12813983610E+02  0.40674168417E+03  0.00000000000E+00 0. -1.
          1    1    6    6  503    0  0.32954545973E+03 -0.69782340563E+03 -0.16452316512E+03  0.78906627562E+03  0.00000000000E+00 0. -1.
         -1    1    6    6    0  503  0.31771708055E+01  0.75998658962E+00 -0.78072217907E+01  0.84631380724E+01  0.00000000000E+00 0.  1.
<mgrwt>
<rscale>  0 0.22963514E+04</rscale>
<asrwt>0</asrwt>
<pdfrwt beam="1">  1        2 0.16044876E+00 0.22963514E+04</pdfrwt>
<pdfrwt beam="2">  1       -2 0.19447045E+00 0.22963514E+04</pdfrwt>
<totfact> 0.31027414E+00</totfact>
</mgrwt>
</event>
<event>
12    2  0.3518828E-008  0.2014861E+04  0.7818608E-02  0.8599704E-01
         -2   -1    0    0    0  501 -0.00000000000E+00  0.00000000000E+00  0.74624851664E+03  0.74624851664E+03  0.00000000000E+00 0.  1.
          2   -1    0    0  501    0  0.00000000000E+00 -0.00000000000E+00 -0.13600246806E+04  0.13600246806E+04  0.00000000000E+00 0. -1.
         23    2    1    2    0    0 -0.77725802601E+03 -0.19939718615E+03 -0.25675708443E+03  0.84733099517E+03  0.90312447274E+02 0.  0.
        254    2    1    2    0    0  0.77725802601E+03  0.19939718615E+03 -0.35701907957E+03  0.12589422021E+04  0.90198867410E+03 0.  0.
         23    2    4    4    0    0 -0.12761033872E+03  0.16846188745E+03  0.86497423179E+02  0.24659476523E+03  0.93077214986E+02 0.  0.
         23    2    4    4    0    0  0.90486836474E+03  0.30935298701E+02 -0.44351650275E+03  0.10123474369E+04  0.91633479285E+02 0.  0.
          3    1    3    3  502    0 -0.23546670819E+03 -0.66475471325E+02 -0.35656738450E+02  0.24725485223E+03  0.00000000000E+00 0. -1.
         -3    1    3    3    0  502 -0.54179131782E+03 -0.13292171483E+03 -0.22110034598E+03  0.60007614295E+03  0.00000000000E+00 0.  1.
         11    1    5    5    0    0 -0.63886262033E+01  0.80501055993E+02  0.23422073784E+02  0.84082269838E+02  0.00000000000E+00 0.  1.
        -11    1    5    5    0    0 -0.12122171252E+03  0.87960831456E+02  0.63075349395E+02  0.16251249539E+03  0.00000000000E+00 0. -1.
          1    1    6    6  503    0  0.78411562986E+03  0.28298838043E+02 -0.34788402303E+03  0.85828983374E+03  0.00000000000E+00 0. -1.
         -1    1    6    6    0  503  0.12075273487E+03  0.26364606580E+01 -0.95632479722E+02  0.15405760313E+03  0.00000000000E+00 0.  1.
<mgrwt>
<rscale>  0 0.20148612E+04</rscale>
<asrwt>0</asrwt>
<pdfrwt beam="1">  1        2 0.20923457E+00 0.20148612E+04</pdfrwt>
<pdfrwt beam="2">  1       -2 0.11480746E+00 0.20148612E+04</pdfrwt>
<totfact> 0.83838529E+00</totfact>
</mgrwt>
</event>
<event>
12    2  0.3518828E-008  0.1097305E+04  0.7818608E-02  0.9207822E-01
          1   -1    0    0  501    0  0.00000000000E+00  0.00000000000E+00  0.89608567442E+03  0.89608567442E+03  0.00000000000E+00 0. -1.
         -1   -1    0    0    0  501 -0.00000000000E+00 -0.00000000000E+00 -0.33592743167E+03  0.33592743167E+03  0.00000000000E+00 0.  1.
         23    2    1    2    0    0  0.96659181064E+02 -0.13265491333E+03  0.13243080618E+03  0.23048193298E+03  0.92971391788E+02 0.  0.
        254    2    1    2    0    0 -0.96659181064E+02  0.13265491333E+03  0.42772743656E+03  0.10015311731E+04  0.89060294598E+03 0.  0.
         23    2    4    4    0    0  0.36935755554E+02 -0.89518334369E+02 -0.24268507299E+03  0.27696805324E+03  0.91855732733E+02 0.  0.
         23    2    4    4    0    0 -0.13359493662E+03  0.22217324770E+03  0.67041250955E+03  0.72456311986E+03  0.91270053256E+02 0.  0.
          1    1    3    3  502    0  0.71757793591E+02 -0.11646571883E+03  0.14398905551E+03  0.19861090783E+03  0.00000000000E+00 0. -1.
         -1    1    3    3    0  502  0.24901387473E+02 -0.16189194503E+02 -0.11558249327E+02  0.31871025152E+02  0.00000000000E+00 0.  1.
         11    1    5    5    0    0 -0.19334503571E+02 -0.52816699801E+02 -0.16468454899E+03  0.17402421522E+03  0.00000000000E+00 0. -1.
        -11    1    5    5    0    0  0.56270259125E+02 -0.36701634567E+02 -0.78000523996E+02  0.10294383802E+03  0.00000000000E+00 0.  1.
          3    1    6    6  503    0 -0.31352943534E+02  0.14039332991E+03  0.35892590098E+03  0.38667957865E+03  0.00000000000E+00 0. -1.
         -3    1    6    6    0  503 -0.10224199308E+03  0.81779917788E+02  0.31148660857E+03  0.33788354121E+03  0.00000000000E+00 0.  1.
<mgrwt>
<rscale>  0 0.10973054E+04</rscale>
<asrwt>0</asrwt>
<pdfrwt beam="1">  1        1 0.13785933E+00 0.10973054E+04</pdfrwt>
<pdfrwt beam="2">  1       -1 0.51681144E-01 0.10973054E+04</pdfrwt>
<totfact> 0.68822191E+01</totfact>
</mgrwt>
</event>
<event>
12    2  0.3518828E-008  0.1107146E+04  0.7818608E-02  0.9198255E-01
          3   -1    0    0  501    0  0.00000000000E+00  0.00000000000E+00  0.72186044878E+03  0.72186044878E+03  0.00000000000E+00 0. -1.
         -3   -1    0    0    0  501 -0.00000000000E+00 -0.00000000000E+00 -0.42451854443E+03  0.42451854443E+03  0.00000000000E+00 0.  1.
         23    2    1    2    0    0  0.79588979190E+02  0.13215819323E+03  0.29005888200E+02  0.18195755956E+03  0.92016402258E+02 0.  0.
        254    2    1    2    0    0 -0.79588979190E+02 -0.13215819323E+03  0.26833601614E+03  0.96442143364E+03  0.91340258948E+03 0.  0.
         23    2    4    4    0    0 -0.29078727888E+03 -0.20847951933E+03  0.50491524538E+03  0.62540478343E+03  0.90392403412E+02 0.  0.
         23    2    4    4    0    0  0.21119829969E+03  0.76321326094E+02 -0.23657922923E+03  0.33901665021E+03  0.92373647802E+02 0.  0.
          4    1    3    3  502    0  0.77500336226E+02  0.10154561218E+03  0.57498114012E+02  0.14008514048E+03  0.00000000000E+00 0. -1.
         -4    1    3    3    0  502  0.20886429635E+01  0.30612581051E+02 -0.28492225812E+02  0.41872419082E+02  0.00000000000E+00 0.  1.
         11    1    5    5    0    0 -0.21645057485E+03 -0.10378879829E+03  0.31178590940E+03  0.39348877913E+03  0.00000000000E+00 0.  1.
        -11    1    5    5    0    0 -0.74336704030E+02 -0.10469072104E+03  0.19312933597E+03  0.23191600430E+03  0.00000000000E+00 0. -1.
          4    1    6    6  503    0  0.26352471095E+02 -0.16887682141E+02 -0.56711609157E+02  0.64775405472E+02  0.00000000000E+00 0. -1.
         -4    1    6    6    0  503  0.18484582859E+03  0.93209008235E+02 -0.17986762007E+03  0.27424124474E+03  0.00000000000E+00 0.  1.
<mgrwt>
<rscale>  0 0.11071461E+04</rscale>
<asrwt>0</asrwt>
<pdfrwt beam="1">  1        3 0.11105545E+00 0.11071461E+04</pdfrwt>
<pdfrwt beam="2">  1       -3 0.65310545E-01 0.11071461E+04</pdfrwt>
<totfact> 0.40253004E+00</totfact>
</mgrwt>
</event>
<event>
12    2  0.3518828E-008  0.1892878E+04  0.7818608E-02  0.8658410E-01
         -2   -1    0    0    0  501 -0.00000000000E+00  0.00000000000E+00  0.37636754041E+03  0.37636754041E+03  0.00000000000E+00 0.  1.
          2   -1    0    0  501    0  0.00000000000E+00 -0.00000000000E+00 -0.23799786244E+04  0.23799786244E+04  0.00000000000E+00 0. -1.
         23    2    1    2    0    0  0.61235225061E+03 -0.11857953610E+03 -0.22824882288E+03  0.67052529779E+03  0.92034040602E+02 0.  0.
        254    2    1    2    0    0 -0.61235225061E+03  0.11857953610E+03 -0.17753622611E+04  0.20858208670E+04  0.89983395461E+03 0.  0.
         23    2    4    4    0    0 -0.78971509542E+03 -0.91822235361E+02 -0.12155806294E+04  0.14553219264E+04  0.90798613204E+02 0.  0.
         23    2    4    4    0    0  0.17736284481E+03  0.21040177146E+03 -0.55978163167E+03  0.63049894053E+03  0.91907315849E+02 0.  0.
          1    1    3    3  502    0  0.28740838145E+03 -0.40820056397E+02 -0.59969241794E+02  0.29642227428E+03  0.00000000000E+00 0. -1.
         -1    1    3    3    0  502  0.32494386916E+03 -0.77759479701E+02 -0.16827958109E+03  0.37410302351E+03  0.00000000000E+00 0.  1.
         11    1    5    5    0    0 -0.79942549784E+02  0.12720096516E+02 -0.15522545748E+03  0.17506443034E+03  0.00000000000E+00 0. -1.
        -11    1    5    5    0    0 -0.70977254564E+03 -0.10454233188E+03 -0.10603551719E+04  0.12802574961E+04  0.00000000000E+00 0.  1.
          3    1    6    6  503    0  0.25234818096E+02 -0.56572211276E+01 -0.47708744049E+02  0.54267158153E+02  0.00000000000E+00 0. -1.
         -3    1    6    6    0  503  0.15212802672E+03  0.21605899259E+03 -0.51207288762E+03  0.57623178238E+03  0.00000000000E+00 0.  1.
<mgrwt>
<rscale>  0 0.18928779E+04</rscale>
<asrwt>0</asrwt>
<pdfrwt beam="1">  1        2 0.36615056E+00 0.18928779E+04</pdfrwt>
<pdfrwt beam="2">  1       -2 0.57902698E-01 0.18928779E+04</pdfrwt>
<totfact> 0.10684521E+01</totfact>
</mgrwt>
</event>
<event>
12    2  0.3518828E-008  0.1531225E+04  0.7818608E-02  0.8863950E-01
         -1   -1    0    0    0  501 -0.00000000000E+00  0.00000000000E+00  0.62083473082E+03  0.62083473082E+03  0.00000000000E+00 0.  1.
          1   -1    0    0  501    0  0.00000000000E+00 -0.00000000000E+00 -0.94415270462E+03  0.94415270462E+03  0.00000000000E+00 0. -1.
         23    2    1    2    0    0 -0.30094555715E+03  0.26063904710E+03  0.30143099412E+03  0.50757083750E+03  0.90920677662E+02 0.  0.
        254    2    1    2    0    0  0.30094555715E+03 -0.26063904710E+03 -0.62474896793E+03  0.10574165979E+04  0.75453140916E+03 0.  0.
         23    2    4    4    0    0  0.53526967143E+03 -0.25572445069E+03 -0.44876318019E+03  0.74973023347E+03  0.93799868076E+02 0.  0.
         23    2    4    4    0    0 -0.23432411428E+03 -0.49145964081E+01 -0.17598578773E+03  0.30768636446E+03  0.93637372882E+02 0.  0.
          4    1    3    3  502    0 -0.36222370174E+02  0.25839117638E+02  0.28580101641E+01  0.44585741257E+02  0.00000000000E+00 0. -1.
         -4    1    3    3    0  502 -0.26472318698E+03  0.23479992946E+03  0.29857298396E+03  0.46298509625E+03  0.00000000000E+00 0.  1.
         11    1    5    5    0    0  0.10124938832E+03 -0.36826439294E+02 -0.41079618806E+02  0.11530464149E+03  0.00000000000E+00 0. -1.
        -11    1    5    5    0    0  0.43402028310E+03 -0.21889801139E+03 -0.40768356139E+03  0.63442559198E+03  0.00000000000E+00 0.  1.
          3    1    6    6  503    0 -0.58697197988E+02  0.30681071937E+02 -0.81775830257E+02  0.10523295891E+03  0.00000000000E+00 0. -1.
         -3    1    6    6    0  503 -0.17562691629E+03 -0.35595668346E+02 -0.94209957475E+02  0.20245340555E+03  0.00000000000E+00 0.  1.
<mgrwt>
<rscale>  0 0.15312254E+04</rscale>
<asrwt>0</asrwt>
<pdfrwt beam="1">  1        1 0.14525426E+00 0.15312254E+04</pdfrwt>
<pdfrwt beam="2">  1       -1 0.95513036E-01 0.15312254E+04</pdfrwt>
<totfact> 0.17106930E+01</totfact>
</mgrwt>
</event>
<event>
12    2  0.3518828E-008  0.1523488E+04  0.7818608E-02  0.8868982E-01
          2   -1    0    0  501    0  0.00000000000E+00  0.00000000000E+00  0.17810861678E+04  0.17810861678E+04  0.00000000000E+00 0. -1.
         -2   -1    0    0    0  501 -0.00000000000E+00 -0.00000000000E+00 -0.32578666595E+03  0.32578666595E+03  0.00000000000E+00 0.  1.
         23    2    1    2    0    0  0.33144989982E+03  0.28763900466E+03  0.17109313813E+03  0.47988798677E+03  0.91784447667E+02 0.  0.
        254    2    1    2    0    0 -0.33144989982E+03 -0.28763900466E+03  0.12842063637E+04  0.16269848469E+04  0.89738424019E+03 0.  0.
         23    2    4    4    0    0 -0.21078997387E+03 -0.24863081907E+03  0.13952706157E+04  0.14356735246E+04  0.90159197581E+02 0.  0.
         23    2    4    4    0    0 -0.12065992595E+03 -0.39008185590E+02 -0.11106425203E+03  0.19131132233E+03  0.90467108395E+02 0.  0.
          1    1    3    3  502    0  0.85806501973E+02  0.11617725042E+03  0.87540288413E+02  0.16888816238E+03  0.00000000000E+00 0. -1.
         -1    1    3    3    0  502  0.24564339785E+03  0.17146175424E+03  0.83552849718E+02  0.31099982439E+03  0.00000000000E+00 0.  1.
         11    1    5    5    0    0 -0.12450922934E+03 -0.20074063070E+03  0.10699613776E+04  0.10957265620E+04  0.00000000000E+00 0. -1.
        -11    1    5    5    0    0 -0.86280744527E+02 -0.47890188373E+02  0.32530923810E+03  0.33994696265E+03  0.00000000000E+00 0.  1.
          2    1    6    6  503    0 -0.64002570692E+02 -0.64753074094E+02 -0.82392711627E+02  0.12279189138E+03  0.00000000000E+00 0. -1.
         -2    1    6    6    0  503 -0.56657355261E+02  0.25744888504E+02 -0.28671540399E+02  0.68519430953E+02  0.00000000000E+00 0.  1.
<mgrwt>
<rscale>  0 0.15234883E+04</rscale>
<asrwt>0</asrwt>
<pdfrwt beam="1">  1        2 0.27401325E+00 0.15234883E+04</pdfrwt>
<pdfrwt beam="2">  1       -2 0.50121027E-01 0.15234883E+04</pdfrwt>
<totfact> 0.32103944E+01</totfact>
</mgrwt>
</event>
<event>
12    2  0.3518828E-008  0.2040424E+04  0.7818608E-02  0.8587951E-01
          2   -1    0    0  501    0  0.00000000000E+00  0.00000000000E+00  0.27360077547E+04  0.27360077547E+04  0.00000000000E+00 0. -1.
         -2   -1    0    0    0  501 -0.00000000000E+00 -0.00000000000E+00 -0.38042007421E+03  0.38042007421E+03  0.00000000000E+00 0.  1.
         23    2    1    2    0    0 -0.47880492804E+03 -0.66294006778E+03  0.10021469373E+04  0.12966577348E+04  0.90989584834E+02 0.  0.
        254    2    1    2    0    0  0.47880492804E+03  0.66294006778E+03  0.13534407432E+04  0.18197700942E+04  0.90056518795E+03 0.  0.
         23    2    4    4    0    0 -0.25386653975E+02  0.45571040197E+03  0.13948679958E+03  0.48592175993E+03  0.91361572105E+02 0.  0.
         23    2    4    4    0    0  0.50419158201E+03  0.20722966581E+03  0.12139539436E+04  0.13338483343E+04  0.91180676553E+02 0.  0.
          3    1    3    3  502    0 -0.39069113698E+03 -0.53415812153E+03  0.75099353982E+03  0.10009774024E+04  0.00000000000E+00 0. -1.
         -3    1    3    3    0  502 -0.88113791056E+02 -0.12878194625E+03  0.25115339749E+03  0.29568033232E+03  0.00000000000E+00 0.  1.
         11    1    5    5    0    0 -0.49853661019E+02  0.39084411612E+03  0.13481687200E+03  0.41643738977E+03  0.00000000000E+00 0. -1.
        -11    1    5    5    0    0  0.24467007044E+02  0.64866285849E+02  0.46699275831E+01  0.69484370165E+02  0.00000000000E+00 0.  1.
          3    1    6    6  503    0  0.48386338017E+03  0.17562818973E+03  0.11184601355E+04  0.12312278856E+04  0.00000000000E+00 0. -1.
         -3    1    6    6    0  503  0.20328201845E+02  0.31601476087E+02  0.95493808179E+02  0.10262044865E+03  0.00000000000E+00 0.  1.
<mgrwt>
<rscale>  0 0.20404238E+04</rscale>
<asrwt>0</asrwt>
<pdfrwt beam="1">  1        2 0.42092426E+00 0.20404238E+04</pdfrwt>
<pdfrwt beam="2">  1       -2 0.58526167E-01 0.20404238E+04</pdfrwt>
<totfact> 0.63947139E+00</totfact>
</mgrwt>
</event>
<event>
12    2  0.3518828E-008  0.1586788E+04  0.7818608E-02  0.8828706E-01
          1   -1    0    0  501    0  0.00000000000E+00  0.00000000000E+00  0.92074461267E+03  0.92074461267E+03  0.00000000000E+00 0. -1.
         -1   -1    0    0    0  501 -0.00000000000E+00 -0.00000000000E+00 -0.68365764809E+03  0.68365764809E+03  0.00000000000E+00 0.  1.
         23    2    1    2    0    0  0.14079038391E+03 -0.51914097145E+03  0.41136725192E+02  0.54660907909E+03  0.88090718890E+02 0.  0.
        254    2    1    2    0    0 -0.14079038391E+03  0.51914097145E+03  0.19595023938E+03  0.10577931817E+04  0.88949459720E+03 0.  0.
         23    2    4    4    0    0 -0.39809249197E+03  0.27158300546E+03 -0.18899161307E+03  0.52443165530E+03  0.84117597766E+02 0.  0.
         23    2    4    4    0    0  0.25730210807E+03  0.24755796599E+03  0.38494185245E+03  0.53336152637E+03  0.93834784062E+02 0.  0.
          3    1    3    3  502    0 -0.12372642479E+01  0.26662297489E+01 -0.27700225773E+01  0.40388895716E+01  0.00000000000E+00 0. -1.
         -3    1    3    3    0  502  0.14202764815E+03 -0.52180720119E+03  0.43906747769E+02  0.54257018952E+03  0.00000000000E+00 0.  1.
         11    1    5    5    0    0 -0.27449414721E+03  0.17368321886E+03 -0.85717467323E+02  0.33594699220E+03  0.00000000000E+00 0. -1.
        -11    1    5    5    0    0 -0.12359834476E+03  0.97899786598E+02 -0.10327414575E+03  0.18848466310E+03  0.00000000000E+00 0.  1.
          3    1    6    6  503    0  0.25778688194E+03  0.25417587688E+03  0.38133206453E+03  0.52580756587E+03  0.00000000000E+00 0. -1.
         -3    1    6    6    0  503 -0.48477387450E+00 -0.66179108948E+01  0.36097879238E+01  0.75539604960E+01  0.00000000000E+00 0.  1.
<mgrwt>
<rscale>  0 0.15867881E+04</rscale>
<asrwt>0</asrwt>
<pdfrwt beam="1">  1        1 0.14165302E+00 0.15867881E+04</pdfrwt>
<pdfrwt beam="2">  1       -1 0.10517810E+00 0.15867881E+04</pdfrwt>
<totfact> 0.14258978E+01</totfact>
</mgrwt>
</event>
<event>
12    2  0.3518828E-008  0.1619444E+04  0.7818608E-02  0.8808691E-01
         -2   -1    0    0    0  501 -0.00000000000E+00  0.00000000000E+00  0.70495080778E+03  0.70495080778E+03  0.00000000000E+00 0.  1.
          2   -1    0    0  501    0  0.00000000000E+00 -0.00000000000E+00 -0.93006475838E+03  0.93006475838E+03  0.00000000000E+00 0. -1.
         23    2    1    2    0    0  0.11213513982E+03  0.12973034900E+03 -0.60974349871E+03  0.63988520752E+03  0.90893847730E+02 0.  0.
        254    2    1    2    0    0 -0.11213513982E+03 -0.12973034900E+03  0.38462954810E+03  0.99513035864E+03  0.90163201384E+03 0.  0.
         23    2    4    4    0    0  0.29380282774E+03  0.54193828075E+02  0.43783404070E+03  0.53692680986E+03  0.85642742569E+02 0.  0.
         23    2    4    4    0    0 -0.40593796756E+03 -0.18392417708E+03 -0.53204492604E+02  0.45820354878E+03  0.92228182584E+02 0.  0.
          2    1    3    3  502    0  0.98293114694E+02  0.59121247165E+02 -0.28398607708E+03  0.30627593807E+03  0.00000000000E+00 0. -1.
         -2    1    3    3    0  502  0.13842025123E+02  0.70609101839E+02 -0.32575742163E+03  0.33360926946E+03  0.00000000000E+00 0.  1.
         11    1    5    5    0    0  0.26660834512E+03  0.45286234170E+02  0.42873845854E+03  0.50689990977E+03  0.00000000000E+00 0.  1.
        -11    1    5    5    0    0  0.27194482620E+02  0.89075939055E+01  0.90955821693E+01  0.30026900092E+02  0.00000000000E+00 0. -1.
          2    1    6    6  503    0 -0.16993686633E+03 -0.10111448923E+03  0.16876128437E+02  0.19846279798E+03  0.00000000000E+00 0. -1.
         -2    1    6    6    0  503 -0.23600110123E+03 -0.82809687853E+02 -0.70080621041E+02  0.25974075080E+03  0.00000000000E+00 0.  1.
<mgrwt>
<rscale>  0 0.16194442E+04</rscale>
<asrwt>0</asrwt>
<pdfrwt beam="1">  1        2 0.14308688E+00 0.16194442E+04</pdfrwt>
<pdfrwt beam="2">  1       -2 0.10845397E+00 0.16194442E+04</pdfrwt>
<totfact> 0.18223889E+01</totfact>
</mgrwt>
</event>
<event>
12    2  0.3518828E-008  0.1035790E+04  0.7818608E-02  0.9270139E-01
          1   -1    0    0  501    0  0.00000000000E+00  0.00000000000E+00  0.73451155673E+03  0.73451155673E+03  0.00000000000E+00 0. -1.
         -1   -1    0    0    0  501 -0.00000000000E+00 -0.00000000000E+00 -0.36516125836E+03  0.36516125836E+03  0.00000000000E+00 0.  1.
         23    2    1    2    0    0  0.67047354338E+00 -0.32561377869E+02  0.11912601916E+03  0.15449372015E+03  0.92825687518E+02 0.  0.
        254    2    1    2    0    0 -0.67047354338E+00  0.32561377869E+02  0.25022427921E+03  0.94517909493E+03  0.91087355804E+03 0.  0.
         23    2    4    4    0    0  0.17958340541E+03 -0.17809369781E+03  0.49491172319E+03  0.56422305703E+03  0.97172422183E+02 0.  0.
         23    2    4    4    0    0 -0.18025387895E+03  0.21065507568E+03 -0.24468744399E+03  0.38095603790E+03  0.91588950121E+02 0.  0.
          2    1    3    3  502    0  0.33172866764E+02 -0.96945480717E+01  0.10775037070E+03  0.11315726109E+03  0.00000000000E+00 0. -1.
         -2    1    3    3    0  502 -0.32502393221E+02 -0.22866829797E+02  0.11375648458E+02  0.41336459063E+02  0.00000000000E+00 0.  1.
         11    1    5    5    0    0  0.32684944355E+02 -0.96523426238E+02  0.21088541795E+03  0.23421728567E+03  0.00000000000E+00 0. -1.
        -11    1    5    5    0    0  0.14689846105E+03 -0.81570271569E+02  0.28402630524E+03  0.33000577136E+03  0.00000000000E+00 0.  1.
          1    1    6    6  503    0 -0.12083362390E+03  0.16023503199E+03 -0.22311982058E+03  0.30009745830E+03  0.00000000000E+00 0. -1.
         -1    1    6    6    0  503 -0.59420255054E+02  0.50420043681E+02 -0.21567623402E+02  0.80858579598E+02  0.00000000000E+00 0.  1.
<mgrwt>
<rscale>  0 0.10357899E+04</rscale>
<asrwt>0</asrwt>
<pdfrwt beam="1">  1        1 0.11300178E+00 0.10357899E+04</pdfrwt>
<pdfrwt beam="2">  1       -1 0.56178655E-01 0.10357899E+04</pdfrwt>
<totfact> 0.81152295E+01</totfact>
</mgrwt>
</event>
<event>
12    2  0.3518828E-008  0.1652801E+04  0.7818608E-02  0.8788751E-01
          1   -1    0    0  501    0  0.00000000000E+00  0.00000000000E+00  0.17632980861E+04  0.17632980861E+04  0.00000000000E+00 0. -1.
         -1   -1    0    0    0  501 -0.00000000000E+00 -0.00000000000E+00 -0.38730699108E+03  0.38730699108E+03  0.00000000000E+00 0.  1.
         23    2    1    2    0    0  0.35177392179E+03  0.25582189788E+03  0.97237708729E+03  0.10689811070E+04  0.89519114008E+02 0.  0.
        254    2    1    2    0    0 -0.35177392179E+03 -0.25582189788E+03  0.40361400776E+03  0.10816239702E+04  0.90433202429E+03 0.  0.
         23    2    4    4    0    0 -0.56724279911E+03 -0.26936606202E+03  0.23323896260E+02  0.63499820296E+03  0.91412499768E+02 0.  0.
         23    2    4    4    0    0  0.21546887732E+03  0.13544164140E+02  0.38029011150E+03  0.44662576724E+03  0.90794964523E+02 0.  0.
          3    1    3    3  502    0  0.27218478818E+03  0.19144598196E+03  0.64214275908E+03  0.72324508015E+03  0.00000000000E+00 0. -1.
         -3    1    3    3    0  502  0.79589133605E+02  0.64375915917E+02  0.33023432821E+03  0.34573602685E+03  0.00000000000E+00 0.  1.
         11    1    5    5    0    0 -0.38853216236E+03 -0.17310660889E+03 -0.25868048920E+02  0.42613647484E+03  0.00000000000E+00 0. -1.
        -11    1    5    5    0    0 -0.17871063675E+03 -0.96259453129E+02  0.49191945180E+02  0.20886172812E+03  0.00000000000E+00 0.  1.
          1    1    6    6  503    0  0.19446580136E+03 -0.97077341009E+01  0.36004537563E+03  0.40932121924E+03  0.00000000000E+00 0. -1.
         -1    1    6    6    0  503  0.21003075960E+02  0.23251898240E+02  0.20244735862E+02  0.37304548003E+02  0.00000000000E+00 0.  1.
<mgrwt>
<rscale>  0 0.16528009E+04</rscale>
<asrwt>0</asrwt>
<pdfrwt beam="1">  1        1 0.27127662E+00 0.16528009E+04</pdfrwt>
<pdfrwt beam="2">  1       -1 0.59585692E-01 0.16528009E+04</pdfrwt>
<totfact> 0.11772240E+01</totfact>
</mgrwt>
</event>
<event>
12    2  0.3518828E-008  0.1224658E+04  0.7818608E-02  0.9091543E-01
         -1   -1    0    0    0  501 -0.00000000000E+00  0.00000000000E+00  0.57660225612E+03  0.57660225612E+03  0.00000000000E+00 0.  1.
          1   -1    0    0  501    0  0.00000000000E+00 -0.00000000000E+00 -0.65026944659E+03  0.65026944659E+03  0.00000000000E+00 0. -1.
         23    2    1    2    0    0 -0.22400491858E+03  0.11568761403E+03  0.76626673805E+02  0.27890720819E+03  0.91409824703E+02 0.  0.
        254    2    1    2    0    0  0.22400491858E+03 -0.11568761403E+03 -0.15029386428E+03  0.94796449453E+03  0.90138039121E+03 0.  0.
         23    2    4    4    0    0 -0.18367070893E+03  0.26430417467E+02 -0.39219367999E+03  0.44360019415E+03  0.92367490732E+02 0.  0.
         23    2    4    4    0    0  0.40767562751E+03 -0.14211803149E+03  0.24189981571E+03  0.50436430037E+03  0.97318418125E+02 0.  0.
          3    1    3    3  502    0 -0.65653458073E+01  0.35659130239E+02  0.14253157046E+02  0.38959335476E+02  0.00000000000E+00 0. -1.
         -3    1    3    3    0  502 -0.21743957277E+03  0.80028483789E+02  0.62373516759E+02  0.23994787271E+03  0.00000000000E+00 0.  1.
         11    1    5    5    0    0 -0.49034630817E+01 -0.20527987266E+02 -0.26747789385E+02  0.34071783757E+02  0.00000000000E+00 0.  1.
        -11    1    5    5    0    0 -0.17876724585E+03  0.46958404733E+02 -0.36544589060E+03  0.40952841040E+03  0.00000000000E+00 0. -1.
          4    1    6    6  503    0  0.38949514629E+03 -0.15183461688E+03  0.24332383659E+03  0.48370105366E+03  0.00000000000E+00 0. -1.
         -4    1    6    6    0  503  0.18180481225E+02  0.97165853851E+01 -0.14240208750E+01  0.20663246710E+02  0.00000000000E+00 0.  1.
<mgrwt>
<rscale>  0 0.12246580E+04</rscale>
<asrwt>0</asrwt>
<pdfrwt beam="1">  1        1 0.10004145E+00 0.12246580E+04</pdfrwt>
<pdfrwt beam="2">  1       -1 0.88708039E-01 0.12246580E+04</pdfrwt>
<totfact> 0.37522480E+01</totfact>
</mgrwt>
</event>
<event>
12    2  0.3518828E-008  0.2357746E+04  0.7818608E-02  0.8455494E-01
         -2   -1    0    0    0  501 -0.00000000000E+00  0.00000000000E+00  0.38937093576E+03  0.38937093576E+03  0.00000000000E+00 0.  1.
          2   -1    0    0  501    0  0.00000000000E+00 -0.00000000000E+00 -0.35691971407E+04  0.35691971407E+04  0.00000000000E+00 0. -1.
         23    2    1    2    0    0  0.78878274202E+03  0.24974519295E+03 -0.40698793678E+03  0.92656461028E+03  0.91279355998E+02 0.  0.
        254    2    1    2    0    0 -0.78878274202E+03 -0.24974519295E+03 -0.27728382681E+04  0.30320034661E+04  0.90546235817E+03 0.  0.
         23    2    4    4    0    0 -0.84645129171E+03  0.72416753785E+02 -0.22708116947E+04  0.24262683485E+04  0.92023750740E+02 0.  0.
         23    2    4    4    0    0  0.57668549695E+02 -0.32216194674E+03 -0.50202657341E+03  0.60573511763E+03  0.88149706589E+02 0.  0.
          4    1    3    3  502    0  0.18004226531E+03  0.74977155867E+02 -0.13559121873E+03  0.23753267101E+03  0.00000000000E+00 0. -1.
         -4    1    3    3    0  502  0.60874047671E+03  0.17476803708E+03 -0.27139671806E+03  0.68903193927E+03  0.00000000000E+00 0.  1.
         11    1    5    5    0    0 -0.60386414358E+03  0.10702541285E+02 -0.15790057495E+04  0.16905696097E+04  0.00000000000E+00 0. -1.
        -11    1    5    5    0    0 -0.24258714813E+03  0.61714212500E+02 -0.69180594516E+03  0.73569873877E+03  0.00000000000E+00 0.  1.
          2    1    6    6  503    0  0.61527796772E+02 -0.26387231691E+03 -0.45965180109E+03  0.53356728502E+03  0.00000000000E+00 0. -1.
         -2    1    6    6    0  503 -0.38592470766E+01 -0.58289629830E+02 -0.42374772324E+02  0.72167832607E+02  0.00000000000E+00 0.  1.
<mgrwt>
<rscale>  0 0.23577461E+04</rscale>
<asrwt>0</asrwt>
<pdfrwt beam="1">  1        2 0.54910723E+00 0.23577461E+04</pdfrwt>
<pdfrwt beam="2">  1       -2 0.59903223E-01 0.23577461E+04</pdfrwt>
<totfact> 0.17077704E+00</totfact>
</mgrwt>
</event>
<event>
12    2  0.3518828E-008  0.1876115E+04  0.7818608E-02  0.8666837E-01
         -3   -1    0    0    0  501 -0.00000000000E+00  0.00000000000E+00  0.10786404354E+04  0.10786404354E+04  0.00000000000E+00 0.  1.
          3   -1    0    0  501    0  0.00000000000E+00 -0.00000000000E+00 -0.81579753243E+03  0.81579753243E+03  0.00000000000E+00 0. -1.
         23    2    1    2    0    0 -0.23151495697E+03 -0.80524581385E+01  0.78508127960E+03  0.82377114250E+03  0.92640500095E+02 0.  0.
        254    2    1    2    0    0  0.23151495697E+03  0.80524581385E+01 -0.52223837663E+03  0.10706668253E+04  0.90550014436E+03 0.  0.
         23    2    4    4    0    0  0.19480101595E+03 -0.13642374982E+03  0.20281921483E+03  0.32484910401E+03  0.88501023387E+02 0.  0.
         23    2    4    4    0    0  0.36713941021E+02  0.14447620796E+03 -0.72505759146E+03  0.74581772132E+03  0.91182642899E+02 0.  0.
          3    1    3    3  502    0 -0.87751190219E+02 -0.25265653258E+02  0.44292550281E+03  0.45224067228E+03  0.00000000000E+00 0. -1.
         -3    1    3    3    0  502 -0.14376376675E+03  0.17213195120E+02  0.34215577679E+03  0.37153047023E+03  0.00000000000E+00 0.  1.
         11    1    5    5    0    0  0.12969486621E+03 -0.86873443619E+02  0.18324932959E+03  0.24072405431E+03  0.00000000000E+00 0. -1.
        -11    1    5    5    0    0  0.65106149739E+02 -0.49550306199E+02  0.19569885237E+02  0.84125049696E+02  0.00000000000E+00 0.  1.
          1    1    6    6  503    0  0.69455660712E+01  0.50719746812E+02 -0.46445277346E+03  0.46726556943E+03  0.00000000000E+00 0. -1.
         -1    1    6    6    0  503  0.29768374950E+02  0.93756461144E+02 -0.26060481800E+03  0.27855215188E+03  0.00000000000E+00 0.  1.
<mgrwt>
<rscale>  0 0.18761154E+04</rscale>
<asrwt>0</asrwt>
<pdfrwt beam="1">  1        3 0.12550731E+00 0.18761154E+04</pdfrwt>
<pdfrwt beam="2">  1       -3 0.16594468E+00 0.18761154E+04</pdfrwt>
<totfact> 0.30737904E-01</totfact>
</mgrwt>
</event>
<event>
12    2  0.3518828E-008  0.2153322E+04  0.7818608E-02  0.8538112E-01
          2   -1    0    0  501    0  0.00000000000E+00  0.00000000000E+00  0.15431229433E+04  0.15431229433E+04  0.00000000000E+00 0. -1.
         -2   -1    0    0    0  501 -0.00000000000E+00 -0.00000000000E+00 -0.75120302887E+03  0.75120302887E+03  0.00000000000E+00 0.  1.
         23    2    1    2    0    0 -0.49519977364E+03 -0.15477173043E+03  0.10946254306E+04  0.12152880158E+04  0.97688400153E+02 0.  0.
        254    2    1    2    0    0  0.49519977364E+03  0.15477173043E+03 -0.30270551620E+03  0.10790379564E+04  0.89639008109E+03 0.  0.
         23    2    4    4    0    0  0.70347354964E+03 -0.32395626207E+02 -0.93155729413E+02  0.71752432032E+03  0.10118620800E+03 0.  0.
         23    2    4    4    0    0 -0.20827377600E+03  0.18716735664E+03 -0.20954978679E+03  0.36151363609E+03  0.91495413961E+02 0.  0.
          1    1    3    3  502    0 -0.47869667441E+03 -0.15836026690E+03  0.10834736473E+04  0.11950496327E+04  0.00000000000E+00 0. -1.
         -1    1    3    3    0  502 -0.16503099226E+02  0.35885364691E+01  0.11151783367E+02  0.20238383096E+02  0.00000000000E+00 0.  1.
         11    1    5    5    0    0  0.39264652136E+02  0.16330125313E+02  0.97466313566E+01  0.43627774673E+02  0.00000000000E+00 0.  1.
        -11    1    5    5    0    0  0.66420889750E+03 -0.48725751520E+02 -0.10290236077E+03  0.67389654565E+03  0.00000000000E+00 0. -1.
          1    1    6    6  503    0 -0.12659496640E+03  0.16258436550E+03 -0.12290668809E+03  0.23992918831E+03  0.00000000000E+00 0. -1.
         -1    1    6    6    0  503 -0.81678809602E+02  0.24582991134E+02 -0.86643098697E+02  0.12158444778E+03  0.00000000000E+00 0.  1.
<mgrwt>
<rscale>  0 0.21533217E+04</rscale>
<asrwt>0</asrwt>
<pdfrwt beam="1">  1        2 0.23740353E+00 0.21533217E+04</pdfrwt>
<pdfrwt beam="2">  1       -2 0.11556970E+00 0.21533217E+04</pdfrwt>
<totfact> 0.64166855E+00</totfact>
</mgrwt>
</event>
<event>
12    2  0.3518828E-008  0.1618065E+04  0.7818608E-02  0.8809526E-01
          2   -1    0    0  501    0  0.00000000000E+00  0.00000000000E+00  0.49305640362E+03  0.49305640362E+03  0.00000000000E+00 0. -1.
         -2   -1    0    0    0  501 -0.00000000000E+00 -0.00000000000E+00 -0.13275023655E+04  0.13275023655E+04  0.00000000000E+00 0.  1.
         23    2    1    2    0    0  0.30065306733E+03  0.13942183351E+02  0.23124647838E+03  0.39059608601E+03  0.92215602100E+02 0.  0.
        254    2    1    2    0    0 -0.30065306733E+03 -0.13942183351E+02 -0.10656924403E+04  0.14299626831E+04  0.90471335046E+03 0.  0.
         23    2    4    4    0    0 -0.87761472848E+02 -0.31828108581E+03 -0.97718007503E+03  0.10352759199E+04  0.88940460634E+02 0.  0.
         23    2    4    4    0    0 -0.21289159448E+03  0.30433890246E+03 -0.88512365277E+02  0.39468676328E+03  0.99991018340E+02 0.  0.
          4    1    3    3  502    0  0.22017878862E+03  0.85077175100E+01  0.11345770196E+03  0.24783811319E+03  0.00000000000E+00 0. -1.
         -4    1    3    3    0  502  0.80474278707E+02  0.54344658409E+01  0.11778877642E+03  0.14275797281E+03  0.00000000000E+00 0.  1.
         11    1    5    5    0    0 -0.39346021827E+02 -0.24490248587E+03 -0.79852909773E+03  0.83616628546E+03  0.00000000000E+00 0.  1.
        -11    1    5    5    0    0 -0.48415451021E+02 -0.73378599938E+02 -0.17865097729E+03  0.19910963441E+03  0.00000000000E+00 0. -1.
          3    1    6    6  503    0  0.10576550132E+02  0.23146197051E+02 -0.65566460421E+01  0.26279259082E+02  0.00000000000E+00 0. -1.
         -3    1    6    6    0  503 -0.22346814461E+03  0.28119270541E+03 -0.81955719235E+02  0.36840750419E+03  0.00000000000E+00 0.  1.
<mgrwt>
<rscale>  0 0.16180649E+04</rscale>
<asrwt>0</asrwt>
<pdfrwt beam="1">  1        2 0.75854831E-01 0.16180649E+04</pdfrwt>
<pdfrwt beam="2">  1       -2 0.20423113E+00 0.16180649E+04</pdfrwt>
<totfact> 0.74724078E+00</totfact>
</mgrwt>
</event>
<event>
12    2  0.3518828E-008  0.1191780E+04  0.7818608E-02  0.9120082E-01
          2   -1    0    0  501    0  0.00000000000E+00  0.00000000000E+00  0.19070761112E+04  0.19070761112E+04  0.00000000000E+00 0. -1.
         -2   -1    0    0    0  501 -0.00000000000E+00 -0.00000000000E+00 -0.18619334043E+03  0.18619334043E+03  0.00000000000E+00 0.  1.
         23    2    1    2    0    0 -0.48151397084E+02  0.19022679725E+03  0.11371521570E+03  0.24422462592E+03  0.90607539394E+02 0.  0.
        254    2    1    2    0    0  0.48151397084E+02 -0.19022679725E+03  0.16071675551E+04  0.18490448257E+04  0.89301423614E+03 0.  0.
         23    2    4    4    0    0  0.58654946790E+02  0.34965243825E+03  0.61057556152E+03  0.71187531571E+03  0.90921496022E+02 0.  0.
         23    2    4    4    0    0 -0.10503549706E+02 -0.53987923549E+03  0.99659199358E+03  0.11371695100E+04  0.91536765125E+02 0.  0.
          1    1    3    3  502    0 -0.29881029632E+02  0.11836858627E+03  0.11822307134E+03  0.16994320446E+03  0.00000000000E+00 0. -1.
         -1    1    3    3    0  502 -0.18270367452E+02  0.71858210976E+02 -0.45078556404E+01  0.74281421459E+02  0.00000000000E+00 0.  1.
         11    1    5    5    0    0 -0.22843873607E+02  0.76692573653E+02  0.15802533585E+03  0.17713159002E+03  0.00000000000E+00 0.  1.
        -11    1    5    5    0    0  0.81498820398E+02  0.27295986459E+03  0.45255022568E+03  0.53474372569E+03  0.00000000000E+00 0. -1.
          3    1    6    6  503    0  0.10614904252E+02 -0.47227865573E+03  0.90994619979E+03  0.10252618648E+04  0.00000000000E+00 0. -1.
         -3    1    6    6    0  503 -0.21118453958E+02 -0.67600579761E+02  0.86645793789E+02  0.11190764524E+03  0.00000000000E+00 0.  1.
<mgrwt>
<rscale>  0 0.11917800E+04</rscale>
<asrwt>0</asrwt>
<pdfrwt beam="1">  1        2 0.29339631E+00 0.11917800E+04</pdfrwt>
<pdfrwt beam="2">  1       -2 0.28645131E-01 0.11917800E+04</pdfrwt>
<totfact> 0.83093917E+01</totfact>
</mgrwt>
</event>
<event>
12    2  0.3518828E-008  0.1867356E+04  0.7818608E-02  0.8671278E-01
         -2   -1    0    0    0  501 -0.00000000000E+00  0.00000000000E+00  0.56732482034E+03  0.56732482034E+03  0.00000000000E+00 0.  1.
          2   -1    0    0  501    0  0.00000000000E+00 -0.00000000000E+00 -0.15366064864E+04  0.15366064864E+04  0.00000000000E+00 0. -1.
         23    2    1    2    0    0 -0.49585534235E+03 -0.42657908335E+03 -0.71661175277E+03  0.97404891542E+03  0.86003782091E+02 0.  0.
        254    2    1    2    0    0  0.49585534235E+03  0.42657908335E+03 -0.25266991325E+03  0.11298823913E+04  0.88597398279E+03 0.  0.
         23    2    4    4    0    0  0.27508409640E+03  0.68128495934E+03 -0.24853490796E+03  0.78052612706E+03  0.87355472821E+02 0.  0.
         23    2    4    4    0    0  0.22077124595E+03 -0.25470587598E+03 -0.41350052940E+01  0.34935626423E+03  0.91747887118E+02 0.  0.
          4    1    3    3  502    0 -0.49255619663E+03 -0.40477877468E+03 -0.69609928368E+03  0.94393414813E+03  0.00000000000E+00 0. -1.
         -4    1    3    3    0  502 -0.32991457214E+01 -0.21800308676E+02 -0.20512469099E+02  0.30114767298E+02  0.00000000000E+00 0.  1.
         11    1    5    5    0    0  0.10775191973E+03  0.25151786975E+03 -0.13713800008E+03  0.30606951183E+03  0.00000000000E+00 0. -1.
        -11    1    5    5    0    0  0.16733217667E+03  0.42976708959E+03 -0.11139690788E+03  0.47445661522E+03  0.00000000000E+00 0.  1.
          3    1    6    6  503    0  0.19379003208E+02 -0.13938699579E+02  0.24444449111E+02  0.34166711923E+02  0.00000000000E+00 0. -1.
         -3    1    6    6    0  503  0.20139224274E+03 -0.24076717640E+03 -0.28579454405E+02  0.31518955231E+03  0.00000000000E+00 0.  1.
<mgrwt>
<rscale>  0 0.18673564E+04</rscale>
<asrwt>0</asrwt>
<pdfrwt beam="1">  1        2 0.23640100E+00 0.18673564E+04</pdfrwt>
<pdfrwt beam="2">  1       -2 0.87280742E-01 0.18673564E+04</pdfrwt>
<totfact> 0.12890850E+01</totfact>
</mgrwt>
</event>
<event>
12    2  0.3518828E-008  0.2550726E+04  0.7818608E-02  0.8385134E-01
         -2   -1    0    0    0  501 -0.00000000000E+00  0.00000000000E+00  0.93965729438E+03  0.93965729438E+03  0.00000000000E+00 0.  1.
          2   -1    0    0  501    0  0.00000000000E+00 -0.00000000000E+00 -0.17310049323E+04  0.17310049323E+04  0.00000000000E+00 0. -1.
         23    2    1    2    0    0 -0.15892570119E+03  0.70193838616E+03  0.54575483681E+03  0.90785510709E+03  0.91529651579E+02 0.  0.
        254    2    1    2    0    0  0.15892570119E+03 -0.70193838616E+03 -0.13371024747E+04  0.17628071196E+04  0.89536084151E+03 0.  0.
         23    2    4    4    0    0  0.24891961054E+03 -0.34364611418E+03 -0.13118178331E+04  0.13817876664E+04  0.91746954105E+02 0.  0.
         23    2    4    4    0    0 -0.89993909355E+02 -0.35829227198E+03 -0.25284641624E+02  0.38101945315E+03  0.89801195399E+02 0.  0.
          1    1    3    3  502    0 -0.12956044511E+03  0.63352645091E+03  0.51752199210E+03  0.82823347267E+03  0.00000000000E+00 0. -1.
         -1    1    3    3    0  502 -0.29365256072E+02  0.68411935247E+02  0.28232844712E+02  0.79621634428E+02  0.00000000000E+00 0.  1.
         11    1    5    5    0    0  0.60780392810E+01 -0.22704046963E+02 -0.29056660485E+02  0.37372527725E+02  0.00000000000E+00 0. -1.
        -11    1    5    5    0    0  0.24284157126E+03 -0.32094206721E+03 -0.12827611726E+04  0.13444151387E+04  0.00000000000E+00 0.  1.
          3    1    6    6  503    0 -0.10434744031E+02 -0.18548121864E+03 -0.40597770913E+02  0.19015873725E+03  0.00000000000E+00 0. -1.
         -3    1    6    6    0  503 -0.79559165324E+02 -0.17281105334E+03  0.15313129289E+02  0.19086071590E+03  0.00000000000E+00 0.  1.
<mgrwt>
<rscale>  0 0.25507265E+04</rscale>
<asrwt>0</asrwt>
<pdfrwt beam="1">  1        2 0.26630845E+00 0.25507265E+04</pdfrwt>
<pdfrwt beam="2">  1       -2 0.14456266E+00 0.25507265E+04</pdfrwt>
<totfact> 0.27652232E+00</totfact>
</mgrwt>
</event>
<event>
12    2  0.3518828E-008  0.1775091E+04  0.7818608E-02  0.8719659E-01
          3   -1    0    0  501    0  0.00000000000E+00  0.00000000000E+00  0.12925242835E+04  0.12925242835E+04  0.00000000000E+00 0. -1.
         -3   -1    0    0    0  501 -0.00000000000E+00 -0.00000000000E+00 -0.60945623406E+03  0.60945623406E+03  0.00000000000E+00 0.  1.
         23    2    1    2    0    0  0.30647625294E+03 -0.99421632558E+02 -0.34265132746E+03  0.47866577531E+03  0.88874279816E+02 0.  0.
        254    2    1    2    0    0 -0.30647625294E+03  0.99421632558E+02  0.10257193769E+04  0.14233147423E+04  0.93269087096E+03 0.  0.
         23    2    4    4    0    0  0.32283118267E+03  0.16005822644E+02  0.44044606142E+03  0.55387692016E+03  0.91163319399E+02 0.  0.
         23    2    4    4    0    0 -0.62930743561E+03  0.83415809914E+02  0.58527331552E+03  0.86943782213E+03  0.10193736721E+03 0.  0.
          1    1    3    3  502    0  0.84665344720E+01  0.12930250166E+02 -0.11914532355E+02  0.19514857329E+02  0.00000000000E+00 0. -1.
         -1    1    3    3    0  502  0.29800971847E+03 -0.11235188272E+03 -0.33073679510E+03  0.45915091799E+03  0.00000000000E+00 0.  1.
         11    1    5    5    0    0  0.22353516297E+03  0.30302374062E+02  0.36197734173E+03  0.42651353892E+03  0.00000000000E+00 0. -1.
        -11    1    5    5    0    0  0.99296019706E+02 -0.14296551417E+02  0.78468719695E+02  0.12736338125E+03  0.00000000000E+00 0.  1.
          1    1    6    6  503    0 -0.23296153786E+02 -0.16734948717E+02  0.27846475303E+02  0.39977437094E+02  0.00000000000E+00 0. -1.
         -1    1    6    6    0  503 -0.60601128183E+03  0.10015075863E+03  0.55742684022E+03  0.82946038504E+03  0.00000000000E+00 0.  1.
<mgrwt>
<rscale>  0 0.17750910E+04</rscale>
<asrwt>0</asrwt>
<pdfrwt beam="1">  1        3 0.19884989E+00 0.17750910E+04</pdfrwt>
<pdfrwt beam="2">  1       -3 0.93762498E-01 0.17750910E+04</pdfrwt>
<totfact> 0.37617183E-01</totfact>
</mgrwt>
</event>
<event>
12    2  0.3518828E-008  0.1417813E+04  0.7818608E-02  0.8941024E-01
         -2   -1    0    0    0  501 -0.00000000000E+00  0.00000000000E+00  0.11429701380E+04  0.11429701380E+04  0.00000000000E+00 0.  1.
          2   -1    0    0  501    0  0.00000000000E+00 -0.00000000000E+00 -0.43968659106E+03  0.43968659106E+03  0.00000000000E+00 0. -1.
         23    2    1    2    0    0  0.40920410958E+02  0.19008750318E+03  0.58564215503E+03  0.62415242960E+03  0.93711166521E+02 0.  0.
        254    2    1    2    0    0 -0.40920410958E+02 -0.19008750318E+03  0.11764139187E+03  0.95850429942E+03  0.93117305375E+03 0.  0.
         23    2    4    4    0    0  0.25164671912E+03 -0.46704668673E+03  0.76321152744E+02  0.54363402349E+03  0.90853477117E+02 0.  0.
         23    2    4    4    0    0 -0.29256713008E+03  0.27695918355E+03  0.41320239128E+02  0.41487027593E+03  0.90044815157E+02 0.  0.
          1    1    3    3  502    0 -0.22167399231E+02  0.10233015212E+02  0.85717016555E+02  0.89126399659E+02  0.00000000000E+00 0. -1.
         -1    1    3    3    0  502  0.63087810190E+02  0.17985448797E+03  0.49992513848E+03  0.53502602994E+03  0.00000000000E+00 0.  1.
         11    1    5    5    0    0  0.24869097076E+03 -0.40405065801E+03  0.58140945857E+02  0.47800052590E+03  0.00000000000E+00 0.  1.
        -11    1    5    5    0    0  0.29557483643E+01 -0.62996028724E+02  0.18180206887E+02  0.65633497590E+02  0.00000000000E+00 0. -1.
          1    1    6    6  503    0 -0.61170571553E+02  0.11438240094E+03  0.57096462396E+01  0.12983748507E+03  0.00000000000E+00 0. -1.
         -1    1    6    6    0  503 -0.23139655853E+03  0.16257678260E+03  0.35610592888E+02  0.28503279086E+03  0.00000000000E+00 0.  1.
<mgrwt>
<rscale>  0 0.14178133E+04</rscale>
<asrwt>0</asrwt>
<pdfrwt beam="1">  1        2 0.67644091E-01 0.14178133E+04</pdfrwt>
<pdfrwt beam="2">  1       -2 0.17584156E+00 0.14178133E+04</pdfrwt>
<totfact> 0.13440074E+01</totfact>
</mgrwt>
</event>
<event>
12    2  0.3518828E-008  0.2759348E+04  0.7818608E-02  0.8316001E-01
          1   -1    0    0  501    0  0.00000000000E+00  0.00000000000E+00  0.21112557149E+04  0.21112557149E+04  0.00000000000E+00 0. -1.
         -1   -1    0    0    0  501 -0.00000000000E+00 -0.00000000000E+00 -0.90159632032E+03  0.90159632032E+03  0.00000000000E+00 0.  1.
         23    2    1    2    0    0 -0.40070736604E+03  0.35920946177E+03 -0.67444697044E+03  0.86770746413E+03  0.91867822136E+02 0.  0.
        254    2    1    2    0    0  0.40070736604E+03 -0.35920946177E+03  0.18841063651E+04  0.21451445711E+04  0.87303528309E+03 0.  0.
         23    2    4    4    0    0  0.30993066159E+03  0.14119294046E+03  0.13751055761E+04  0.14198932486E+04  0.95859430372E+02 0.  0.
         23    2    4    4    0    0  0.90776704451E+02 -0.50040240222E+03  0.50900078892E+03  0.72525132254E+03  0.90910414736E+02 0.  0.
          2    1    3    3  502    0 -0.41738546928E+02  0.74350394374E+01 -0.39783856062E+02  0.58138982741E+02  0.00000000000E+00 0. -1.
         -2    1    3    3    0  502 -0.35896881911E+03  0.35177442233E+03 -0.63466311438E+03  0.80956848139E+03  0.00000000000E+00 0.  1.
         11    1    5    5    0    0  0.22100577617E+03  0.66780449967E+02  0.77372751856E+03  0.80743882405E+03  0.00000000000E+00 0.  1.
        -11    1    5    5    0    0  0.88924885417E+02  0.74412490491E+02  0.60137805759E+03  0.61245442454E+03  0.00000000000E+00 0. -1.
          1    1    6    6  503    0  0.35639791718E+02 -0.55677722524E+02  0.43708172402E+02  0.79250286270E+02  0.00000000000E+00 0. -1.
         -1    1    6    6    0  503  0.55136912733E+02 -0.44472467970E+03  0.46529261652E+03  0.64600103627E+03  0.00000000000E+00 0.  1.
<mgrwt>
<rscale>  0 0.27593480E+04</rscale>
<asrwt>0</asrwt>
<pdfrwt beam="1">  1        1 0.32480857E+00 0.27593480E+04</pdfrwt>
<pdfrwt beam="2">  1       -1 0.13870713E+00 0.27593480E+04</pdfrwt>
<totfact> 0.93399410E-01</totfact>
</mgrwt>
</event>
<event>
12    2  0.3518828E-008  0.1257775E+04  0.7818608E-02  0.9063737E-01
          1   -1    0    0  501    0  0.00000000000E+00  0.00000000000E+00  0.25922120073E+04  0.25922120073E+04  0.00000000000E+00 0. -1.
         -1   -1    0    0    0  501 -0.00000000000E+00 -0.00000000000E+00 -0.15257210630E+03  0.15257210630E+03  0.00000000000E+00 0.  1.
         23    2    1    2    0    0  0.25604907649E+03  0.11493731092E+03  0.42270874294E+03  0.51593989029E+03  0.93485688876E+02 0.  0.
        254    2    1    2    0    0 -0.25604907649E+03 -0.11493731092E+03  0.20169311580E+04  0.22288442233E+04  0.90607039481E+03 0.  0.
         23    2    4    4    0    0 -0.10936315104E+03 -0.23087562104E+03  0.83038954110E+02  0.28377060406E+03  0.91468227448E+02 0.  0.
         23    2    4    4    0    0 -0.14668592545E+03  0.11593831012E+03  0.19338922039E+04  0.19450736192E+04  0.91727178537E+02 0.  0.
          4    1    3    3  502    0  0.94389985997E+00  0.22547681895E+02  0.18847142029E+02  0.29402443240E+02  0.00000000000E+00 0. -1.
         -4    1    3    3    0  502  0.25510517663E+03  0.92389629021E+02  0.40386160091E+03  0.48653744705E+03  0.00000000000E+00 0.  1.
         11    1    5    5    0    0 -0.51125769991E+02 -0.83085256963E+02  0.77891752122E+02  0.12483641028E+03  0.00000000000E+00 0. -1.
        -11    1    5    5    0    0 -0.58237381051E+02 -0.14779036408E+03  0.51472019877E+01  0.15893419378E+03  0.00000000000E+00 0.  1.
          3    1    6    6  503    0 -0.66258905587E+02 -0.52697389020E+00  0.55782415216E+03  0.56174576546E+03  0.00000000000E+00 0. -1.
         -3    1    6    6    0  503 -0.80427019861E+02  0.11646528401E+03  0.13760680518E+04  0.13833278537E+04  0.00000000000E+00 0.  1.
<mgrwt>
<rscale>  0 0.12577746E+04</rscale>
<asrwt>0</asrwt>
<pdfrwt beam="1">  1        1 0.39880182E+00 0.12577746E+04</pdfrwt>
<pdfrwt beam="2">  1       -1 0.23472634E-01 0.12577746E+04</pdfrwt>
<totfact> 0.18080325E+01</totfact>
</mgrwt>
</event>
<event>
12    2  0.3518828E-008  0.1576414E+04  0.7818608E-02  0.8835170E-01
         -2   -1    0    0    0  501 -0.00000000000E+00  0.00000000000E+00  0.46898061573E+03  0.46898061573E+03  0.00000000000E+00 0.  1.
          2   -1    0    0  501    0  0.00000000000E+00 -0.00000000000E+00 -0.13247253290E+04  0.13247253290E+04  0.00000000000E+00 0. -1.
         23    2    1    2    0    0 -0.42644843141E+03  0.30102261249E+03 -0.40142264691E+03  0.66461661248E+03  0.90012344937E+02 0.  0.
        254    2    1    2    0    0  0.42644843141E+03 -0.30102261249E+03 -0.45432206636E+03  0.11290893323E+04  0.89216663373E+03 0.  0.
         23    2    4    4    0    0  0.63655915088E+03 -0.40598726323E+03 -0.43570470997E+03  0.87636840454E+03  0.90276108208E+02 0.  0.
         23    2    4    4    0    0 -0.21011071947E+03  0.10496465074E+03 -0.18617356389E+02  0.25272092771E+03  0.91417553029E+02 0.  0.
          4    1    3    3  502    0 -0.14771321340E+03  0.68491781660E+02 -0.16259067690E+03  0.23010007776E+03  0.00000000000E+00 0. -1.
         -4    1    3    3    0  502 -0.27873521801E+03  0.23253083083E+03 -0.23883197002E+03  0.43451653472E+03  0.00000000000E+00 0.  1.
         11    1    5    5    0    0  0.41857412981E+03 -0.25445520655E+03 -0.23351082261E+03  0.54265924719E+03  0.00000000000E+00 0.  1.
        -11    1    5    5    0    0  0.21798502107E+03 -0.15153205669E+03 -0.20219388737E+03  0.33370915736E+03  0.00000000000E+00 0. -1.
          1    1    6    6  503    0 -0.53193932636E+02  0.70068901791E+01  0.29979793348E+02  0.61461199048E+02  0.00000000000E+00 0. -1.
         -1    1    6    6    0  503 -0.15691678683E+03  0.97957760565E+02 -0.48597149738E+02  0.19125972866E+03  0.00000000000E+00 0.  1.
<mgrwt>
<rscale>  0 0.15764143E+04</rscale>
<asrwt>0</asrwt>
<pdfrwt beam="1">  1        2 0.20380390E+00 0.15764143E+04</pdfrwt>
<pdfrwt beam="2">  1       -2 0.72150864E-01 0.15764143E+04</pdfrwt>
<totfact> 0.26724791E+01</totfact>
</mgrwt>
</event>
<event>
12    2  0.3518828E-008  0.1301791E+04  0.7818608E-02  0.9028146E-01
         -2   -1    0    0    0  501 -0.00000000000E+00  0.00000000000E+00  0.26295840175E+03  0.26295840175E+03  0.00000000000E+00 0.  1.
          2   -1    0    0  501    0  0.00000000000E+00 -0.00000000000E+00 -0.16111474652E+04  0.16111474652E+04  0.00000000000E+00 0. -1.
         23    2    1    2    0    0  0.66566465655E+02  0.96889593938E+02 -0.80798258530E+03  0.82225137438E+03  0.97173951013E+02 0.  0.
        254    2    1    2    0    0 -0.66566465655E+02 -0.96889593938E+02 -0.54020647820E+03  0.10518544926E+04  0.89484979008E+03 0.  0.
         23    2    4    4    0    0 -0.26741678447E+03  0.26636391994E+03 -0.48795317349E+03  0.62363586328E+03  0.91443512578E+02 0.  0.
         23    2    4    4    0    0  0.20085031881E+03 -0.36325351388E+03 -0.52253304704E+02  0.42821862934E+03  0.91360936652E+02 0.  0.
          3    1    3    3  502    0  0.75239199291E+02  0.99221926561E+02 -0.54212945588E+03  0.55624659527E+03  0.00000000000E+00 0. -1.
         -3    1    3    3    0  502 -0.86727336360E+01 -0.23323326234E+01 -0.26585312942E+03  0.26600477910E+03  0.00000000000E+00 0.  1.
         11    1    5    5    0    0 -0.70170511647E+02  0.12215132719E+03 -0.21767423481E+03  0.25928154570E+03  0.00000000000E+00 0.  1.
        -11    1    5    5    0    0 -0.19724627282E+03  0.14421259275E+03 -0.27027893868E+03  0.36435431759E+03  0.00000000000E+00 0. -1.
          1    1    6    6  503    0 -0.99178827383E+00 -0.44671428893E+02 -0.22170798952E+02  0.49880502499E+02  0.00000000000E+00 0. -1.
         -1    1    6    6    0  503  0.20184210709E+03 -0.31858208499E+03 -0.30082505751E+02  0.37833812684E+03  0.00000000000E+00 0.  1.
<mgrwt>
<rscale>  0 0.13017907E+04</rscale>
<asrwt>0</asrwt>
<pdfrwt beam="1">  1        2 0.24786884E+00 0.13017907E+04</pdfrwt>
<pdfrwt beam="2">  1       -2 0.40455138E-01 0.13017907E+04</pdfrwt>
<totfact> 0.62300052E+01</totfact>
</mgrwt>
</event>
<event>
12    2  0.3518828E-008  0.2242026E+04  0.7818608E-02  0.8501137E-01
          2   -1    0    0  501    0  0.00000000000E+00  0.00000000000E+00  0.17296656407E+04  0.17296656407E+04  0.00000000000E+00 0. -1.
         -2   -1    0    0    0  501 -0.00000000000E+00 -0.00000000000E+00 -0.72653948190E+03  0.72653948190E+03  0.00000000000E+00 0.  1.
         23    2    1    2    0    0  0.39987637476E+03  0.70127047195E+03  0.30314706930E+01  0.81203637689E+03  0.87820827007E+02 0.  0.
        254    2    1    2    0    0 -0.39987637476E+03 -0.70127047195E+03  0.10000946881E+04  0.16441687457E+04  0.10253877750E+04 0.  0.
         23    2    4    4    0    0  0.42855992151E+02 -0.10882163329E+03  0.87659929960E+03  0.88907277801E+03  0.91352551133E+02 0.  0.
         23    2    4    4    0    0 -0.44273236691E+03 -0.59244883866E+03  0.12349538848E+03  0.75509596767E+03  0.88945119403E+02 0.  0.
          2    1    3    3  502    0  0.12818648982E+03  0.18514331203E+03  0.34999496454E+02  0.22789205101E+03  0.00000000000E+00 0. -1.
         -2    1    3    3    0  502  0.27168988495E+03  0.51612715992E+03 -0.31968025761E+02  0.58414432588E+03  0.00000000000E+00 0.  1.
         11    1    5    5    0    0  0.43896324267E+01 -0.98182084521E+02  0.74782929741E+03  0.75425966925E+03  0.00000000000E+00 0. -1.
        -11    1    5    5    0    0  0.38466359725E+02 -0.10639548767E+02  0.12877000220E+03  0.13481310876E+03  0.00000000000E+00 0.  1.
          2    1    6    6  503    0 -0.42859193851E+03 -0.58296113363E+03  0.13287295158E+03  0.73565613865E+03  0.00000000000E+00 0. -1.
         -2    1    6    6    0  503 -0.14140428407E+02 -0.94877050355E+01 -0.93775631049E+01  0.19439829016E+02  0.00000000000E+00 0.  1.
<mgrwt>
<rscale>  0 0.22420262E+04</rscale>
<asrwt>0</asrwt>
<pdfrwt beam="1">  1        2 0.26610241E+00 0.22420262E+04</pdfrwt>
<pdfrwt beam="2">  1       -2 0.11177531E+00 0.22420262E+04</pdfrwt>
<totfact> 0.54354009E+00</totfact>
</mgrwt>
</event>
<event>
12    2  0.3518828E-008  0.1474497E+04  0.7818608E-02  0.8901591E-01
          1   -1    0    0  501    0  0.00000000000E+00  0.00000000000E+00  0.75099898158E+03  0.75099898158E+03  0.00000000000E+00 0. -1.
         -1   -1    0    0    0  501 -0.00000000000E+00 -0.00000000000E+00 -0.72375026123E+03  0.72375026123E+03  0.00000000000E+00 0.  1.
         23    2    1    2    0    0 -0.55938291534E+02 -0.25152350228E+03  0.39062089067E+03  0.47599237434E+03  0.87125745533E+02 0.  0.
        254    2    1    2    0    0  0.55938291534E+02  0.25152350228E+03 -0.36337217032E+03  0.99875686847E+03  0.89391430434E+03 0.  0.
         23    2    4    4    0    0  0.36686603788E+03  0.22411291735E+03 -0.48211197593E+03  0.65236670272E+03  0.91285639688E+02 0.  0.
         23    2    4    4    0    0 -0.31092774635E+03  0.27410584932E+02  0.11873980561E+03  0.34639016575E+03  0.91976094031E+02 0.  0.
          1    1    3    3  502    0 -0.71541810365E+02 -0.24303510511E+03  0.37353831405E+03  0.45134816385E+03  0.00000000000E+00 0. -1.
         -1    1    3    3    0  502  0.15603518831E+02 -0.84883971759E+01  0.17082576624E+02  0.24644210489E+02  0.00000000000E+00 0.  1.
         11    1    5    5    0    0  0.31679442315E+03  0.21808347624E+03 -0.45256965356E+03  0.59391783983E+03  0.00000000000E+00 0. -1.
        -11    1    5    5    0    0  0.50071614737E+02  0.60294411104E+01 -0.29542322365E+02  0.58448862891E+02  0.00000000000E+00 0.  1.
          3    1    6    6  503    0 -0.14590695508E+03 -0.28454266180E+02  0.76217205677E+02  0.16705552145E+03  0.00000000000E+00 0. -1.
         -3    1    6    6    0  503 -0.16502079127E+03  0.55864851112E+02  0.42522599933E+02  0.17933464430E+03  0.00000000000E+00 0.  1.
<mgrwt>
<rscale>  0 0.14744975E+04</rscale>
<asrwt>0</asrwt>
<pdfrwt beam="1">  1        1 0.11553831E+00 0.14744975E+04</pdfrwt>
<pdfrwt beam="2">  1       -1 0.11134619E+00 0.14744975E+04</pdfrwt>
<totfact> 0.17573453E+01</totfact>
</mgrwt>
</event>
<event>
12    2  0.3518828E-008  0.1488017E+04  0.7818608E-02  0.8892461E-01
         -2   -1    0    0    0  501 -0.00000000000E+00  0.00000000000E+00  0.35338603445E+03  0.35338603445E+03  0.00000000000E+00 0.  1.
          2   -1    0    0  501    0  0.00000000000E+00 -0.00000000000E+00 -0.15664138495E+04  0.15664138495E+04  0.00000000000E+00 0. -1.
         23    2    1    2    0    0  0.31195661977E+03 -0.33294011930E+03 -0.28525707752E+03  0.54627710516E+03  0.94239162183E+02 0.  0.
        254    2    1    2    0    0 -0.31195661977E+03  0.33294011930E+03 -0.92777073754E+03  0.13735227788E+04  0.90423460825E+03 0.  0.
         23    2    4    4    0    0 -0.39957895407E+03  0.50775553807E+03 -0.31697152006E+03  0.72552248634E+03  0.91830859083E+02 0.  0.
         23    2    4    4    0    0  0.87622334298E+02 -0.17481541876E+03 -0.61079921748E+03  0.64800029246E+03  0.92685440273E+02 0.  0.
          2    1    3    3  502    0  0.16005886778E+03 -0.12661414674E+03 -0.16878299934E+03  0.26483520192E+03  0.00000000000E+00 0. -1.
         -2    1    3    3    0  502  0.15189775199E+03 -0.20632597256E+03 -0.11647407818E+03  0.28144190324E+03  0.00000000000E+00 0.  1.
         11    1    5    5    0    0 -0.35896785077E+03  0.41386630042E+03 -0.24323816130E+03  0.59942308566E+03  0.00000000000E+00 0. -1.
        -11    1    5    5    0    0 -0.40611103299E+02  0.93889237649E+02 -0.73733358760E+02  0.12609940068E+03  0.00000000000E+00 0.  1.
          3    1    6    6  503    0  0.56126124404E+02 -0.25492808730E+02 -0.21960617244E+03  0.22809405102E+03  0.00000000000E+00 0. -1.
         -3    1    6    6    0  503  0.31496209893E+02 -0.14932261003E+03 -0.39119304505E+03  0.41990624144E+03  0.00000000000E+00 0.  1.
<mgrwt>
<rscale>  0 0.14880172E+04</rscale>
<asrwt>0</asrwt>
<pdfrwt beam="1">  1        2 0.24098675E+00 0.14880172E+04</pdfrwt>
<pdfrwt beam="2">  1       -2 0.54367081E-01 0.14880172E+04</pdfrwt>
<totfact> 0.35861580E+01</totfact>
</mgrwt>
</event>
<event>
12    2  0.3518828E-008  0.1773350E+04  0.7818608E-02  0.8720602E-01
          1   -1    0    0  501    0  0.00000000000E+00  0.00000000000E+00  0.10899853277E+04  0.10899853277E+04  0.00000000000E+00 0. -1.
         -1   -1    0    0    0  501 -0.00000000000E+00 -0.00000000000E+00 -0.72128691282E+03  0.72128691282E+03  0.00000000000E+00 0.  1.
         23    2    1    2    0    0 -0.23924354988E+03 -0.40761687078E+02 -0.47060781819E+03  0.53714910364E+03  0.90324136910E+02 0.  0.
        254    2    1    2    0    0  0.23924354988E+03  0.40761687078E+02  0.83930623308E+03  0.12741231369E+04  0.92739194723E+03 0.  0.
         23    2    4    4    0    0 -0.15355845700E+03  0.49142863096E+02  0.85226301866E+03  0.87221948055E+03  0.91757008294E+02 0.  0.
         23    2    4    4    0    0  0.39280200688E+03 -0.83811760182E+01 -0.12956785577E+02  0.40190365634E+03  0.83636176216E+02 0.  0.
          3    1    3    3  502    0 -0.12469371098E+02  0.98346150396E+01 -0.47717747146E+01  0.16582361185E+02  0.00000000000E+00 0. -1.
         -3    1    3    3    0  502 -0.22677417878E+03 -0.50596302118E+02 -0.46583604348E+03  0.52056674245E+03  0.00000000000E+00 0.  1.
         11    1    5    5    0    0 -0.11921440093E+02 -0.22615227051E+02  0.88040093645E+02  0.91676754510E+02  0.00000000000E+00 0.  1.
        -11    1    5    5    0    0 -0.14163701691E+03  0.71758090148E+02  0.76422292501E+03  0.78054272604E+03  0.00000000000E+00 0. -1.
          3    1    6    6  503    0  0.16168525646E+03 -0.44372523874E+02 -0.39027170926E+00  0.16766393572E+03  0.00000000000E+00 0. -1.
         -3    1    6    6    0  503  0.23111675042E+03  0.35991347856E+02 -0.12566513868E+02  0.23423972062E+03  0.00000000000E+00 0.  1.
<mgrwt>
<rscale>  0 0.17733495E+04</rscale>
<asrwt>0</asrwt>
<pdfrwt beam="1">  1        1 0.16769005E+00 0.17733495E+04</pdfrwt>
<pdfrwt beam="2">  1       -1 0.11096722E+00 0.17733495E+04</pdfrwt>
<totfact> 0.91221424E+00</totfact>
</mgrwt>
</event>
<event>
12    2  0.3518828E-008  0.1320909E+04  0.7818608E-02  0.9013146E-01
          2   -1    0    0  501    0  0.00000000000E+00  0.00000000000E+00  0.18591116521E+04  0.18591116521E+04  0.00000000000E+00 0. -1.
         -2   -1    0    0    0  501 -0.00000000000E+00 -0.00000000000E+00 -0.23462829429E+03  0.23462829429E+03  0.00000000000E+00 0.  1.
         23    2    1    2    0    0 -0.25023041515E+03 -0.12812386040E+03  0.81539415593E+03  0.86690213785E+03  0.87296636974E+02 0.  0.
        254    2    1    2    0    0  0.25023041515E+03  0.12812386040E+03  0.80908920193E+03  0.12268378086E+04  0.87833631805E+03 0.  0.
         23    2    4    4    0    0  0.23466969397E+03 -0.34379242115E+03  0.49188774101E+03  0.65089681003E+03  0.91923954673E+02 0.  0.
         23    2    4    4    0    0  0.15560721180E+02  0.47191628155E+03  0.31720146092E+03  0.57594099855E+03  0.90244967502E+02 0.  0.
          1    1    3    3  502    0 -0.19723843681E+03 -0.57721258616E+02  0.54174535632E+03  0.57941589186E+03  0.00000000000E+00 0. -1.
         -1    1    3    3    0  502 -0.52991978333E+02 -0.70402601783E+02  0.27364879961E+03  0.28748624599E+03  0.00000000000E+00 0.  1.
         11    1    5    5    0    0  0.76812872774E+02 -0.16367996734E+03  0.15878457630E+03  0.24063227298E+03  0.00000000000E+00 0.  1.
        -11    1    5    5    0    0  0.15785682119E+03 -0.18011245382E+03  0.33310316472E+03  0.41026453705E+03  0.00000000000E+00 0. -1.
          4    1    6    6  503    0 -0.15151411921E+02  0.26707264100E+03  0.13295605730E+03  0.29872173344E+03  0.00000000000E+00 0. -1.
         -4    1    6    6    0  503  0.30712133101E+02  0.20484364055E+03  0.18424540362E+03  0.27721926511E+03  0.00000000000E+00 0.  1.
<mgrwt>
<rscale>  0 0.13209091E+04</rscale>
<asrwt>0</asrwt>
<pdfrwt beam="1">  1        2 0.28601717E+00 0.13209091E+04</pdfrwt>
<pdfrwt beam="2">  1       -2 0.36096662E-01 0.13209091E+04</pdfrwt>
<totfact> 0.56554410E+01</totfact>
</mgrwt>
</event>
<event>
12    2  0.3518828E-008  0.1659327E+04  0.7818608E-02  0.8784908E-01
          2   -1    0    0  501    0  0.00000000000E+00  0.00000000000E+00  0.16557183481E+04  0.16557183481E+04  0.00000000000E+00 0. -1.
         -2   -1    0    0    0  501 -0.00000000000E+00 -0.00000000000E+00 -0.41573578183E+03  0.41573578183E+03  0.00000000000E+00 0.  1.
         23    2    1    2    0    0 -0.20038790656E+03 -0.20570052216E+03  0.10722647660E+04  0.11136624290E+04  0.89578231136E+02 0.  0.
        254    2    1    2    0    0  0.20038790656E+03  0.20570052216E+03  0.16771780033E+03  0.95779170098E+03  0.89820246270E+03 0.  0.
         23    2    4    4    0    0  0.52016773679E+03  0.89608934341E+02 -0.55760715034E+02  0.54043245852E+03  0.10175337519E+03 0.  0.
         23    2    4    4    0    0 -0.31977983024E+03  0.11609158782E+03  0.22347851537E+03  0.41735924246E+03  0.92248001867E+02 0.  0.
          3    1    3    3  502    0 -0.19415020701E+03 -0.21025365317E+03  0.10659143792E+04  0.11036640637E+04  0.00000000000E+00 0. -1.
         -3    1    3    3    0  502 -0.62376995528E+01  0.45531310058E+01  0.63503867379E+01  0.99983653358E+01  0.00000000000E+00 0.  1.
         11    1    5    5    0    0  0.36226279796E+03  0.24762263182E+02 -0.67495284608E+02  0.36932792733E+03  0.00000000000E+00 0.  1.
        -11    1    5    5    0    0  0.15790493883E+03  0.64846671159E+02  0.11734569573E+02  0.17110453118E+03  0.00000000000E+00 0. -1.
          3    1    6    6  503    0 -0.22990936967E+03  0.40285425495E+02  0.13013531087E+03  0.26723853185E+03  0.00000000000E+00 0. -1.
         -3    1    6    6    0  503 -0.89870460566E+02  0.75806162325E+02  0.93343204500E+02  0.15012071061E+03  0.00000000000E+00 0.  1.
<mgrwt>
<rscale>  0 0.16593268E+04</rscale>
<asrwt>0</asrwt>
<pdfrwt beam="1">  1        2 0.25472590E+00 0.16593268E+04</pdfrwt>
<pdfrwt beam="2">  1       -2 0.63959352E-01 0.16593268E+04</pdfrwt>
<totfact> 0.22392963E+01</totfact>
</mgrwt>
</event>
<event>
12    2  0.3518828E-008  0.2068546E+04  0.7818608E-02  0.8575227E-01
          1   -1    0    0  501    0  0.00000000000E+00  0.00000000000E+00  0.16195466259E+04  0.16195466259E+04  0.00000000000E+00 0. -1.
         -1   -1    0    0    0  501 -0.00000000000E+00 -0.00000000000E+00 -0.66050623532E+03  0.66050623532E+03  0.00000000000E+00 0.  1.
         23    2    1    2    0    0  0.25242003810E+03  0.51454737929E+03 -0.27938073924E+03  0.64118500174E+03  0.67747530121E+02 0.  0.
        254    2    1    2    0    0 -0.25242003810E+03 -0.51454737929E+03  0.12384211298E+04  0.16388678595E+04  0.90759356812E+03 0.  0.
         23    2    4    4    0    0  0.30234109294E+03 -0.14264052531E+03  0.19673527747E+03  0.39813733555E+03  0.89733564617E+02 0.  0.
         23    2    4    4    0    0 -0.55476113103E+03 -0.37190685398E+03  0.10416858524E+04  0.12407305239E+04  0.90709412370E+02 0.  0.
          1    1    3    3  502    0  0.67974288690E+02  0.80574002863E+02 -0.56883253785E+02  0.11978471698E+03  0.00000000000E+00 0. -1.
         -1    1    3    3    0  502  0.18444574941E+03  0.43397337642E+03 -0.22249748546E+03  0.52140028477E+03  0.00000000000E+00 0.  1.
         11    1    5    5    0    0  0.78308145786E+02 -0.84201968808E+01  0.15552656346E+02  0.80280449247E+02  0.00000000000E+00 0.  1.
        -11    1    5    5    0    0  0.22403294715E+03 -0.13422032843E+03  0.18118262112E+03  0.31785688630E+03  0.00000000000E+00 0. -1.
          3    1    6    6  503    0 -0.55337074252E+03 -0.37128658222E+03  0.10162664479E+04  0.12152655669E+04  0.00000000000E+00 0. -1.
         -3    1    6    6    0  503 -0.13903885080E+01 -0.62027175924E+00  0.25419404442E+02  0.25464957087E+02  0.00000000000E+00 0.  1.
<mgrwt>
<rscale>  0 0.20685460E+04</rscale>
<asrwt>0</asrwt>
<pdfrwt beam="1">  1        1 0.24916102E+00 0.20685460E+04</pdfrwt>
<pdfrwt beam="2">  1       -1 0.10161634E+00 0.20685460E+04</pdfrwt>
<totfact> 0.45827686E+00</totfact>
</mgrwt>
</event>
<event>
12    2  0.3518828E-008  0.2786097E+04  0.7818608E-02  0.8307598E-01
         -1   -1    0    0    0  501 -0.00000000000E+00  0.00000000000E+00  0.18258284421E+04  0.18258284421E+04  0.00000000000E+00 0.  1.
          1   -1    0    0  501    0  0.00000000000E+00 -0.00000000000E+00 -0.10628512258E+04  0.10628512258E+04  0.00000000000E+00 0. -1.
         23    2    1    2    0    0 -0.95598693164E+03 -0.28732043265E+03  0.11068494187E+04  0.14932851847E+04  0.91219309649E+02 0.  0.
        254    2    1    2    0    0  0.95598693164E+03  0.28732043265E+03 -0.34387220238E+03  0.13953944832E+04  0.91236704661E+03 0.  0.
         23    2    4    4    0    0  0.62076971006E+03  0.51472067874E+03 -0.49822251167E+03  0.95248125020E+03  0.93286927205E+02 0.  0.
         23    2    4    4    0    0  0.33521722157E+03 -0.22740024610E+03  0.15435030929E+03  0.44291323302E+03  0.90921155091E+02 0.  0.
          1    1    3    3  502    0 -0.45010076091E+03 -0.11942665432E+03  0.58029037038E+03  0.74403651435E+03  0.00000000000E+00 0. -1.
         -1    1    3    3    0  502 -0.50588617073E+03 -0.16789377832E+03  0.52655904836E+03  0.74924867030E+03  0.00000000000E+00 0.  1.
         11    1    5    5    0    0  0.18040285114E+03  0.20167137456E+03 -0.14528371788E+03  0.30712194760E+03  0.00000000000E+00 0. -1.
        -11    1    5    5    0    0  0.44036685893E+03  0.31304930418E+03 -0.35293879379E+03  0.64535930260E+03  0.00000000000E+00 0.  1.
          1    1    6    6  503    0  0.97951738728E+02 -0.21777002322E+02  0.25490279938E+02  0.10353035942E+03  0.00000000000E+00 0. -1.
         -1    1    6    6    0  503  0.23726548285E+03 -0.20562324377E+03  0.12886002935E+03  0.33938287360E+03  0.00000000000E+00 0.  1.
<mgrwt>
<rscale>  0 0.27860969E+04</rscale>
<asrwt>0</asrwt>
<pdfrwt beam="1">  1        1 0.16351557E+00 0.27860969E+04</pdfrwt>
<pdfrwt beam="2">  1       -1 0.28089668E+00 0.27860969E+04</pdfrwt>
<totfact> 0.51494502E-01</totfact>
</mgrwt>
</event>
<event>
12    2  0.3518828E-008  0.1993096E+04  0.7818608E-02  0.8609855E-01
         -2   -1    0    0    0  501 -0.00000000000E+00  0.00000000000E+00  0.80781557884E+03  0.80781557884E+03  0.00000000000E+00 0.  1.
          2   -1    0    0  501    0  0.00000000000E+00 -0.00000000000E+00 -0.12293743870E+04  0.12293743870E+04  0.00000000000E+00 0. -1.
         23    2    1    2    0    0 -0.17142819971E+02  0.76054451518E+03 -0.38401596008E+03  0.85691327085E+03  0.90056983642E+02 0.  0.
        254    2    1    2    0    0  0.17142819971E+02 -0.76054451518E+03 -0.37542848082E+02  0.11802766950E+04  0.90162174743E+03 0.  0.
         23    2    4    4    0    0 -0.10228898820E+03 -0.78368182284E+03  0.26731702994E+03  0.83916670711E+03  0.90122867633E+02 0.  0.
         23    2    4    4    0    0  0.11943180817E+03  0.23137307652E+02 -0.30485987802E+03  0.34110998788E+03  0.92828803711E+02 0.  0.
          4    1    3    3  502    0 -0.21045439544E+01  0.13960181988E+03 -0.32997880221E+02  0.14346413252E+03  0.00000000000E+00 0. -1.
         -4    1    3    3    0  502 -0.15038276016E+02  0.62094269530E+03 -0.35101807986E+03  0.71344913833E+03  0.00000000000E+00 0.  1.
         11    1    5    5    0    0 -0.11852352484E+03 -0.71147690981E+03  0.24731728268E+03  0.76250446389E+03  0.00000000000E+00 0.  1.
        -11    1    5    5    0    0  0.16234536645E+02 -0.72204913026E+02  0.19999747259E+02  0.76662243221E+02  0.00000000000E+00 0. -1.
          3    1    6    6  503    0 -0.12971337332E+02 -0.97934414742E+01 -0.39949604771E+02  0.43129317285E+02  0.00000000000E+00 0. -1.
         -3    1    6    6    0  503  0.13240314550E+03  0.32930749126E+02 -0.26491027325E+03  0.29798067060E+03  0.00000000000E+00 0.  1.
<mgrwt>
<rscale>  0 0.19930959E+04</rscale>
<asrwt>0</asrwt>
<pdfrwt beam="1">  1        2 0.18913452E+00 0.19930959E+04</pdfrwt>
<pdfrwt beam="2">  1       -2 0.12427932E+00 0.19930959E+04</pdfrwt>
<totfact> 0.82284688E+00</totfact>
</mgrwt>
</event>
<event>
12    2  0.3518828E-008  0.1561678E+04  0.7818608E-02  0.8844443E-01
         -2   -1    0    0    0  501 -0.00000000000E+00  0.00000000000E+00  0.11827767572E+04  0.11827767572E+04  0.00000000000E+00 0.  1.
          2   -1    0    0  501    0  0.00000000000E+00 -0.00000000000E+00 -0.51548980977E+03  0.51548980977E+03  0.00000000000E+00 0. -1.
         23    2    1    2    0    0 -0.44705091399E+03 -0.20148883629E+03  0.39992590609E+03  0.63972489068E+03  0.94100661801E+02 0.  0.
        254    2    1    2    0    0  0.44705091399E+03  0.20148883629E+03  0.26736104135E+03  0.10585416763E+04  0.89920869834E+03 0.  0.
         23    2    4    4    0    0  0.22653859313E+03  0.16690747074E+03 -0.31270199255E+03  0.43066674102E+03  0.92268454567E+02 0.  0.
         23    2    4    4    0    0  0.22051232086E+03  0.34581365553E+02  0.58006303390E+03  0.62787493527E+03  0.89063216598E+02 0.  0.
          2    1    3    3  502    0 -0.41148333834E+03 -0.20239937514E+03  0.39198256549E+03  0.60326973771E+03  0.00000000000E+00 0. -1.
         -2    1    3    3    0  502 -0.35567575649E+02  0.91053884823E+00  0.79433405991E+01  0.36455152974E+02  0.00000000000E+00 0.  1.
         11    1    5    5    0    0  0.18681061608E+03  0.15378743677E+03 -0.21231674167E+03  0.32191175931E+03  0.00000000000E+00 0. -1.
        -11    1    5    5    0    0  0.39727977046E+02  0.13120033966E+02 -0.10038525088E+03  0.10875498170E+03  0.00000000000E+00 0.  1.
          4    1    6    6  503    0  0.13551792856E+03 -0.36642645104E+00  0.43964621263E+03  0.46005873050E+03  0.00000000000E+00 0. -1.
         -4    1    6    6    0  503  0.84994392299E+02  0.34947792004E+02  0.14041682127E+03  0.16781620477E+03  0.00000000000E+00 0.  1.
<mgrwt>
<rscale>  0 0.15616778E+04</rscale>
<asrwt>0</asrwt>
<pdfrwt beam="1">  1        2 0.79306125E-01 0.15616778E+04</pdfrwt>
<pdfrwt beam="2">  1       -2 0.18196565E+00 0.15616778E+04</pdfrwt>
<totfact> 0.10033715E+01</totfact>
</mgrwt>
</event>
<event>
12    2  0.3518828E-008  0.2517114E+04  0.7818608E-02  0.8396914E-01
         -2   -1    0    0    0  501 -0.00000000000E+00  0.00000000000E+00  0.73568661681E+03  0.73568661681E+03  0.00000000000E+00 0.  1.
          2   -1    0    0  501    0  0.00000000000E+00 -0.00000000000E+00 -0.21530444463E+04  0.21530444463E+04  0.00000000000E+00 0. -1.
         23    2    1    2    0    0  0.15002139356E+03  0.63805883017E+03  0.38843010654E+03  0.76739946756E+03  0.91643362390E+02 0.  0.
        254    2    1    2    0    0 -0.15002139356E+03 -0.63805883017E+03 -0.18057879360E+04  0.21213315955E+04  0.89975117619E+03 0.  0.
         23    2    4    4    0    0  0.25799230621E+03 -0.57990408673E+03 -0.76548553488E+03  0.99861608834E+03  0.91745342727E+02 0.  0.
         23    2    4    4    0    0 -0.40801369977E+03 -0.58154743433E+02 -0.10403024011E+04  0.11227155072E+04  0.91672628885E+02 0.  0.
          4    1    3    3  502    0  0.88831684947E+02  0.40395376372E+03  0.29494624511E+03  0.50799901474E+03  0.00000000000E+00 0.  1.
         -4    1    3    3    0  502  0.61189708609E+02  0.23410506645E+03  0.93483861433E+02  0.25940045283E+03  0.00000000000E+00 0. -1.
         11    1    5    5    0    0  0.18629504199E+03 -0.39497656678E+03 -0.45903897013E+03  0.63358433304E+03  0.00000000000E+00 0.  1.
        -11    1    5    5    0    0  0.71697264225E+02 -0.18492751995E+03 -0.30644656475E+03  0.36503175530E+03  0.00000000000E+00 0. -1.
          1    1    6    6  503    0 -0.34178992204E+02 -0.84548574735E+01 -0.37958083894E+02  0.51773586469E+02  0.00000000000E+00 0. -1.
         -1    1    6    6    0  503 -0.37383470756E+03 -0.49699885959E+02 -0.10023443172E+04  0.10709419207E+04  0.00000000000E+00 0.  1.
<mgrwt>
<rscale>  0 0.25171142E+04</rscale>
<asrwt>0</asrwt>
<pdfrwt beam="1">  1        2 0.33123760E+00 0.25171142E+04</pdfrwt>
<pdfrwt beam="2">  1       -2 0.11318256E+00 0.25171142E+04</pdfrwt>
<totfact> 0.29956517E+00</totfact>
</mgrwt>
</event>
<event>
12    2  0.3518828E-008  0.1790901E+04  0.7818608E-02  0.8711153E-01
          2   -1    0    0  501    0  0.00000000000E+00  0.00000000000E+00  0.53852376387E+03  0.53852376387E+03  0.00000000000E+00 0.  1.
         -2   -1    0    0    0  501 -0.00000000000E+00 -0.00000000000E+00 -0.14889431208E+04  0.14889431208E+04  0.00000000000E+00 0. -1.
         23    2    1    2    0    0 -0.53335732222E+03  0.10316377110E+03 -0.75944049358E+03  0.93792401691E+03  0.88537005670E+02 0.  0.
        254    2    1    2    0    0  0.53335732222E+03 -0.10316377110E+03 -0.19097886335E+03  0.10895428678E+04  0.92494212662E+03 0.  0.
         23    2    4    4    0    0 -0.98303685885E+02  0.98786665119E+02 -0.36223213523E+03  0.39869791264E+03  0.91244100552E+02 0.  0.
         23    2    4    4    0    0  0.63166100811E+03 -0.20195043622E+03  0.17125327188E+03  0.69084495512E+03  0.90329735021E+02 0.  0.
          2    1    3    3  502    0 -0.20262061484E+02  0.68886769814E+01 -0.69586835743E+02  0.72803383952E+02  0.00000000000E+00 0.  1.
         -2    1    3    3    0  502 -0.51309526074E+03  0.96275094115E+02 -0.68985365784E+03  0.86512063296E+03  0.00000000000E+00 0. -1.
         11    1    5    5    0    0 -0.65743089282E+02  0.10976670072E+03 -0.31734877739E+03  0.34217119821E+03  0.00000000000E+00 0.  1.
        -11    1    5    5    0    0 -0.32560596603E+02 -0.10980035600E+02 -0.44883357842E+02  0.56526714429E+02  0.00000000000E+00 0. -1.
          2    1    6    6  503    0  0.31429518599E+03 -0.57275638177E+02  0.62791787365E+02  0.32558373919E+03  0.00000000000E+00 0. -1.
         -2    1    6    6    0  503  0.31736582211E+03 -0.14467479804E+03  0.10846148452E+03  0.36526121592E+03  0.00000000000E+00 0.  1.
<mgrwt>
<rscale>  0 0.17909006E+04</rscale>
<asrwt>0</asrwt>
<pdfrwt beam="1">  1        2 0.82849810E-01 0.17909006E+04</pdfrwt>
<pdfrwt beam="2">  1       -2 0.22906817E+00 0.17909006E+04</pdfrwt>
<totfact> 0.46184979E+00</totfact>
</mgrwt>
</event>
<event>
12    2  0.3518828E-008  0.1368000E+04  0.7818608E-02  0.8977313E-01
          1   -1    0    0  501    0  0.00000000000E+00  0.00000000000E+00  0.17942682757E+04  0.17942682757E+04  0.00000000000E+00 0. -1.
         -1   -1    0    0    0  501 -0.00000000000E+00 -0.00000000000E+00 -0.26075039299E+03  0.26075039299E+03  0.00000000000E+00 0.  1.
         23    2    1    2    0    0  0.29295392872E+03  0.18574398247E+03  0.19911077384E+03  0.40886568505E+03  0.84871766665E+02 0.  0.
        254    2    1    2    0    0 -0.29295392872E+03 -0.18574398247E+03  0.13344071088E+04  0.16461529836E+04  0.89936337594E+03 0.  0.
         23    2    4    4    0    0 -0.32686807239E+03 -0.95904191718E+02  0.49761789821E+02  0.35471459501E+03  0.85474308715E+02 0.  0.
         23    2    4    4    0    0  0.33914143675E+02 -0.89839790756E+02  0.12846453190E+04  0.12914383886E+04  0.90984387339E+02 0.  0.
          4    1    3    3  502    0  0.27077406015E+03  0.13889534436E+03  0.15919347639E+03  0.34344296653E+03  0.00000000000E+00 0.  1.
         -4    1    3    3    0  502  0.22179868569E+02  0.46848638112E+02  0.39917297456E+02  0.65422718522E+02  0.00000000000E+00 0. -1.
         11    1    5    5    0    0 -0.22385627230E+03 -0.10536182774E+03  0.42286672024E+02  0.25099981678E+03  0.00000000000E+00 0.  1.
        -11    1    5    5    0    0 -0.10301180010E+03  0.94576360243E+01  0.74751177963E+01  0.10371477824E+03  0.00000000000E+00 0. -1.
          4    1    6    6  503    0  0.18169790647E+02 -0.69482586566E+02  0.39853675734E+03  0.40495619279E+03  0.00000000000E+00 0. -1.
         -4    1    6    6    0  503  0.15744353029E+02 -0.20357204190E+02  0.88610856168E+03  0.88648219582E+03  0.00000000000E+00 0.  1.
<mgrwt>
<rscale>  0 0.13680002E+04</rscale>
<asrwt>0</asrwt>
<pdfrwt beam="1">  1        1 0.27604127E+00 0.13680002E+04</pdfrwt>
<pdfrwt beam="2">  1       -1 0.40115446E-01 0.13680002E+04</pdfrwt>
<totfact> 0.24354295E+01</totfact>
</mgrwt>
</event>
<event>
12    2  0.3518828E-008  0.1844762E+04  0.7818608E-02  0.8682851E-01
          2   -1    0    0  501    0  0.00000000000E+00  0.00000000000E+00  0.15954981904E+04  0.15954981904E+04  0.00000000000E+00 0. -1.
         -2   -1    0    0    0  501 -0.00000000000E+00 -0.00000000000E+00 -0.53324192352E+03  0.53324192352E+03  0.00000000000E+00 0.  1.
         23    2    1    2    0    0  0.15519730444E+03  0.66935093209E+03  0.48535612639E+03  0.84870197895E+03  0.11228359652E+03 0.  0.
        254    2    1    2    0    0 -0.15519730444E+03 -0.66935093209E+03  0.57690014053E+03  0.12800381350E+04  0.91299889447E+03 0.  0.
         23    2    4    4    0    0 -0.18145989277E+03 -0.67742783004E+03  0.11365428203E+02  0.70683538176E+03  0.87469573854E+02 0.  0.
         23    2    4    4    0    0  0.26262588329E+02  0.80768979507E+01  0.56553471232E+03  0.57320275324E+03  0.89313636404E+02 0.  0.
          3    1    3    3  502    0  0.12453862955E+03  0.62122256022E+03  0.41197749320E+03  0.75574651469E+03  0.00000000000E+00 0. -1.
         -3    1    3    3    0  502  0.30658674896E+02  0.48128371879E+02  0.73378633189E+02  0.92955464255E+02  0.00000000000E+00 0.  1.
         11    1    5    5    0    0 -0.26294231364E+02 -0.25686283366E+02 -0.80414706453E+00  0.36767083222E+02  0.00000000000E+00 0.  1.
        -11    1    5    5    0    0 -0.15516566141E+03 -0.65174154668E+03  0.12169575268E+02  0.67006829854E+03  0.00000000000E+00 0. -1.
          2    1    6    6  503    0  0.51860682004E+01  0.10234227380E+02  0.53956553719E+03  0.53968750554E+03  0.00000000000E+00 0. -1.
         -2    1    6    6    0  503  0.21076520129E+02 -0.21573294289E+01  0.25969175138E+02  0.33515247700E+02  0.00000000000E+00 0.  1.
<mgrwt>
<rscale>  0 0.18447618E+04</rscale>
<asrwt>0</asrwt>
<pdfrwt beam="1">  1        2 0.24546126E+00 0.18447618E+04</pdfrwt>
<pdfrwt beam="2">  1       -2 0.82037220E-01 0.18447618E+04</pdfrwt>
<totfact> 0.13780197E+01</totfact>
</mgrwt>
</event>
<event>
12    2  0.3518828E-008  0.2974774E+04  0.7818608E-02  0.8250971E-01
          2   -1    0    0  501    0  0.00000000000E+00  0.00000000000E+00  0.21193924606E+04  0.21193924606E+04  0.00000000000E+00 0. -1.
         -2   -1    0    0    0  501 -0.00000000000E+00 -0.00000000000E+00 -0.10438460117E+04  0.10438460117E+04  0.00000000000E+00 0.  1.
         23    2    1    2    0    0  0.11263905851E+03 -0.43866859479E+03 -0.85900264544E+03  0.97589893072E+03  0.96827085807E+02 0.  0.
        254    2    1    2    0    0 -0.11263905851E+03  0.43866859479E+03  0.19345490943E+04  0.21873395416E+04  0.91479854528E+03 0.  0.
         23    2    4    4    0    0 -0.40321131068E+03  0.54596895148E+03  0.11435132422E+04  0.13329148019E+04  0.91530742608E+02 0.  0.
         23    2    4    4    0    0  0.29057225217E+03 -0.10730035669E+03  0.79103585205E+03  0.85442473972E+03  0.91423828023E+02 0.  0.
          2    1    3    3  502    0  0.47762934668E+02 -0.13662624772E+03 -0.37212795012E+03  0.39928340907E+03  0.00000000000E+00 0.  1.
         -2    1    3    3    0  502  0.64876123842E+02 -0.30204234707E+03 -0.48687469532E+03  0.57661552165E+03  0.00000000000E+00 0. -1.
         11    1    5    5    0    0 -0.35750622837E+03  0.48671858629E+03  0.10659786331E+04  0.12251596352E+04  0.00000000000E+00 0.  1.
        -11    1    5    5    0    0 -0.45705082306E+02  0.59250365190E+02  0.77534609102E+02  0.10775516662E+03  0.00000000000E+00 0. -1.
          1    1    6    6  503    0  0.15098759238E+03 -0.79898434519E+02  0.53393243633E+03  0.56059331022E+03  0.00000000000E+00 0. -1.
         -1    1    6    6    0  503  0.13958465979E+03 -0.27401922172E+02  0.25710341572E+03  0.29383142950E+03  0.00000000000E+00 0.  1.
<mgrwt>
<rscale>  0 0.29747735E+04</rscale>
<asrwt>0</asrwt>
<pdfrwt beam="1">  1        2 0.32606038E+00 0.29747735E+04</pdfrwt>
<pdfrwt beam="2">  1       -2 0.16059169E+00 0.29747735E+04</pdfrwt>
<totfact> 0.12258997E+00</totfact>
</mgrwt>
</event>
<event>
12    2  0.3518828E-008  0.2891890E+04  0.7818608E-02  0.8275295E-01
          2   -1    0    0  501    0  0.00000000000E+00  0.00000000000E+00  0.16614508580E+04  0.16614508580E+04  0.00000000000E+00 0. -1.
         -2   -1    0    0    0  501 -0.00000000000E+00 -0.00000000000E+00 -0.12583920410E+04  0.12583920410E+04  0.00000000000E+00 0.  1.
         23    2    1    2    0    0  0.14396690383E+03 -0.96432222074E+03  0.10584250773E+04  0.14420208705E+04  0.92286141566E+02 0.  0.
        254    2    1    2    0    0 -0.14396690383E+03  0.96432222074E+03 -0.65536626026E+03  0.14778220285E+04  0.89655406862E+03 0.  0.
         23    2    4    4    0    0  0.13966025892E+02  0.93402213586E+03 -0.16453628465E+03  0.95314176006E+03  0.93886237787E+02 0.  0.
         23    2    4    4    0    0 -0.15793292972E+03  0.30300084881E+02 -0.49082997561E+03  0.52468026843E+03  0.92273580633E+02 0.  0.
          3    1    3    3  502    0  0.28900990064E+02 -0.44771995010E+03  0.44658030506E+03  0.63302637371E+03  0.00000000000E+00 0. -1.
         -3    1    3    3    0  502  0.11506591377E+03 -0.51660227064E+03  0.61184477223E+03  0.80899449680E+03  0.00000000000E+00 0.  1.
         11    1    5    5    0    0 -0.25709145620E+02  0.68910012769E+03 -0.10019838809E+03  0.69682111272E+03  0.00000000000E+00 0. -1.
        -11    1    5    5    0    0  0.39675171511E+02  0.24492200817E+03 -0.64337896560E+02  0.25632064734E+03  0.00000000000E+00 0.  1.
          4    1    6    6  503    0 -0.10426146558E+03  0.63688187407E+02 -0.32729556974E+03  0.34935516082E+03  0.00000000000E+00 0. -1.
         -4    1    6    6    0  503 -0.53671464144E+02 -0.33388102526E+02 -0.16353440587E+03  0.17532510760E+03  0.00000000000E+00 0.  1.
<mgrwt>
<rscale>  0 0.28918897E+04</rscale>
<asrwt>0</asrwt>
<pdfrwt beam="1">  1        2 0.25560782E+00 0.28918897E+04</pdfrwt>
<pdfrwt beam="2">  1       -2 0.19359878E+00 0.28918897E+04</pdfrwt>
<totfact> 0.13050916E+00</totfact>
</mgrwt>
</event>
<event>
12    2  0.3518828E-008  0.1300859E+04  0.7818608E-02  0.9028884E-01
          1   -1    0    0  501    0  0.00000000000E+00  0.00000000000E+00  0.24513923622E+04  0.24513923622E+04  0.00000000000E+00 0. -1.
         -1   -1    0    0    0  501 -0.00000000000E+00 -0.00000000000E+00 -0.17257890280E+03  0.17257890280E+03  0.00000000000E+00 0.  1.
         23    2    1    2    0    0 -0.10532625426E+03  0.25969669161E+03  0.96490707256E+03  0.10090063393E+04  0.92261273308E+02 0.  0.
        254    2    1    2    0    0  0.10532625426E+03 -0.25969669161E+03  0.13139063869E+04  0.16149649258E+04  0.89622861286E+03 0.  0.
         23    2    4    4    0    0 -0.27448277557E+03 -0.58669622274E+02  0.81980291145E+02  0.30705109029E+03  0.93683964734E+02 0.  0.
         23    2    4    4    0    0  0.37980902983E+03 -0.20102706933E+03  0.12319260957E+04  0.13079138355E+04  0.91268362227E+02 0.  0.
          1    1    3    3  502    0 -0.10572569070E+03  0.25543099935E+03  0.96583775923E+03  0.10046220654E+04  0.00000000000E+00 0. -1.
         -1    1    3    3    0  502  0.39943643393E+00  0.42656922560E+01 -0.93068666839E+00  0.43842738922E+01  0.00000000000E+00 0.  1.
         11    1    5    5    0    0 -0.79309009835E+02 -0.57451358934E+02  0.77619108688E+01  0.98238612290E+02  0.00000000000E+00 0.  1.
        -11    1    5    5    0    0 -0.19517376573E+03 -0.12182633407E+01  0.74218380276E+02  0.20881247800E+03  0.00000000000E+00 0. -1.
          1    1    6    6  503    0  0.72793757680E+02 -0.72286889371E+02  0.22263396285E+03  0.24513303928E+03  0.00000000000E+00 0. -1.
         -1    1    6    6    0  503  0.30701527215E+03 -0.12874017996E+03  0.10092921329E+04  0.10627807962E+04  0.00000000000E+00 0.  1.
<mgrwt>
<rscale>  0 0.13008591E+04</rscale>
<asrwt>0</asrwt>
<pdfrwt beam="1">  1        1 0.37713726E+00 0.13008591E+04</pdfrwt>
<pdfrwt beam="2">  1       -1 0.26550602E-01 0.13008591E+04</pdfrwt>
<totfact> 0.18238535E+01</totfact>
</mgrwt>
</event>
<event>
12    2  0.3518828E-008  0.2497468E+04  0.7818608E-02  0.8403888E-01
         -1   -1    0    0    0  501 -0.00000000000E+00  0.00000000000E+00  0.64672192961E+03  0.64672192961E+03  0.00000000000E+00 0.  1.
          1   -1    0    0  501    0  0.00000000000E+00 -0.00000000000E+00 -0.24111401271E+04  0.24111401271E+04  0.00000000000E+00 0. -1.
         23    2    1    2    0    0 -0.10820194837E+04  0.40670293482E+02 -0.90148733483E+03  0.14120191438E+04  0.93265276609E+02 0.  0.
        254    2    1    2    0    0  0.10820194837E+04 -0.40670293482E+02 -0.86293086269E+03  0.16458429129E+04  0.88979153977E+03 0.  0.
         23    2    4    4    0    0  0.81496985607E+03 -0.10284496048E+03 -0.10296678846E+03  0.83275958256E+03  0.90185423563E+02 0.  0.
         23    2    4    4    0    0  0.26704962764E+03  0.62174666999E+02 -0.75996407423E+03  0.81308333033E+03  0.91530951608E+02 0.  0.
          1    1    3    3  502    0 -0.86197065456E+03  0.71958955176E+01 -0.75180424177E+03  0.11437896696E+04  0.00000000000E+00 0. -1.
         -1    1    3    3    0  502 -0.22004882915E+03  0.33474397964E+02 -0.14968309306E+03  0.26822947429E+03  0.00000000000E+00 0.  1.
         11    1    5    5    0    0  0.21622661784E+01 -0.33575039153E+01  0.54325051707E+01  0.67424283457E+01  0.00000000000E+00 0.  1.
        -11    1    5    5    0    0  0.81280758989E+03 -0.99487456566E+02 -0.10839929363E+03  0.82601715421E+03  0.00000000000E+00 0. -1.
          4    1    6    6  503    0  0.25836235259E+03  0.42420708326E+02 -0.73413416393E+03  0.77942516792E+03  0.00000000000E+00 0. -1.
         -4    1    6    6    0  503  0.86872750521E+01  0.19753958673E+02 -0.25829910298E+02  0.33658162414E+02  0.00000000000E+00 0.  1.
<mgrwt>
<rscale>  0 0.24974685E+04</rscale>
<asrwt>0</asrwt>
<pdfrwt beam="1">  1        1 0.37094464E+00 0.24974685E+04</pdfrwt>
<pdfrwt beam="2">  1       -1 0.99495679E-01 0.24974685E+04</pdfrwt>
<totfact> 0.13369033E+00</totfact>
</mgrwt>
</event>
<event>
12    2  0.3518828E-008  0.1207522E+04  0.7818608E-02  0.9106298E-01
         -2   -1    0    0    0  501 -0.00000000000E+00  0.00000000000E+00  0.27947542633E+03  0.27947542633E+03  0.00000000000E+00 0.  1.
          2   -1    0    0  501    0  0.00000000000E+00 -0.00000000000E+00 -0.13043278326E+04  0.13043278326E+04  0.00000000000E+00 0. -1.
         23    2    1    2    0    0 -0.22307584902E+03  0.43946750189E+02 -0.23494171109E+03  0.34640150290E+03  0.11446502667E+03 0.  0.
        254    2    1    2    0    0  0.22307584902E+03 -0.43946750189E+02 -0.78991069522E+03  0.12374017561E+04  0.92493786184E+03 0.  0.
         23    2    4    4    0    0  0.31264207650E+03  0.36261407481E+03 -0.59356359059E+03  0.76804816157E+03  0.91357578586E+02 0.  0.
         23    2    4    4    0    0 -0.89566227487E+02 -0.40656082500E+03 -0.19634710463E+03  0.46935359451E+03  0.91797590698E+02 0.  0.
          3    1    3    3  502    0 -0.14413008312E+03  0.11104323976E+01 -0.20718988566E+03  0.25239326980E+03  0.00000000000E+00 0. -1.
         -3    1    3    3    0  502 -0.78945765895E+02  0.42836317792E+02 -0.27751825429E+02  0.94008233094E+02  0.00000000000E+00 0.  1.
         11    1    5    5    0    0  0.20669323435E+03  0.17440175313E+03 -0.35427556630E+03  0.44570084305E+03  0.00000000000E+00 0.  1.
        -11    1    5    5    0    0  0.10594884215E+03  0.18821232168E+03 -0.23928802429E+03  0.32234731852E+03  0.00000000000E+00 0. -1.
          3    1    6    6  503    0 -0.67801129681E+02 -0.16812649092E+03 -0.47395406691E+02  0.18737618501E+03  0.00000000000E+00 0. -1.
         -3    1    6    6    0  503 -0.21765097806E+02 -0.23843433408E+03 -0.14895169794E+03  0.28197740950E+03  0.00000000000E+00 0.  1.
<mgrwt>
<rscale>  0 0.12075224E+04</rscale>
<asrwt>0</asrwt>
<pdfrwt beam="1">  1        2 0.20066582E+00 0.12075224E+04</pdfrwt>
<pdfrwt beam="2">  1       -2 0.42996220E-01 0.12075224E+04</pdfrwt>
<totfact> 0.83088587E+01</totfact>
</mgrwt>
</event>
<event>
12    2  0.3518828E-008  0.1733235E+04  0.7818608E-02  0.8742633E-01
          2   -1    0    0  501    0  0.00000000000E+00  0.00000000000E+00  0.27981890029E+04  0.27981890029E+04  0.00000000000E+00 0. -1.
         -2   -1    0    0    0  501 -0.00000000000E+00 -0.00000000000E+00 -0.26839726719E+03  0.26839726719E+03  0.00000000000E+00 0.  1.
         23    2    1    2    0    0  0.68051829538E+01 -0.55395650167E+03  0.40662147575E+03  0.69313920979E+03  0.90481066292E+02 0.  0.
        254    2    1    2    0    0 -0.68051829538E+01  0.55395650167E+03  0.21231702599E+04  0.23734470603E+04  0.90470154140E+03 0.  0.
         23    2    4    4    0    0 -0.62712347404E+02  0.29419744594E+02 -0.57481121133E+02  0.12804731498E+03  0.91069620056E+02 0.  0.
         23    2    4    4    0    0  0.55907164451E+02  0.52453675707E+03  0.21806513811E+04  0.22453997453E+04  0.91187443635E+02 0.  0.
          4    1    3    3  502    0  0.31797035909E+02 -0.72207156556E+02  0.54191084758E+02  0.95716240094E+02  0.00000000000E+00 0. -1.
         -4    1    3    3    0  502 -0.24991852956E+02 -0.48174934511E+03  0.35243039099E+03  0.59742296970E+03  0.00000000000E+00 0.  1.
         11    1    5    5    0    0  0.12093589589E+02 -0.20713601453E+02 -0.16476585254E+02  0.29099588586E+02  0.00000000000E+00 0. -1.
        -11    1    5    5    0    0 -0.74805936993E+02  0.50133346046E+02 -0.41004535879E+02  0.98947726391E+02  0.00000000000E+00 0.  1.
          3    1    6    6  503    0 -0.88059089616E+01  0.22115480638E+03  0.77901091583E+03  0.80984257692E+03  0.00000000000E+00 0. -1.
         -3    1    6    6    0  503  0.64713073412E+02  0.30338195069E+03  0.14016404653E+04  0.14355571684E+04  0.00000000000E+00 0.  1.
<mgrwt>
<rscale>  0 0.17332355E+04</rscale>
<asrwt>0</asrwt>
<pdfrwt beam="1">  1        2 0.43049060E+00 0.17332355E+04</pdfrwt>
<pdfrwt beam="2">  1       -2 0.41291889E-01 0.17332355E+04</pdfrwt>
<totfact> 0.12261888E+01</totfact>
</mgrwt>
</event>
<event>
12    2  0.3518828E-008  0.1679512E+04  0.7818608E-02  0.8773136E-01
         -1   -1    0    0    0  501 -0.00000000000E+00  0.00000000000E+00  0.56412613793E+03  0.56412613793E+03  0.00000000000E+00 0.  1.
          1   -1    0    0  501    0  0.00000000000E+00 -0.00000000000E+00 -0.12500582067E+04  0.12500582067E+04  0.00000000000E+00 0. -1.
         23    2    1    2    0    0 -0.22538406662E+01  0.22868931628E+03 -0.84893380793E+03  0.88373242049E+03  0.89389583212E+02 0.  0.
        254    2    1    2    0    0  0.22538406662E+01 -0.22868931628E+03  0.16300173919E+03  0.93045192412E+03  0.88705542833E+03 0.  0.
         23    2    4    4    0    0 -0.36653271322E+03 -0.94966157729E+02 -0.15410054334E+03  0.41707662198E+03  0.82711124859E+02 0.  0.
         23    2    4    4    0    0  0.36878655388E+03 -0.13372315855E+03  0.31710228253E+03  0.51337530214E+03  0.95472183396E+02 0.  0.
          3    1    3    3  502    0  0.34203974024E+02  0.10498155994E+03 -0.49133140354E+03  0.50358473753E+03  0.00000000000E+00 0. -1.
         -3    1    3    3    0  502 -0.36457814690E+02  0.12370775633E+03 -0.35760240439E+03  0.38014768295E+03  0.00000000000E+00 0.  1.
         11    1    5    5    0    0 -0.22613108178E+03 -0.16751211936E+02 -0.85609235128E+02  0.24237328728E+03  0.00000000000E+00 0.  1.
        -11    1    5    5    0    0 -0.14040163144E+03 -0.78214945793E+02 -0.68491308208E+02  0.17470333470E+03  0.00000000000E+00 0. -1.
          4    1    6    6  503    0  0.19354561411E+03 -0.26459850137E+02  0.12377606783E+03  0.23125860714E+03  0.00000000000E+00 0. -1.
         -4    1    6    6    0  503  0.17524093977E+03 -0.10726330841E+03  0.19332621470E+03  0.28211669499E+03  0.00000000000E+00 0.  1.
<mgrwt>
<rscale>  0 0.16795124E+04</rscale>
<asrwt>0</asrwt>
<pdfrwt beam="1">  1        1 0.19231665E+00 0.16795124E+04</pdfrwt>
<pdfrwt beam="2">  1       -1 0.86788637E-01 0.16795124E+04</pdfrwt>
<totfact> 0.12255623E+01</totfact>
</mgrwt>
</event>
<event>
12    2  0.3518828E-008  0.2734115E+04  0.7818608E-02  0.8324020E-01
          1   -1    0    0  501    0  0.00000000000E+00  0.00000000000E+00  0.40024688821E+04  0.40024688821E+04  0.00000000000E+00 0. -1.
         -1   -1    0    0    0  501 -0.00000000000E+00 -0.00000000000E+00 -0.46692351726E+03  0.46692351726E+03  0.00000000000E+00 0.  1.
         23    2    1    2    0    0  0.10508662990E+03 -0.94678064998E+03  0.28398432717E+04  0.29967512758E+04  0.91496459558E+02 0.  0.
        254    2    1    2    0    0 -0.10508662990E+03  0.94678064998E+03  0.69570209313E+03  0.14726411236E+04  0.88160857385E+03 0.  0.
         23    2    4    4    0    0 -0.93332522432E+02 -0.14935918261E+03  0.95074320012E+02  0.21973932866E+03  0.90703478788E+02 0.  0.
         23    2    4    4    0    0 -0.11754107469E+02  0.10961398326E+04  0.60062777312E+03  0.12529017949E+04  0.85723358628E+02 0.  0.
          1    1    3    3  502    0  0.11116212826E+03 -0.70818058359E+03  0.21997477870E+04  0.23136047813E+04  0.00000000000E+00 0. -1.
         -1    1    3    3    0  502 -0.60754983560E+01 -0.23860006638E+03  0.64009548469E+03  0.68314649445E+03  0.00000000000E+00 0.  1.
         11    1    5    5    0    0 -0.16524122615E+02 -0.89716635417E+02  0.79994603586E+02  0.12133119097E+03  0.00000000000E+00 0.  1.
        -11    1    5    5    0    0 -0.76808399817E+02 -0.59642547189E+02  0.15079716427E+02  0.98408137698E+02  0.00000000000E+00 0. -1.
          4    1    6    6  503    0 -0.93822620558E+01  0.83310778882E+03  0.49731156844E+03  0.97029655814E+03  0.00000000000E+00 0. -1.
         -4    1    6    6    0  503 -0.23718454131E+01  0.26303204377E+03  0.10331620468E+03  0.28260523677E+03  0.00000000000E+00 0.  1.
<mgrwt>
<rscale>  0 0.27341155E+04</rscale>
<asrwt>0</asrwt>
<pdfrwt beam="1">  1        1 0.61576442E+00 0.27341155E+04</pdfrwt>
<pdfrwt beam="2">  1       -1 0.71834390E-01 0.27341155E+04</pdfrwt>
<totfact> 0.16270244E-01</totfact>
</mgrwt>
</event>
<event>
12    2  0.3518828E-008  0.2224579E+04  0.7818608E-02  0.8508267E-01
         -1   -1    0    0    0  501 -0.00000000000E+00  0.00000000000E+00  0.66882178732E+03  0.66882178732E+03  0.00000000000E+00 0.  1.
          1   -1    0    0  501    0  0.00000000000E+00 -0.00000000000E+00 -0.18498020791E+04  0.18498020791E+04  0.00000000000E+00 0. -1.
         23    2    1    2    0    0 -0.32067505565E+03  0.79200654431E+03 -0.84583265872E+02  0.86350163317E+03  0.91508928912E+02 0.  0.
        254    2    1    2    0    0  0.32067505565E+03 -0.79200654431E+03 -0.10963970259E+04  0.16551222332E+04  0.89846330533E+03 0.  0.
         23    2    4    4    0    0  0.12260708045E+03  0.18429803703E+03 -0.20435449523E+03  0.31460115863E+03  0.90635901630E+02 0.  0.
         23    2    4    4    0    0  0.19806797521E+03 -0.97630458134E+03 -0.89204253067E+03  0.13405210746E+04  0.94102691804E+02 0.  0.
          2    1    3    3  502    0 -0.54289412616E+02  0.11896053384E+03  0.19508163461E+02  0.13221012584E+03  0.00000000000E+00 0. -1.
         -2    1    3    3    0  502 -0.26638564304E+03  0.67304601047E+03 -0.10409142933E+03  0.73129150733E+03  0.00000000000E+00 0.  1.
         11    1    5    5    0    0  0.64283877093E+02  0.13937519462E+03 -0.88029668517E+02  0.17693808032E+03  0.00000000000E+00 0.  1.
        -11    1    5    5    0    0  0.58323203353E+02  0.44922842407E+02 -0.11632482672E+03  0.13766307831E+03  0.00000000000E+00 0. -1.
          1    1    6    6  503    0  0.15180710338E+03 -0.59260956698E+03 -0.50089542951E+03  0.79065019245E+03  0.00000000000E+00 0. -1.
         -1    1    6    6    0  503  0.46260871829E+02 -0.38369501436E+03 -0.39114710115E+03  0.54987088216E+03  0.00000000000E+00 0.  1.
<mgrwt>
<rscale>  0 0.22245790E+04</rscale>
<asrwt>0</asrwt>
<pdfrwt beam="1">  1        1 0.28458493E+00 0.22245790E+04</pdfrwt>
<pdfrwt beam="2">  1       -1 0.10289566E+00 0.22245790E+04</pdfrwt>
<totfact> 0.30591523E+00</totfact>
</mgrwt>
</event>
<event>
12    2  0.3518828E-008  0.3758231E+04  0.7818608E-02  0.8055178E-01
         -1   -1    0    0    0  501 -0.00000000000E+00  0.00000000000E+00  0.89529811620E+03  0.89529811620E+03  0.00000000000E+00 0. -1.
          1   -1    0    0  501    0  0.00000000000E+00 -0.00000000000E+00 -0.39440210481E+04  0.39440210481E+04  0.00000000000E+00 0.  1.
         23    2    1    2    0    0 -0.13239421878E+04 -0.63171125884E+03 -0.21006352648E+03  0.14848201668E+04  0.93178385133E+02 0.  0.
        254    2    1    2    0    0  0.13239421878E+04  0.63171125884E+03 -0.28386594054E+04  0.33544989974E+04  0.10211729886E+04 0.  0.
         23    2    4    4    0    0  0.88579210107E+02 -0.24031570768E+03 -0.40023243583E+03  0.48383208414E+03  0.91156827121E+02 0.  0.
         23    2    4    4    0    0  0.12353629777E+04  0.87202696653E+03 -0.24384269695E+04  0.28706669133E+04  0.90827992114E+02 0.  0.
          3    1    3    3  502    0 -0.12209826455E+04 -0.55980246085E+03 -0.17585413710E+03  0.13546594012E+04  0.00000000000E+00 0. -1.
         -3    1    3    3    0  502 -0.10295954229E+03 -0.71908797993E+02 -0.34209389375E+02  0.13016076559E+03  0.00000000000E+00 0.  1.
         11    1    5    5    0    0  0.74816124912E+02 -0.15120265881E+03 -0.18442532282E+03  0.24994478645E+03  0.00000000000E+00 0.  1.
        -11    1    5    5    0    0  0.13763085194E+02 -0.89113048875E+02 -0.21580711301E+03  0.23388729769E+03  0.00000000000E+00 0. -1.
          3    1    6    6  503    0  0.58589008480E+03  0.44865327763E+03 -0.11224694431E+04  0.13433147828E+04  0.00000000000E+00 0. -1.
         -3    1    6    6    0  503  0.64947289290E+03  0.42337368889E+03 -0.13159575265E+04  0.15273521305E+04  0.00000000000E+00 0.  1.
<mgrwt>
<rscale>  0 0.37582308E+04</rscale>
<asrwt>0</asrwt>
<pdfrwt beam="1">  1        1 0.60677246E+00 0.37582308E+04</pdfrwt>
<pdfrwt beam="2">  1       -1 0.13773817E+00 0.37582308E+04</pdfrwt>
<totfact> 0.37399463E-02</totfact>
</mgrwt>
</event>
<event>
12    2  0.3518828E-008  0.1585646E+04  0.7818608E-02  0.8829415E-01
          2   -1    0    0  501    0  0.00000000000E+00  0.00000000000E+00  0.94000373246E+03  0.94000373246E+03  0.00000000000E+00 0. -1.
         -2   -1    0    0    0  501 -0.00000000000E+00 -0.00000000000E+00 -0.66868742446E+03  0.66868742446E+03  0.00000000000E+00 0.  1.
         23    2    1    2    0    0 -0.37408502973E+03  0.34492481806E+03 -0.23703484777E+02  0.51625365271E+03  0.83924008285E+02 0.  0.
        254    2    1    2    0    0  0.37408502973E+03 -0.34492481806E+03  0.29501979278E+03  0.10924375042E+04  0.92058149171E+03 0.  0.
         23    2    4    4    0    0  0.63052733210E+03 -0.41893012366E+03  0.15573470815E+03  0.77826146474E+03  0.91490125957E+02 0.  0.
         23    2    4    4    0    0 -0.25644230237E+03  0.74005305601E+02  0.13928508463E+03  0.31417603946E+03  0.89815417763E+02 0.  0.
          1    1    3    3  502    0 -0.26243540212E+03  0.24933946531E+03  0.21063675324E+02  0.36261024208E+03  0.00000000000E+00 0. -1.
         -1    1    3    3    0  502 -0.11164962761E+03  0.95585352754E+02 -0.44767160100E+02  0.15364341063E+03  0.00000000000E+00 0.  1.
         11    1    5    5    0    0  0.29855090804E+03 -0.18442012301E+03  0.11726654024E+03  0.36999306469E+03  0.00000000000E+00 0. -1.
        -11    1    5    5    0    0  0.33197642406E+03 -0.23451000065E+03  0.38468167914E+02  0.40826840005E+03  0.00000000000E+00 0.  1.
          3    1    6    6  503    0 -0.16924397295E+03  0.65598235640E+02  0.48204466839E+02  0.18780394437E+03  0.00000000000E+00 0. -1.
         -3    1    6    6    0  503 -0.87198329418E+02  0.84070699605E+01  0.91080617792E+02  0.12637209508E+03  0.00000000000E+00 0.  1.
<mgrwt>
<rscale>  0 0.15856465E+04</rscale>
<asrwt>0</asrwt>
<pdfrwt beam="1">  1        2 0.14461596E+00 0.15856465E+04</pdfrwt>
<pdfrwt beam="2">  1       -2 0.10287499E+00 0.15856465E+04</pdfrwt>
<totfact> 0.20433621E+01</totfact>
</mgrwt>
</event>
<event>
12    2  0.3518828E-008  0.1550602E+04  0.7818608E-02  0.8851483E-01
          4   -1    0    0  501    0  0.00000000000E+00  0.00000000000E+00  0.27700812601E+04  0.27700812601E+04  0.00000000000E+00 0. -1.
         -4   -1    0    0    0  501 -0.00000000000E+00 -0.00000000000E+00 -0.21699432812E+03  0.21699432812E+03  0.00000000000E+00 0.  1.
         23    2    1    2    0    0  0.40507538877E+03 -0.15311103310E+03  0.13357338029E+04  0.14071208517E+04  0.90968345726E+02 0.  0.
        254    2    1    2    0    0 -0.40507538877E+03  0.15311103310E+03  0.12173531291E+04  0.15799547365E+04  0.90927403439E+03 0.  0.
         23    2    4    4    0    0  0.10890993310E+03 -0.79717845856E+02 -0.65641827886E+02  0.17537530000E+03  0.90726720468E+02 0.  0.
         23    2    4    4    0    0 -0.51398532187E+03  0.23282887896E+03  0.12829949570E+04  0.14045794365E+04  0.91526695573E+02 0.  0.
          3    1    3    3  502    0  0.25675377085E+03 -0.49463546326E+02  0.80212935801E+03  0.84367093600E+03  0.00000000000E+00 0. -1.
         -3    1    3    3    0  502  0.14832161792E+03 -0.10364748678E+03  0.53360444491E+03  0.56344991568E+03  0.00000000000E+00 0.  1.
         11    1    5    5    0    0  0.16272136290E+02  0.20423064741E+02 -0.83580922624E+01  0.27417908365E+02  0.00000000000E+00 0. -1.
        -11    1    5    5    0    0  0.92637796808E+02 -0.10014091060E+03 -0.57283735623E+02  0.14795739164E+03  0.00000000000E+00 0.  1.
          1    1    6    6  503    0 -0.17264638932E+02  0.23177831189E+01  0.93235114762E+02  0.94848439632E+02  0.00000000000E+00 0. -1.
         -1    1    6    6    0  503 -0.49672068294E+03  0.23051109584E+03  0.11897598422E+04  0.13097309969E+04  0.00000000000E+00 0.  1.
<mgrwt>
<rscale>  0 0.15506024E+04</rscale>
<asrwt>0</asrwt>
<pdfrwt beam="1">  1        4 0.42616632E+00 0.15506024E+04</pdfrwt>
<pdfrwt beam="2">  1       -4 0.33383745E-01 0.15506024E+04</pdfrwt>
<totfact> 0.75975712E-02</totfact>
</mgrwt>
</event>
<event>
12    2  0.3518828E-008  0.1857409E+04  0.7818608E-02  0.8676352E-01
         -1   -1    0    0    0  501 -0.00000000000E+00  0.00000000000E+00  0.10582657982E+04  0.10582657982E+04  0.00000000000E+00 0.  1.
          1   -1    0    0  501    0  0.00000000000E+00 -0.00000000000E+00 -0.81500505923E+03  0.81500505923E+03  0.00000000000E+00 0. -1.
         23    2    1    2    0    0  0.60624038671E+03  0.14748424946E+03  0.42919731133E+03  0.76287422900E+03  0.92128968882E+02 0.  0.
        254    2    1    2    0    0 -0.60624038671E+03 -0.14748424946E+03 -0.18593657240E+03  0.11103966284E+04  0.89951612162E+03 0.  0.
         23    2    4    4    0    0 -0.33834163534E+03 -0.52079707983E+03 -0.11548271702E+03  0.63664395504E+03  0.79212416898E+02 0.  0.
         23    2    4    4    0    0 -0.26789875137E+03  0.37331283038E+03 -0.70453855383E+02  0.47375267334E+03  0.91354471422E+02 0.  0.
          3    1    3    3  502    0  0.25300170232E+02 -0.12316931644E+02  0.20717931970E+02  0.34943355935E+02  0.00000000000E+00 0. -1.
         -3    1    3    3    0  502  0.58094021648E+03  0.15980118110E+03  0.40847937936E+03  0.72793087307E+03  0.00000000000E+00 0.  1.
         11    1    5    5    0    0 -0.43897312462E+02 -0.64255481842E+02  0.11713872307E+02  0.78695335266E+02  0.00000000000E+00 0.  1.
        -11    1    5    5    0    0 -0.29444432288E+03 -0.45654159799E+03 -0.12719658933E+03  0.55794861977E+03  0.00000000000E+00 0. -1.
          3    1    6    6  503    0 -0.15139558174E+03  0.26927332543E+03 -0.19803503269E+02  0.30954955129E+03  0.00000000000E+00 0. -1.
         -3    1    6    6    0  503 -0.11650316963E+03  0.10403950494E+03 -0.50650352114E+02  0.16420312205E+03  0.00000000000E+00 0.  1.
<mgrwt>
<rscale>  0 0.18574089E+04</rscale>
<asrwt>0</asrwt>
<pdfrwt beam="1">  1        1 0.12538539E+00 0.18574089E+04</pdfrwt>
<pdfrwt beam="2">  1       -1 0.16281012E+00 0.18574089E+04</pdfrwt>
<totfact> 0.56070763E+00</totfact>
</mgrwt>
</event>
<event>
12    2  0.3518828E-008  0.3415930E+04  0.7818608E-02  0.8134008E-01
         -1   -1    0    0    0  501 -0.00000000000E+00  0.00000000000E+00  0.20008739359E+04  0.20008739359E+04  0.00000000000E+00 0.  1.
          1   -1    0    0  501    0  0.00000000000E+00 -0.00000000000E+00 -0.14579354391E+04  0.14579354391E+04  0.00000000000E+00 0. -1.
         23    2    1    2    0    0 -0.10341763466E+04 -0.10345721960E+04 -0.37484338067E+03  0.15128400110E+04  0.91197556458E+02 0.  0.
        254    2    1    2    0    0  0.10341763466E+04  0.10345721960E+04  0.91778187755E+03  0.19459693640E+04  0.89700214407E+03 0.  0.
         23    2    4    4    0    0 -0.85005070486E+02  0.35448129786E+03  0.67639414516E+02  0.38210921833E+03  0.92463570097E+02 0.  0.
         23    2    4    4    0    0  0.11191814171E+04  0.68009089813E+03  0.85014246303E+03  0.15638601457E+04  0.88462838846E+02 0.  0.
          2    1    3    3  502    0 -0.89764039402E+03 -0.85751343775E+03 -0.33399598281E+03  0.12855508117E+04  0.00000000000E+00 0. -1.
         -2    1    3    3    0  502 -0.13653595255E+03 -0.17705875824E+03 -0.40847397867E+02  0.22728919931E+03  0.00000000000E+00 0.  1.
         11    1    5    5    0    0 -0.53995663543E+02  0.27308201204E+03  0.11753830258E+02  0.27861706607E+03  0.00000000000E+00 0.  1.
        -11    1    5    5    0    0 -0.31009406944E+02  0.81399285826E+02  0.55885584258E+02  0.10349215226E+03  0.00000000000E+00 0. -1.
          2    1    6    6  503    0  0.22799875637E+03  0.15148307713E+03  0.13785532545E+03  0.30648759570E+03  0.00000000000E+00 0. -1.
         -2    1    6    6    0  503  0.89118266068E+03  0.52860782101E+03  0.71228713758E+03  0.12573725500E+04  0.00000000000E+00 0.  1.
<mgrwt>
<rscale>  0 0.34159303E+04</rscale>
<asrwt>0</asrwt>
<pdfrwt beam="1">  1        1 0.22429776E+00 0.34159303E+04</pdfrwt>
<pdfrwt beam="2">  1       -1 0.30782676E+00 0.34159303E+04</pdfrwt>
<totfact> 0.16886796E-01</totfact>
</mgrwt>
</event>
<event>
12    2  0.3518828E-008  0.1908064E+04  0.7818608E-02  0.8650853E-01
          2   -1    0    0  501    0  0.00000000000E+00  0.00000000000E+00  0.28686652126E+04  0.28686652126E+04  0.00000000000E+00 0. -1.
         -2   -1    0    0    0  501 -0.00000000000E+00 -0.00000000000E+00 -0.31728231702E+03  0.31728231702E+03  0.00000000000E+00 0.  1.
         23    2    1    2    0    0 -0.94704852220E+02  0.70333279930E+03  0.13437700068E+04  0.15223794411E+04  0.90968653672E+02 0.  0.
        254    2    1    2    0    0  0.94704852220E+02 -0.70333279930E+03  0.12076128889E+04  0.16635680886E+04  0.89748752659E+03 0.  0.
         23    2    4    4    0    0  0.12836509691E+03 -0.46923857176E+03  0.73017549073E+02  0.50054546146E+03  0.92475732978E+02 0.  0.
         23    2    4    4    0    0 -0.33660244689E+02 -0.23409422754E+03  0.11345953398E+04  0.11630226271E+04  0.96860346210E+02 0.  0.
          1    1    3    3  502    0 -0.41085243899E+02  0.86196246307E+02  0.20031101910E+03  0.22190604885E+03  0.00000000000E+00 0.  1.
         -1    1    3    3    0  502 -0.53619608321E+02  0.61713655299E+03  0.11434589877E+04  0.13004733922E+04  0.00000000000E+00 0. -1.
         11    1    5    5    0    0  0.49326620051E+01  0.33182639517E+01 -0.22739829250E+01  0.63649845603E+01  0.00000000000E+00 0. -1.
        -11    1    5    5    0    0  0.12343243490E+03 -0.47255683571E+03  0.75291531998E+02  0.49418047690E+03  0.00000000000E+00 0.  1.
          2    1    6    6  503    0  0.13639092016E+02 -0.38589149869E+02  0.85164957009E+02  0.94489243944E+02  0.00000000000E+00 0. -1.
         -2    1    6    6    0  503 -0.47299336705E+02 -0.19550507767E+03  0.10494303828E+04  0.10685333832E+04  0.00000000000E+00 0.  1.
<mgrwt>
<rscale>  0 0.19080637E+04</rscale>
<asrwt>0</asrwt>
<pdfrwt beam="1">  1        2 0.44133309E+00 0.19080637E+04</pdfrwt>
<pdfrwt beam="2">  1       -2 0.48812666E-01 0.19080637E+04</pdfrwt>
<totfact> 0.78298322E+00</totfact>
</mgrwt>
</event>
<event>
12    2  0.3518828E-008  0.1293529E+04  0.7818608E-02  0.9034712E-01
         -1   -1    0    0    0  501 -0.00000000000E+00  0.00000000000E+00  0.20193813735E+03  0.20193813735E+03  0.00000000000E+00 0.  1.
          1   -1    0    0  501    0  0.00000000000E+00 -0.00000000000E+00 -0.20714494293E+04  0.20714494293E+04  0.00000000000E+00 0. -1.
         23    2    1    2    0    0 -0.14847641389E+03  0.29232716255E+03 -0.55568110749E+03  0.65179579649E+03  0.92497846772E+02 0.  0.
        254    2    1    2    0    0  0.14847641389E+03 -0.29232716255E+03 -0.13138301845E+04  0.16215917702E+04  0.89213771361E+03 0.  0.
         23    2    4    4    0    0 -0.26103968312E+03 -0.24408486488E+02 -0.98944647073E+03  0.10276646521E+04  0.91393809286E+02 0.  0.
         23    2    4    4    0    0  0.40951609701E+03 -0.26791867606E+03 -0.32438371375E+03  0.59392711809E+03  0.89670380598E+02 0.  0.
          1    1    3    3  502    0  0.19800006880E+01 -0.26471157460E+01 -0.32253028798E+02  0.32421990857E+02  0.00000000000E+00 0. -1.
         -1    1    3    3    0  502 -0.15045641458E+03  0.29497427829E+03 -0.52342807869E+03  0.61937380563E+03  0.00000000000E+00 0.  1.
         11    1    5    5    0    0 -0.18369624871E+03 -0.58344620746E+02 -0.66037901890E+03  0.68793085057E+03  0.00000000000E+00 0.  1.
        -11    1    5    5    0    0 -0.77343434411E+02  0.33936134258E+02 -0.32906745183E+03  0.33973380154E+03  0.00000000000E+00 0. -1.
          2    1    6    6  503    0  0.15013851475E+03 -0.14830407625E+03 -0.15511017489E+03  0.26190616449E+03  0.00000000000E+00 0. -1.
         -2    1    6    6    0  503  0.25937758226E+03 -0.11961459981E+03 -0.16927353886E+03  0.33202095360E+03  0.00000000000E+00 0.  1.
<mgrwt>
<rscale>  0 0.12935295E+04</rscale>
<asrwt>0</asrwt>
<pdfrwt beam="1">  1        1 0.31868452E+00 0.12935295E+04</pdfrwt>
<pdfrwt beam="2">  1       -1 0.31067406E-01 0.12935295E+04</pdfrwt>
<totfact> 0.25175803E+01</totfact>
</mgrwt>
</event>
<event>
12    2  0.3518828E-008  0.1427557E+04  0.7818608E-02  0.8934110E-01
          2   -1    0    0  501    0  0.00000000000E+00  0.00000000000E+00  0.15725630091E+04  0.15725630091E+04  0.00000000000E+00 0. -1.
         -2   -1    0    0    0  501 -0.00000000000E+00 -0.00000000000E+00 -0.32398044215E+03  0.32398044215E+03  0.00000000000E+00 0.  1.
         23    2    1    2    0    0 -0.13078971685E+03  0.93302254157E+02 -0.17911291159E+03  0.25720952747E+03  0.90906794342E+02 0.  0.
        254    2    1    2    0    0  0.13078971685E+03 -0.93302254157E+02  0.14276954786E+04  0.16393339238E+04  0.78948722192E+03 0.  0.
         23    2    4    4    0    0  0.32030111567E+03  0.21538093070E+03  0.49287874994E+03  0.63258843771E+03  0.90867592577E+02 0.  0.
         23    2    4    4    0    0 -0.18951139882E+03 -0.30868318486E+03  0.93481672861E+03  0.10067454861E+04  0.91947151981E+02 0.  0.
          2    1    3    3  502    0  0.93663643829E+01  0.26438178974E+02 -0.17386817465E+02  0.33000113800E+02  0.00000000000E+00 0. -1.
         -2    1    3    3    0  502 -0.14015608123E+03  0.66864075183E+02 -0.16172609412E+03  0.22420941367E+03  0.00000000000E+00 0.  1.
         11    1    5    5    0    0  0.39366815211E+02  0.46591854256E+02  0.37740884167E+02  0.71728107187E+02  0.00000000000E+00 0. -1.
        -11    1    5    5    0    0  0.28093430046E+03  0.16878907645E+03  0.45513786577E+03  0.56086033053E+03  0.00000000000E+00 0.  1.
          1    1    6    6  503    0 -0.15642400672E+03 -0.25889815252E+03  0.85566770066E+03  0.90755932986E+03  0.00000000000E+00 0. -1.
         -1    1    6    6    0  503 -0.33087392101E+02 -0.49785032341E+02  0.79149027949E+02  0.99186156224E+02  0.00000000000E+00 0.  1.
<mgrwt>
<rscale>  0 0.14275569E+04</rscale>
<asrwt>0</asrwt>
<pdfrwt beam="1">  1        2 0.24193277E+00 0.14275569E+04</pdfrwt>
<pdfrwt beam="2">  1       -2 0.49843146E-01 0.14275569E+04</pdfrwt>
<totfact> 0.42735997E+01</totfact>
</mgrwt>
</event>
<event>
12    2  0.3518828E-008  0.2429080E+04  0.7818608E-02  0.8428696E-01
          2   -1    0    0  501    0  0.00000000000E+00  0.00000000000E+00  0.46071274942E+04  0.46071274942E+04  0.00000000000E+00 0. -1.
         -2   -1    0    0    0  501 -0.00000000000E+00 -0.00000000000E+00 -0.32017944064E+03  0.32017944064E+03  0.00000000000E+00 0.  1.
         23    2    1    2    0    0 -0.73058318796E+03 -0.20481606654E+03  0.39590080283E+03  0.86048812542E+03  0.89448044483E+02 0.  0.
        254    2    1    2    0    0  0.73058318796E+03  0.20481606654E+03  0.38910472507E+04  0.40668188094E+04  0.90722935667E+03 0.  0.
         23    2    4    4    0    0  0.27622582453E+03 -0.31384745093E+03  0.91153747894E+03  0.10072257453E+04  0.93820028974E+02 0.  0.
         23    2    4    4    0    0  0.45435736343E+03  0.51866351747E+03  0.29795097717E+04  0.30595930641E+04  0.90436607286E+02 0.  0.
          3    1    3    3  502    0 -0.83607721121E+02 -0.50602526091E+02  0.35199639509E+02  0.10387435342E+03  0.00000000000E+00 0. -1.
         -3    1    3    3    0  502 -0.64697546684E+03 -0.15421354045E+03  0.36070116332E+03  0.75661377200E+03  0.00000000000E+00 0.  1.
         11    1    5    5    0    0  0.17999849581E+03 -0.18491629438E+03  0.65980721217E+03  0.70847657100E+03  0.00000000000E+00 0. -1.
        -11    1    5    5    0    0  0.96227328718E+02 -0.12893115655E+03  0.25173026677E+03  0.29874917428E+03  0.00000000000E+00 0.  1.
          2    1    6    6  503    0  0.41922474301E+03  0.43584215239E+03  0.25441075094E+04  0.26149934582E+04  0.00000000000E+00 0. -1.
         -2    1    6    6    0  503  0.35132620423E+02  0.82821365086E+02  0.43540226235E+03  0.44459960593E+03  0.00000000000E+00 0.  1.
<mgrwt>
<rscale>  0 0.24290801E+04</rscale>
<asrwt>0</asrwt>
<pdfrwt beam="1">  1        2 0.70878880E+00 0.24290801E+04</pdfrwt>
<pdfrwt beam="2">  1       -2 0.49258379E-01 0.24290801E+04</pdfrwt>
<totfact> 0.33899417E-01</totfact>
</mgrwt>
</event>
<event>
12    2  0.3518828E-008  0.1777379E+04  0.7818608E-02  0.8718422E-01
          1   -1    0    0  501    0  0.00000000000E+00  0.00000000000E+00  0.21555434494E+04  0.21555434494E+04  0.00000000000E+00 0. -1.
         -1   -1    0    0    0  501 -0.00000000000E+00 -0.00000000000E+00 -0.36638972786E+03  0.36638972786E+03  0.00000000000E+00 0.  1.
         23    2    1    2    0    0  0.29869186307E+03 -0.15862460260E+03  0.14662740613E+04  0.15079019344E+04  0.97108327486E+02 0.  0.
        254    2    1    2    0    0 -0.29869186307E+03  0.15862460260E+03  0.32287966014E+03  0.10140312428E+04  0.89979413912E+03 0.  0.
         23    2    4    4    0    0 -0.54948034811E+03 -0.85530997311E+02  0.32792641676E+03  0.65188771269E+03  0.90430363770E+02 0.  0.
         23    2    4    4    0    0  0.25078848504E+03  0.24415559991E+03 -0.50467566225E+01  0.36214353009E+03  0.92820501142E+02 0.  0.
          1    1    3    3  502    0  0.23930369793E+02 -0.35439483742E+02  0.31552973601E+03  0.31841424891E+03  0.00000000000E+00 0. -1.
         -1    1    3    3    0  502  0.27476149328E+03 -0.12318511886E+03  0.11507443253E+04  0.11894876855E+04  0.00000000000E+00 0.  1.
         11    1    5    5    0    0 -0.42331257156E+03 -0.66577125860E+02  0.29462784130E+03  0.52003039507E+03  0.00000000000E+00 0. -1.
        -11    1    5    5    0    0 -0.12616777655E+03 -0.18953871451E+02  0.33298575456E+02  0.13185731762E+03  0.00000000000E+00 0.  1.
          1    1    6    6  503    0  0.24497829027E+03  0.22432995697E+03  0.16123581341E+02  0.33256317020E+03  0.00000000000E+00 0. -1.
         -1    1    6    6    0  503  0.58101947680E+01  0.19825642942E+02 -0.21170337964E+02  0.29580359883E+02  0.00000000000E+00 0.  1.
<mgrwt>
<rscale>  0 0.17773789E+04</rscale>
<asrwt>0</asrwt>
<pdfrwt beam="1">  1        1 0.33162206E+00 0.17773789E+04</pdfrwt>
<pdfrwt beam="2">  1       -1 0.56367652E-01 0.17773789E+04</pdfrwt>
<totfact> 0.70365928E+00</totfact>
</mgrwt>
</event>
<event>
12    2  0.3518828E-008  0.1309414E+04  0.7818608E-02  0.9022133E-01
         -1   -1    0    0    0  501 -0.00000000000E+00  0.00000000000E+00  0.12625025011E+03  0.12625025011E+03  0.00000000000E+00 0.  1.
          1   -1    0    0  501    0  0.00000000000E+00 -0.00000000000E+00 -0.33951739148E+04  0.33951739148E+04  0.00000000000E+00 0. -1.
         23    2    1    2    0    0  0.12660091563E+03  0.29806046520E+03 -0.68240212132E+03  0.76065126213E+03  0.89720982180E+02 0.  0.
        254    2    1    2    0    0 -0.12660091563E+03 -0.29806046520E+03 -0.25865215434E+04  0.27607729028E+04  0.90934344097E+03 0.  0.
         23    2    4    4    0    0 -0.10871375369E+03 -0.61284043069E+03 -0.18639254862E+04  0.19677252370E+04  0.10164800273E+03 0.  0.
         23    2    4    4    0    0 -0.17887161941E+02  0.31477996549E+03 -0.72259605719E+03  0.79304766580E+03  0.85867113215E+02 0.  0.
          3    1    3    3  502    0  0.32881223265E+02  0.78544183304E+02 -0.28128393768E+03  0.29388946420E+03  0.00000000000E+00 0. -1.
         -3    1    3    3    0  502  0.93719692367E+02  0.21951628190E+03 -0.40111818365E+03  0.46676179793E+03  0.00000000000E+00 0.  1.
         11    1    5    5    0    0  0.48441081500E+01 -0.89866242959E+02 -0.18803807547E+03  0.20846516455E+03  0.00000000000E+00 0.  1.
        -11    1    5    5    0    0 -0.11355786184E+03 -0.52297418773E+03 -0.16758874107E+04  0.17592600724E+04  0.00000000000E+00 0. -1.
          2    1    6    6  503    0 -0.29215198176E+02  0.31399405016E+03 -0.70026521029E+03  0.76799554431E+03  0.00000000000E+00 0. -1.
         -2    1    6    6    0  503  0.11328036235E+02  0.78591532684E+00 -0.22330846898E+02  0.25052121487E+02  0.00000000000E+00 0.  1.
<mgrwt>
<rscale>  0 0.13094145E+04</rscale>
<asrwt>0</asrwt>
<pdfrwt beam="1">  1        1 0.52233450E+00 0.13094145E+04</pdfrwt>
<pdfrwt beam="2">  1       -1 0.19423114E-01 0.13094145E+04</pdfrwt>
<totfact> 0.64660197E+00</totfact>
</mgrwt>
</event>
<event>
12    2  0.3518828E-008  0.1735331E+04  0.7818608E-02  0.8741467E-01
          2   -1    0    0  501    0  0.00000000000E+00  0.00000000000E+00  0.72306842175E+03  0.72306842175E+03  0.00000000000E+00 0. -1.
         -2   -1    0    0    0  501 -0.00000000000E+00 -0.00000000000E+00 -0.10411782042E+04  0.10411782042E+04  0.00000000000E+00 0.  1.
         23    2    1    2    0    0  0.44895720420E+03 -0.37871086297E+03 -0.35008851464E+03  0.68987599188E+03  0.91555595987E+02 0.  0.
        254    2    1    2    0    0 -0.44895720420E+03  0.37871086297E+03  0.31978732171E+02  0.10743706341E+04  0.89903566733E+03 0.  0.
         23    2    4    4    0    0 -0.49242394652E+03  0.32672784572E+03  0.37969292721E+03  0.70821700114E+03  0.90400074427E+02 0.  0.
         23    2    4    4    0    0  0.43466742313E+02  0.51983017246E+02 -0.34771419504E+03  0.36615363294E+03  0.92583636349E+02 0.  0.
          1    1    3    3  502    0  0.43222604564E+03 -0.33756991046E+03 -0.30962297838E+03  0.62979297211E+03  0.00000000000E+00 0. -1.
         -1    1    3    3    0  502  0.16731158561E+02 -0.41140952509E+02 -0.40465536257E+02  0.60083019770E+02  0.00000000000E+00 0.  1.
         11    1    5    5    0    0 -0.35362048952E+03  0.22633271149E+03  0.21989025432E+03  0.47394690720E+03  0.00000000000E+00 0. -1.
        -11    1    5    5    0    0 -0.13880345700E+03  0.10039513423E+03  0.15980267289E+03  0.23427009394E+03  0.00000000000E+00 0.  1.
          1    1    6    6  503    0  0.70748149027E+02  0.30077658522E+02 -0.27361532241E+03  0.28420997658E+03  0.00000000000E+00 0. -1.
         -1    1    6    6    0  503 -0.27281406714E+02  0.21905358724E+02 -0.74098872629E+02  0.81943656363E+02  0.00000000000E+00 0.  1.
<mgrwt>
<rscale>  0 0.17353306E+04</rscale>
<asrwt>0</asrwt>
<pdfrwt beam="1">  1        2 0.11124130E+00 0.17353306E+04</pdfrwt>
<pdfrwt beam="2">  1       -2 0.16018126E+00 0.17353306E+04</pdfrwt>
<totfact> 0.93621651E+00</totfact>
</mgrwt>
</event>
<event>
12    2  0.3518828E-008  0.2206371E+04  0.7818608E-02  0.8515781E-01
          2   -1    0    0  501    0  0.00000000000E+00  0.00000000000E+00  0.18622445551E+04  0.18622445551E+04  0.00000000000E+00 0. -1.
         -2   -1    0    0    0  501 -0.00000000000E+00 -0.00000000000E+00 -0.65352224506E+03  0.65352224506E+03  0.00000000000E+00 0.  1.
         23    2    1    2    0    0  0.10231528682E+02  0.10665944534E+03  0.15526087778E+04  0.15589875061E+04  0.91471886157E+02 0.  0.
        254    2    1    2    0    0 -0.10231528682E+02 -0.10665944534E+03 -0.34388646771E+03  0.95677929407E+03  0.88639031664E+03 0.  0.
         23    2    4    4    0    0 -0.32204908900E+03  0.21927937795E+03 -0.29176495035E+03  0.49375762526E+03  0.82889956746E+02 0.  0.
         23    2    4    4    0    0  0.31181756032E+03 -0.32593882329E+03 -0.52121517362E+02  0.46302166882E+03  0.90587558584E+02 0.  0.
          2    1    3    3  502    0 -0.10747865224E+02  0.11034776895E+03  0.14476315096E+04  0.14518709083E+04  0.00000000000E+00 0. -1.
         -2    1    3    3    0  502  0.20979393906E+02 -0.36883236075E+01  0.10497726815E+03  0.10711659782E+03  0.00000000000E+00 0.  1.
         11    1    5    5    0    0 -0.77131556997E+02  0.98751475465E+02 -0.87780883171E+02  0.15299220386E+03  0.00000000000E+00 0. -1.
        -11    1    5    5    0    0 -0.24491753200E+03  0.12052790249E+03 -0.20398406717E+03  0.34076542140E+03  0.00000000000E+00 0.  1.
          1    1    6    6  503    0  0.18012931732E+03 -0.23373276414E+03 -0.36443036889E+01  0.29511160082E+03  0.00000000000E+00 0. -1.
         -1    1    6    6    0  503  0.13168824300E+03 -0.92206059151E+02 -0.48477213673E+02  0.16791006799E+03  0.00000000000E+00 0.  1.
<mgrwt>
<rscale>  0 0.22063710E+04</rscale>
<asrwt>0</asrwt>
<pdfrwt beam="1">  1        2 0.28649916E+00 0.22063710E+04</pdfrwt>
<pdfrwt beam="2">  1       -2 0.10054189E+00 0.22063710E+04</pdfrwt>
<totfact> 0.59365725E+00</totfact>
</mgrwt>
</event>
<event>
12    2  0.3518828E-008  0.1968506E+04  0.7818608E-02  0.8621488E-01
         -1   -1    0    0    0  501 -0.00000000000E+00  0.00000000000E+00  0.39078959352E+03  0.39078959352E+03  0.00000000000E+00 0.  1.
          1   -1    0    0  501    0  0.00000000000E+00 -0.00000000000E+00 -0.24789655756E+04  0.24789655756E+04  0.00000000000E+00 0. -1.
         23    2    1    2    0    0  0.63041876771E+03 -0.42059685851E+03 -0.57312802750E+03  0.95455391750E+03  0.91476256141E+02 0.  0.
        254    2    1    2    0    0 -0.63041876771E+03  0.42059685851E+03 -0.15150479546E+04  0.19152012516E+04  0.89347411238E+03 0.  0.
         23    2    4    4    0    0 -0.59963527536E+03  0.38733904663E+03 -0.16176679531E+04  0.17706040687E+04  0.92710090674E+02 0.  0.
         23    2    4    4    0    0 -0.30783492348E+02  0.33257811879E+02  0.10261999852E+03  0.14459718298E+03  0.91234729007E+02 0.  0.
          1    1    3    3  502    0  0.46564361746E+03 -0.32970556898E+03 -0.47458566080E+03  0.74213293292E+03  0.00000000000E+00 0. -1.
         -1    1    3    3    0  502  0.16477515025E+03 -0.90891289533E+02 -0.98542366705E+02  0.21242098457E+03  0.00000000000E+00 0.  1.
         11    1    5    5    0    0 -0.19277772348E+02  0.35994596955E+01 -0.87736170464E+02  0.89901191453E+02  0.00000000000E+00 0. -1.
        -11    1    5    5    0    0 -0.58035750301E+03  0.38373958694E+03 -0.15299317826E+04  0.16807028772E+04  0.00000000000E+00 0.  1.
          1    1    6    6  503    0  0.89213047117E+01  0.55238575999E+02  0.49264069715E+02  0.74550912275E+02  0.00000000000E+00 0. -1.
         -1    1    6    6    0  503 -0.39704797060E+02 -0.21980764120E+02  0.53355928806E+02  0.70046270705E+02  0.00000000000E+00 0.  1.
<mgrwt>
<rscale>  0 0.19685060E+04</rscale>
<asrwt>0</asrwt>
<pdfrwt beam="1">  1        1 0.38137933E+00 0.19685060E+04</pdfrwt>
<pdfrwt beam="2">  1       -1 0.60121475E-01 0.19685060E+04</pdfrwt>
<totfact> 0.36576864E+00</totfact>
</mgrwt>
</event>
<event>
12    2  0.3518828E-008  0.1196236E+04  0.7818608E-02  0.9116157E-01
         -2   -1    0    0    0  501 -0.00000000000E+00  0.00000000000E+00  0.34962650249E+03  0.34962650249E+03  0.00000000000E+00 0.  1.
          2   -1    0    0  501    0  0.00000000000E+00 -0.00000000000E+00 -0.10232212210E+04  0.10232212210E+04  0.00000000000E+00 0. -1.
         23    2    1    2    0    0 -0.18370892224E+03  0.77629656944E+02  0.14957050170E+02  0.22011731587E+03  0.91937955419E+02 0.  0.
        254    2    1    2    0    0  0.18370892224E+03 -0.77629656944E+02 -0.68855176870E+03  0.11527304077E+04  0.90272283830E+03 0.  0.
         23    2    4    4    0    0  0.19482264695E+02 -0.44958031778E+03 -0.17468566219E+03  0.49087381830E+03  0.89106700882E+02 0.  0.
         23    2    4    4    0    0  0.16422665755E+03  0.37195066083E+03 -0.51386610651E+03  0.66185658936E+03  0.93156214542E+02 0.  0.
          1    1    3    3  502    0 -0.84710748579E+02 -0.91492935281E+01 -0.11074779532E+02  0.85920144545E+02  0.00000000000E+00 0. -1.
         -1    1    3    3    0  502 -0.98998173665E+02  0.86778950472E+02  0.26031829702E+02  0.13419717133E+03  0.00000000000E+00 0.  1.
         11    1    5    5    0    0  0.20002163167E+02 -0.24114792575E+03 -0.14005022418E+03  0.27958267814E+03  0.00000000000E+00 0.  1.
        -11    1    5    5    0    0 -0.51989847115E+00 -0.20843239203E+03 -0.34635438013E+02  0.21129114015E+03  0.00000000000E+00 0. -1.
          3    1    6    6  503    0  0.17019299019E+03  0.35706419183E+03 -0.46528538304E+03  0.61069712515E+03  0.00000000000E+00 0. -1.
         -3    1    6    6    0  503 -0.59663326400E+01  0.14886469001E+02 -0.48580723474E+02  0.51159464205E+02  0.00000000000E+00 0.  1.
<mgrwt>
<rscale>  0 0.11962362E+04</rscale>
<asrwt>0</asrwt>
<pdfrwt beam="1">  1        2 0.15741865E+00 0.11962362E+04</pdfrwt>
<pdfrwt beam="2">  1       -2 0.53788692E-01 0.11962362E+04</pdfrwt>
<totfact> 0.78220928E+01</totfact>
</mgrwt>
</event>
<event>
12    2  0.3518828E-008  0.2095716E+04  0.7818608E-02  0.8563133E-01
          2   -1    0    0  501    0  0.00000000000E+00  0.00000000000E+00  0.32722972867E+04  0.32722972867E+04  0.00000000000E+00 0.  1.
         -2   -1    0    0    0  501 -0.00000000000E+00 -0.00000000000E+00 -0.33554593356E+03  0.33554593356E+03  0.00000000000E+00 0. -1.
         23    2    1    2    0    0  0.54269704342E+03 -0.21637408617E+03  0.21019304426E+04  0.21836998969E+04  0.95372050836E+02 0.  0.
        254    2    1    2    0    0 -0.54269704342E+03  0.21637408617E+03  0.83482091053E+03  0.14241433234E+04  0.99494744922E+03 0.  0.
         23    2    4    4    0    0 -0.72876775134E+03  0.39043712289E+03  0.79573829998E+03  0.11508768915E+04  0.88173663617E+02 0.  0.
         23    2    4    4    0    0  0.18607070792E+03 -0.17406303672E+03  0.39082610545E+02  0.27326643188E+03  0.90701947325E+02 0.  0.
          4    1    3    3  502    0  0.22957574296E+03 -0.42066547271E+02  0.85744943509E+03  0.88864737095E+03  0.00000000000E+00 0. -1.
         -4    1    3    3    0  502  0.31312130046E+03 -0.17430753890E+03  0.12444810075E+04  0.12950525260E+04  0.00000000000E+00 0.  1.
         11    1    5    5    0    0 -0.58588844531E+02  0.42426943591E+02  0.40646161716E+02  0.82974747413E+02  0.00000000000E+00 0.  1.
        -11    1    5    5    0    0 -0.67017890681E+03  0.34801017930E+03  0.75509213827E+03  0.10679021441E+04  0.00000000000E+00 0. -1.
          4    1    6    6  503    0  0.15684941667E+03 -0.11271712575E+03 -0.33074263784E+01  0.19317823122E+03  0.00000000000E+00 0. -1.
         -4    1    6    6    0  503  0.29221291248E+02 -0.61345910973E+02  0.42390036923E+02  0.80088200664E+02  0.00000000000E+00 0.  1.
<mgrwt>
<rscale>  0 0.20957157E+04</rscale>
<asrwt>0</asrwt>
<pdfrwt beam="1">  1        2 0.50343033E+00 0.20957157E+04</pdfrwt>
<pdfrwt beam="2">  1       -2 0.51622454E-01 0.20957157E+04</pdfrwt>
<totfact> 0.38094483E+00</totfact>
</mgrwt>
</event>
<event>
12    2  0.4921729E-008  0.2006906E+04  0.7818608E-02  0.8603399E-01
          1   -1    0    0  501    0  0.00000000000E+00  0.00000000000E+00  0.22497869550E+04  0.22497869550E+04  0.00000000000E+00 0. -1.
         -1   -1    0    0    0  501 -0.00000000000E+00 -0.00000000000E+00 -0.44756157067E+03  0.44756157067E+03  0.00000000000E+00 0.  1.
         23    2    1    2    0    0 -0.31678774745E+02  0.51925171539E+02  0.17636022984E+04  0.17671689223E+04  0.94303578185E+02 0.  0.
        254    2    1    2    0    0  0.31678774745E+02 -0.51925171539E+02  0.38623085948E+02  0.93017960338E+03  0.92738480879E+03 0.  0.
         23    2    4    4    0    0 -0.77589235139E+02 -0.25567982997E+03 -0.36106219689E+03  0.45951287060E+03  0.96922151012E+02 0.  0.
         23    2    4    4    0    0  0.10926800988E+03  0.20375465843E+03  0.39968528284E+03  0.47066673278E+03  0.91232610470E+02 0.  0.
          1    1    3    3  502    0  0.79629432831E+01  0.20970809819E+02  0.13917360527E+04  0.13919168164E+04  0.00000000000E+00 0. -1.
         -1    1    3    3    0  502 -0.39641718028E+02  0.30954361719E+02  0.37186624568E+03  0.37525210591E+03  0.00000000000E+00 0.  1.
         11    1    5    5    0    0 -0.48762008621E+02 -0.10367887062E+03 -0.83592968619E+02  0.14182674677E+03  0.00000000000E+00 0. -1.
        -11    1    5    5    0    0 -0.28827226517E+02 -0.15200095936E+03 -0.27746922827E+03  0.31768612383E+03  0.00000000000E+00 0.  1.
          2    1    6    6  503    0  0.82955373392E+02  0.85993654238E+02  0.13824736241E+03  0.18272612226E+03  0.00000000000E+00 0. -1.
         -2    1    6    6    0  503  0.26312636492E+02  0.11776100420E+03  0.26143792043E+03  0.28794061052E+03  0.00000000000E+00 0.  1.
<mgrwt>
<rscale>  0 0.20069063E+04</rscale>
<asrwt>0</asrwt>
<pdfrwt beam="1">  1        1 0.34612106E+00 0.20069063E+04</pdfrwt>
<pdfrwt beam="2">  1       -1 0.68855628E-01 0.20069063E+04</pdfrwt>
<totfact> 0.39863558E+00</totfact>
</mgrwt>
</event>
<event>
12    2  0.3518828E-008  0.1772449E+04  0.7818608E-02  0.8721090E-01
          2   -1    0    0  501    0  0.00000000000E+00  0.00000000000E+00  0.11627209294E+04  0.11627209294E+04  0.00000000000E+00 0.  1.
         -2   -1    0    0    0  501 -0.00000000000E+00 -0.00000000000E+00 -0.67547906282E+03  0.67547906282E+03  0.00000000000E+00 0. -1.
         23    2    1    2    0    0  0.38363195551E+03  0.30947584795E+03 -0.27387264198E+03  0.57142060096E+03  0.92555396467E+02 0.  0.
        254    2    1    2    0    0 -0.38363195551E+03 -0.30947584795E+03  0.76111450860E+03  0.12667793913E+04  0.88458236093E+03 0.  0.
         23    2    4    4    0    0 -0.11500321699E+03  0.30217230261E+03  0.20923398351E+03  0.39627118721E+03  0.93371053209E+02 0.  0.
         23    2    4    4    0    0 -0.26862873852E+03 -0.61164815056E+03  0.55188052509E+03  0.87050820409E+03  0.83292017437E+02 0.  0.
          1    1    3    3  502    0  0.35625151697E+03  0.26907264712E+03 -0.27157589465E+03  0.52255975671E+03  0.00000000000E+00 0. -1.
         -1    1    3    3    0  502  0.27380438536E+02  0.40403200836E+02 -0.22967473253E+01  0.48860844247E+02  0.00000000000E+00 0.  1.
         11    1    5    5    0    0  0.14162212145E+02  0.64230038724E+02  0.39352878881E+02  0.76646690754E+02  0.00000000000E+00 0. -1.
        -11    1    5    5    0    0 -0.12916542913E+03  0.23794226388E+03  0.16988110463E+03  0.31962449646E+03  0.00000000000E+00 0.  1.
          1    1    6    6  503    0 -0.11673474157E+03 -0.19413435548E+03  0.22172363389E+03  0.31698031120E+03  0.00000000000E+00 0. -1.
         -1    1    6    6    0  503 -0.15189399695E+03 -0.41751379508E+03  0.33015689120E+03  0.55352789288E+03  0.00000000000E+00 0.  1.
<mgrwt>
<rscale>  0 0.17724488E+04</rscale>
<asrwt>0</asrwt>
<pdfrwt beam="1">  1        2 0.17888014E+00 0.17724488E+04</pdfrwt>
<pdfrwt beam="2">  1       -2 0.10391986E+00 0.17724488E+04</pdfrwt>
<totfact> 0.14222655E+01</totfact>
</mgrwt>
</event>
<event>
12    2  0.3518828E-008  0.1614968E+04  0.7818608E-02  0.8811405E-01
          2   -1    0    0  501    0  0.00000000000E+00  0.00000000000E+00  0.13662571085E+04  0.13662571085E+04  0.00000000000E+00 0.  1.
         -2   -1    0    0    0  501 -0.00000000000E+00 -0.00000000000E+00 -0.47723830102E+03  0.47723830102E+03  0.00000000000E+00 0. -1.
         23    2    1    2    0    0 -0.49536871333E+03 -0.17501190784E+03  0.47851164322E+03  0.71629561272E+03  0.89925981086E+02 0.  0.
        254    2    1    2    0    0  0.49536871333E+03  0.17501190784E+03  0.41050716428E+03  0.11271997968E+04  0.90886958360E+03 0.  0.
         23    2    4    4    0    0  0.31070239392E+03  0.18858459891E+03 -0.23969186520E+03  0.44501195905E+03  0.92104966845E+02 0.  0.
         23    2    4    4    0    0  0.18466631941E+03 -0.13572691062E+02  0.65019902948E+03  0.68218783778E+03  0.91299510435E+02 0.  0.
          2    1    3    3  502    0 -0.49342302644E+03 -0.18021349597E+03  0.47875218328E+03  0.71073682904E+03  0.00000000000E+00 0. -1.
         -2    1    3    3    0  502 -0.19456868911E+01  0.52015881264E+01 -0.24054006688E+00  0.55587836834E+01  0.00000000000E+00 0.  1.
         11    1    5    5    0    0  0.10819080111E+03  0.91881291709E+02 -0.14027570640E+03  0.19956125630E+03  0.00000000000E+00 0. -1.
        -11    1    5    5    0    0  0.20251159281E+03  0.96703307197E+02 -0.99416158797E+02  0.24545070274E+03  0.00000000000E+00 0.  1.
          3    1    6    6  503    0  0.10526363197E+03  0.27667038311E+02  0.25999036136E+03  0.28185259486E+03  0.00000000000E+00 0. -1.
         -3    1    6    6    0  503  0.79402687441E+02 -0.41239729373E+02  0.39020866812E+03  0.40033524292E+03  0.00000000000E+00 0.  1.
<mgrwt>
<rscale>  0 0.16149678E+04</rscale>
<asrwt>0</asrwt>
<pdfrwt beam="1">  1        2 0.21019340E+00 0.16149678E+04</pdfrwt>
<pdfrwt beam="2">  1       -2 0.73421278E-01 0.16149678E+04</pdfrwt>
<totfact> 0.24259694E+01</totfact>
</mgrwt>
</event>
<event>
12    2  0.3518828E-008  0.1449934E+04  0.7818608E-02  0.8918446E-01
          2   -1    0    0  501    0  0.00000000000E+00  0.00000000000E+00  0.17762359555E+04  0.17762359555E+04  0.00000000000E+00 0. -1.
         -2   -1    0    0    0  501 -0.00000000000E+00 -0.00000000000E+00 -0.29589395112E+03  0.29589395112E+03  0.00000000000E+00 0.  1.
         23    2    1    2    0    0  0.14788231197E+03 -0.23810103456E+03  0.93728218686E+03  0.98252095354E+03  0.91039801599E+02 0.  0.
        254    2    1    2    0    0 -0.14788231197E+03  0.23810103456E+03  0.54305981747E+03  0.10896089530E+04  0.90209335677E+03 0.  0.
         23    2    4    4    0    0 -0.43320493695E+03 -0.56830529079E+02  0.49377903736E+03  0.66602407926E+03  0.94202494570E+02 0.  0.
         23    2    4    4    0    0  0.28532262498E+03  0.29493156364E+03  0.49280780113E+02  0.42358487378E+03  0.92746549505E+02 0.  0.
          3    1    3    3  502    0  0.13417039175E+03 -0.14798461783E+03  0.56604779841E+03  0.60025931998E+03  0.00000000000E+00 0. -1.
         -3    1    3    3    0  502  0.13711920223E+02 -0.90116416730E+02  0.37123438845E+03  0.38226163356E+03  0.00000000000E+00 0.  1.
         11    1    5    5    0    0 -0.33467193584E+02 -0.13733066381E+02  0.86344666783E+02  0.93616513716E+02  0.00000000000E+00 0. -1.
        -11    1    5    5    0    0 -0.39973774337E+03 -0.43097462699E+02  0.40743437057E+03  0.57240756554E+03  0.00000000000E+00 0.  1.
          4    1    6    6  503    0  0.17474355705E+02 -0.30750116022E+01 -0.67805979397E+01  0.18994349477E+02  0.00000000000E+00 0. -1.
         -4    1    6    6    0  503  0.26784826928E+03  0.29800657525E+03  0.56061378052E+02  0.40459052430E+03  0.00000000000E+00 0.  1.
<mgrwt>
<rscale>  0 0.14499344E+04</rscale>
<asrwt>0</asrwt>
<pdfrwt beam="1">  1        2 0.27326706E+00 0.14499344E+04</pdfrwt>
<pdfrwt beam="2">  1       -2 0.45522147E-01 0.14499344E+04</pdfrwt>
<totfact> 0.39473210E+01</totfact>
</mgrwt>
</event>
<event>
12    2  0.3518828E-008  0.1939129E+04  0.7818608E-02  0.8635621E-01
          2   -1    0    0  501    0  0.00000000000E+00  0.00000000000E+00  0.17887433407E+04  0.17887433407E+04  0.00000000000E+00 0. -1.
         -2   -1    0    0    0  501 -0.00000000000E+00 -0.00000000000E+00 -0.52553975740E+03  0.52553975740E+03  0.00000000000E+00 0.  1.
         23    2    1    2    0    0 -0.65514463037E+03  0.37022663373E+03  0.40584649346E+03  0.85983827456E+03  0.91259164521E+02 0.  0.
        254    2    1    2    0    0  0.65514463037E+03 -0.37022663373E+03  0.85735708987E+03  0.14544448236E+04  0.90225623759E+03 0.  0.
         23    2    4    4    0    0  0.36556604081E+03  0.26394386070E+03  0.44006612023E+03  0.63672126505E+03  0.91928708219E+02 0.  0.
         23    2    4    4    0    0  0.28957858955E+03 -0.63417049444E+03  0.41729096964E+03  0.81772355853E+03  0.92260984672E+02 0.  0.
          3    1    3    3  502    0 -0.52339660331E+03  0.29658964717E+03  0.28107659658E+03  0.66401315974E+03  0.00000000000E+00 0. -1.
         -3    1    3    3    0  502 -0.13174802706E+03  0.73636986560E+02  0.12476989688E+03  0.19582511482E+03  0.00000000000E+00 0.  1.
         11    1    5    5    0    0  0.29045089772E+03  0.25035917889E+03  0.35718826268E+03  0.52404665578E+03  0.00000000000E+00 0.  1.
        -11    1    5    5    0    0  0.75115143096E+02  0.13584681817E+02  0.82877857549E+02  0.11267460927E+03  0.00000000000E+00 0. -1.
          3    1    6    6  503    0  0.13071325060E+03 -0.18354134642E+03  0.13996427338E+03  0.26526096123E+03  0.00000000000E+00 0. -1.
         -3    1    6    6    0  503  0.15886533896E+03 -0.45062914801E+03  0.27732669625E+03  0.55246259730E+03  0.00000000000E+00 0.  1.
<mgrwt>
<rscale>  0 0.19391294E+04</rscale>
<asrwt>0</asrwt>
<pdfrwt beam="1">  1        2 0.27519128E+00 0.19391294E+04</pdfrwt>
<pdfrwt beam="2">  1       -2 0.80852271E-01 0.19391294E+04</pdfrwt>
<totfact> 0.11029927E+01</totfact>
</mgrwt>
</event>
<event>
12    2  0.3518828E-008  0.1358512E+04  0.7818608E-02  0.8984409E-01
          1   -1    0    0  501    0  0.00000000000E+00  0.00000000000E+00  0.10924906888E+04  0.10924906888E+04  0.00000000000E+00 0. -1.
         -1   -1    0    0    0  501 -0.00000000000E+00 -0.00000000000E+00 -0.42232744832E+03  0.42232744832E+03  0.00000000000E+00 0.  1.
         23    2    1    2    0    0 -0.31510493633E+02  0.25529564804E+03  0.46334079771E+03  0.53767166393E+03  0.90759816327E+02 0.  0.
        254    2    1    2    0    0  0.31510493633E+02 -0.25529564804E+03  0.20682244278E+03  0.97714647319E+03  0.91971241598E+03 0.  0.
         23    2    4    4    0    0 -0.37377351766E+02 -0.48062451211E+03 -0.17358851908E+03  0.52053628770E+03  0.91804492199E+02 0.  0.
         23    2    4    4    0    0  0.68887845399E+02  0.22532886407E+03  0.38041096186E+03  0.45661018549E+03  0.90894055729E+02 0.  0.
          3    1    3    3  502    0 -0.56469262779E+02  0.22766085495E+03  0.38295513690E+03  0.44908003673E+03  0.00000000000E+00 0. -1.
         -3    1    3    3    0  502  0.24958769146E+02  0.27634793092E+02  0.80385660807E+02  0.88591627200E+02  0.00000000000E+00 0.  1.
         11    1    5    5    0    0 -0.65372596774E+02 -0.36790683953E+03 -0.11864112053E+03  0.39205195378E+03  0.00000000000E+00 0. -1.
        -11    1    5    5    0    0  0.27995245007E+02 -0.11271767258E+03 -0.54947398554E+02  0.12848433392E+03  0.00000000000E+00 0.  1.
          3    1    6    6  503    0  0.63083106589E+02  0.10134736807E+03  0.24733494496E+03  0.27463674618E+03  0.00000000000E+00 0. -1.
         -3    1    6    6    0  503  0.58047388100E+01  0.12398149600E+03  0.13307601690E+03  0.18197343932E+03  0.00000000000E+00 0.  1.
<mgrwt>
<rscale>  0 0.13585121E+04</rscale>
<asrwt>0</asrwt>
<pdfrwt beam="1">  1        1 0.16807549E+00 0.13585121E+04</pdfrwt>
<pdfrwt beam="2">  1       -1 0.64973454E-01 0.13585121E+04</pdfrwt>
<totfact> 0.30179201E+01</totfact>
</mgrwt>
</event>
<event>
12    2  0.3518828E-008  0.1983243E+04  0.7818608E-02  0.8614495E-01
          1   -1    0    0  501    0  0.00000000000E+00  0.00000000000E+00  0.12427700405E+04  0.12427700405E+04  0.00000000000E+00 0. -1.
         -1   -1    0    0    0  501 -0.00000000000E+00 -0.00000000000E+00 -0.79122690955E+03  0.79122690955E+03  0.00000000000E+00 0.  1.
         23    2    1    2    0    0  0.54387566920E+02  0.16005590270E+03 -0.60600427016E+03  0.63560172243E+03  0.90401740512E+02 0.  0.
        254    2    1    2    0    0 -0.54387566920E+02 -0.16005590270E+03  0.10575474011E+04  0.13983952276E+04  0.89918118731E+03 0.  0.
         23    2    4    4    0    0 -0.87166129750E+02  0.29816666850E+02 -0.13424231208E+03  0.18768176974E+03  0.93362093718E+02 0.  0.
         23    2    4    4    0    0  0.32778562830E+02 -0.18987256955E+03  0.11917897132E+04  0.12107134579E+04  0.91314455342E+02 0.  0.
          3    1    3    3  502    0  0.33627977730E+02  0.12421547028E+03 -0.29493521675E+03  0.32178736150E+03  0.00000000000E+00 0. -1.
         -3    1    3    3    0  502  0.20759589190E+02  0.35840432419E+02 -0.31106905340E+03  0.31381436093E+03  0.00000000000E+00 0.  1.
         11    1    5    5    0    0 -0.35925377227E+00 -0.25571176518E+02 -0.13247113972E+02  0.28801044432E+02  0.00000000000E+00 0. -1.
        -11    1    5    5    0    0 -0.86806875978E+02  0.55387843368E+02 -0.12099519811E+03  0.15888072531E+03  0.00000000000E+00 0.  1.
          1    1    6    6  503    0  0.32815544599E+00  0.99290772908E+01  0.36656782429E+02  0.37979125318E+02  0.00000000000E+00 0. -1.
         -1    1    6    6    0  503  0.32450407384E+02 -0.19980164684E+03  0.11551329308E+04  0.11727343326E+04  0.00000000000E+00 0.  1.
<mgrwt>
<rscale>  0 0.19832429E+04</rscale>
<asrwt>0</asrwt>
<pdfrwt beam="1">  1        1 0.19119539E+00 0.19832429E+04</pdfrwt>
<pdfrwt beam="2">  1       -1 0.12172722E+00 0.19832429E+04</pdfrwt>
<totfact> 0.55229037E+00</totfact>
</mgrwt>
</event>
<event>
12    2  0.3518828E-008  0.1595788E+04  0.7818608E-02  0.8823140E-01
          2   -1    0    0  501    0  0.00000000000E+00  0.00000000000E+00  0.79222289425E+03  0.79222289425E+03  0.00000000000E+00 0. -1.
         -2   -1    0    0    0  501 -0.00000000000E+00 -0.00000000000E+00 -0.80360534076E+03  0.80360534076E+03  0.00000000000E+00 0.  1.
         23    2    1    2    0    0 -0.14861691921E+03 -0.51989940073E+02 -0.53273337489E+03  0.56292180531E+03  0.91028389148E+02 0.  0.
        254    2    1    2    0    0  0.14861691921E+03  0.51989940073E+02  0.52135092838E+03  0.10329064297E+04  0.87766677016E+03 0.  0.
         23    2    4    4    0    0  0.15444322142E+03 -0.15643761909E+03 -0.17857990112E+03  0.29717926522E+03  0.89996095924E+02 0.  0.
         23    2    4    4    0    0 -0.58263022074E+01  0.20842755917E+03  0.69993082951E+03  0.73572716448E+03  0.88967978755E+02 0.  0.
          2    1    3    3  502    0 -0.15212608951E+02  0.16119885050E+02 -0.24328420783E+02  0.32911186896E+02  0.00000000000E+00 0. -1.
         -2    1    3    3    0  502 -0.13340431026E+03 -0.68109825123E+02 -0.50840495411E+03  0.53001061842E+03  0.00000000000E+00 0.  1.
         11    1    5    5    0    0  0.12567412691E+03 -0.68573904556E+02 -0.12661611113E+03  0.19112301316E+03  0.00000000000E+00 0.  1.
        -11    1    5    5    0    0  0.28769094512E+02 -0.87863714537E+02 -0.51963789988E+02  0.10605625206E+03  0.00000000000E+00 0. -1.
          1    1    6    6  503    0  0.55215341854E+01  0.90971755411E+02  0.17076743350E+03  0.19356617464E+03  0.00000000000E+00 0. -1.
         -1    1    6    6    0  503 -0.11347836393E+02  0.11745580375E+03  0.52916339601E+03  0.54216098984E+03  0.00000000000E+00 0.  1.
<mgrwt>
<rscale>  0 0.15957876E+04</rscale>
<asrwt>0</asrwt>
<pdfrwt beam="1">  1        2 0.12188044E+00 0.15957876E+04</pdfrwt>
<pdfrwt beam="2">  1       -2 0.12363159E+00 0.15957876E+04</pdfrwt>
<totfact> 0.16497946E+01</totfact>
</mgrwt>
</event>
<event>
12    2  0.3518828E-008  0.1778203E+04  0.7818608E-02  0.8717978E-01
         -1   -1    0    0    0  501 -0.00000000000E+00  0.00000000000E+00  0.61930368475E+03  0.61930368475E+03  0.00000000000E+00 0.  1.
          1   -1    0    0  501    0  0.00000000000E+00 -0.00000000000E+00 -0.12764353646E+04  0.12764353646E+04  0.00000000000E+00 0. -1.
         23    2    1    2    0    0 -0.36213154063E+03  0.46853342065E+03 -0.54595823925E+03  0.81065491845E+03  0.91805113248E+02 0.  0.
        254    2    1    2    0    0  0.36213154063E+03 -0.46853342065E+03 -0.11117344063E+03  0.10850841309E+04  0.90243294395E+03 0.  0.
         23    2    4    4    0    0 -0.15100632254E+03 -0.11552007815E+02 -0.31618903055E+03  0.36229068116E+03  0.91338252022E+02 0.  0.
         23    2    4    4    0    0  0.51313786317E+03 -0.45698141284E+03  0.20501558991E+03  0.72279344978E+03  0.90865288461E+02 0.  0.
          3    1    3    3  502    0 -0.30373380352E+03  0.34652747946E+03 -0.45550704243E+03  0.64793686662E+03  0.00000000000E+00 0. -1.
         -3    1    3    3    0  502 -0.58397737105E+02  0.12200594119E+03 -0.90451196821E+02  0.16271805183E+03  0.00000000000E+00 0.  1.
         11    1    5    5    0    0 -0.84902355872E+02  0.12821914615E+02 -0.85863646224E+02  0.12143054504E+03  0.00000000000E+00 0. -1.
        -11    1    5    5    0    0 -0.66103966668E+02 -0.24373922429E+02 -0.23032538432E+03  0.24086013611E+03  0.00000000000E+00 0.  1.
          3    1    6    6  503    0  0.19568962520E+03 -0.23254336967E+03  0.77665653871E+02  0.31369220899E+03  0.00000000000E+00 0. -1.
         -3    1    6    6    0  503  0.31744823797E+03 -0.22443804316E+03  0.12734993604E+03  0.40910124080E+03  0.00000000000E+00 0.  1.
<mgrwt>
<rscale>  0 0.17782026E+04</rscale>
<asrwt>0</asrwt>
<pdfrwt beam="1">  1        1 0.19637467E+00 0.17782026E+04</pdfrwt>
<pdfrwt beam="2">  1       -1 0.95277491E-01 0.17782026E+04</pdfrwt>
<totfact> 0.94582688E+00</totfact>
</mgrwt>
</event>
<event>
12    2  0.3518828E-008  0.1627622E+04  0.7818608E-02  0.8803756E-01
         -1   -1    0    0    0  501 -0.00000000000E+00  0.00000000000E+00  0.32400818471E+03  0.32400818471E+03  0.00000000000E+00 0.  1.
          1   -1    0    0  501    0  0.00000000000E+00 -0.00000000000E+00 -0.20440480448E+04  0.20440480448E+04  0.00000000000E+00 0. -1.
         23    2    1    2    0    0 -0.17743260275E+03 -0.52316258779E+03 -0.74381442523E+03  0.92888784639E+03  0.66266961741E+02 0.  0.
        254    2    1    2    0    0  0.17743260275E+03  0.52316258779E+03 -0.97622543483E+03  0.14391683831E+04  0.90166962548E+03 0.  0.
         23    2    4    4    0    0  0.47181933725E+03  0.36621359274E+03 -0.90095722611E+03  0.10844951185E+04  0.87634788794E+02 0.  0.
         23    2    4    4    0    0 -0.29438673450E+03  0.15694899505E+03 -0.75268208722E+02  0.35467326462E+03  0.93974916324E+02 0.  0.
          1    1    3    3  502    0 -0.14699935657E+03 -0.48168630206E+03 -0.65471765550E+03  0.82600587943E+03  0.00000000000E+00 0. -1.
         -1    1    3    3    0  502 -0.30433246176E+02 -0.41476285727E+02 -0.89096769725E+02  0.10288196696E+03  0.00000000000E+00 0.  1.
         11    1    5    5    0    0  0.28610083807E+02 -0.13334866674E+00 -0.45154458686E+02  0.53455400256E+02  0.00000000000E+00 0.  1.
        -11    1    5    5    0    0  0.44320925344E+03  0.36634694140E+03 -0.85580276742E+03  0.10310397182E+04  0.00000000000E+00 0. -1.
          2    1    6    6  503    0 -0.23810354019E+03  0.16505610668E+03 -0.61823135283E+02  0.29624131086E+03  0.00000000000E+00 0. -1.
         -2    1    6    6    0  503 -0.56283194310E+02 -0.81071116333E+01 -0.13445073438E+02  0.58431953763E+02  0.00000000000E+00 0.  1.
<mgrwt>
<rscale>  0 0.16276219E+04</rscale>
<asrwt>0</asrwt>
<pdfrwt beam="1">  1        1 0.31446893E+00 0.16276219E+04</pdfrwt>
<pdfrwt beam="2">  1       -1 0.49847413E-01 0.16276219E+04</pdfrwt>
<totfact> 0.10756637E+01</totfact>
</mgrwt>
</event>
<event>
12    2  0.3518828E-008  0.1414242E+04  0.7818608E-02  0.8943573E-01
         -2   -1    0    0    0  501 -0.00000000000E+00  0.00000000000E+00  0.47072954522E+03  0.47072954522E+03  0.00000000000E+00 0. -1.
          2   -1    0    0  501    0  0.00000000000E+00 -0.00000000000E+00 -0.10622241174E+04  0.10622241174E+04  0.00000000000E+00 0.  1.
         23    2    1    2    0    0 -0.34076505169E+02  0.20054408800E+03 -0.56388550311E+03  0.60625212116E+03  0.90529742991E+02 0.  0.
        254    2    1    2    0    0  0.34076505169E+02 -0.20054408800E+03 -0.27609069041E+02  0.92670154143E+03  0.90367823187E+03 0.  0.
         23    2    4    4    0    0 -0.38867354223E+03  0.13378859933E+02 -0.15374207317E+03  0.42820762128E+03  0.92081624320E+02 0.  0.
         23    2    4    4    0    0  0.42275004740E+03 -0.21392294793E+03  0.12613300413E+03  0.49849392015E+03  0.90033457519E+02 0.  0.
          4    1    3    3  502    0 -0.15332030118E+02  0.33730055334E+02 -0.33549009487E+02  0.49983235369E+02  0.00000000000E+00 0. -1.
         -4    1    3    3    0  502 -0.18744475051E+02  0.16681403266E+03 -0.53033649362E+03  0.55626888579E+03  0.00000000000E+00 0.  1.
         11    1    5    5    0    0 -0.91250259225E+02  0.13551675548E+02 -0.79201232717E+02  0.12158574334E+03  0.00000000000E+00 0. -1.
        -11    1    5    5    0    0 -0.29742328300E+03 -0.17281561547E+00 -0.74540840455E+02  0.30662187794E+03  0.00000000000E+00 0.  1.
          1    1    6    6  503    0  0.20882275879E+03 -0.13173395771E+03  0.10515893891E+03  0.26836389965E+03  0.00000000000E+00 0. -1.
         -1    1    6    6    0  503  0.21392728861E+03 -0.82188990219E+02  0.20974065218E+02  0.23013002050E+03  0.00000000000E+00 0.  1.
<mgrwt>
<rscale>  0 0.14142422E+04</rscale>
<asrwt>0</asrwt>
<pdfrwt beam="1">  1        2 0.16341910E+00 0.14142422E+04</pdfrwt>
<pdfrwt beam="2">  1       -2 0.72419930E-01 0.14142422E+04</pdfrwt>
<totfact> 0.38587607E+01</totfact>
</mgrwt>
</event>
<event>
12    2  0.3518828E-008  0.2056696E+04  0.7818608E-02  0.8580563E-01
         -1   -1    0    0    0  501 -0.00000000000E+00  0.00000000000E+00  0.42591430946E+03  0.42591430946E+03  0.00000000000E+00 0.  1.
          1   -1    0    0  501    0  0.00000000000E+00 -0.00000000000E+00 -0.24828927874E+04  0.24828927874E+04  0.00000000000E+00 0. -1.
         23    2    1    2    0    0  0.96554301115E+01  0.52243060332E+03 -0.17169219502E+04  0.17972935921E+04  0.97037674806E+02 0.  0.
        254    2    1    2    0    0 -0.96554301115E+01 -0.52243060332E+03 -0.34005652776E+03  0.11115135048E+04  0.92021566316E+03 0.  0.
         23    2    4    4    0    0 -0.12030313332E+03  0.23418623731E+03 -0.27021716045E+02  0.28022031108E+03  0.92071776196E+02 0.  0.
         23    2    4    4    0    0  0.11064770321E+03 -0.75661684063E+03 -0.31303481172E+03  0.83129319374E+03  0.91354380653E+02 0.  0.
          2    1    3    3  502    0 -0.34801657608E+02  0.13177545547E+03 -0.37715604979E+03  0.40102694663E+03  0.00000000000E+00 0. -1.
         -2    1    3    3    0  502  0.44457087719E+02  0.39065514785E+03 -0.13397659004E+04  0.13962666454E+04  0.00000000000E+00 0.  1.
         11    1    5    5    0    0 -0.11077176474E+03  0.22687962145E+03 -0.47091754915E+02  0.25683142307E+03  0.00000000000E+00 0. -1.
        -11    1    5    5    0    0 -0.95313685776E+01  0.73066158593E+01  0.20070038869E+02  0.23388888013E+02  0.00000000000E+00 0.  1.
          3    1    6    6  503    0  0.74447401297E+02 -0.54648413780E+03 -0.26870384180E+03  0.61350556886E+03  0.00000000000E+00 0. -1.
         -3    1    6    6    0  503  0.36200301910E+02 -0.21013270284E+03 -0.44330969921E+02  0.21778762489E+03  0.00000000000E+00 0.  1.
<mgrwt>
<rscale>  0 0.20566960E+04</rscale>
<asrwt>0</asrwt>
<pdfrwt beam="1">  1        1 0.38198351E+00 0.20566960E+04</pdfrwt>
<pdfrwt beam="2">  1       -1 0.65525278E-01 0.20566960E+04</pdfrwt>
<totfact> 0.30353784E+00</totfact>
</mgrwt>
</event>
<event>
12    2  0.3518828E-008  0.1225003E+04  0.7818608E-02  0.9091249E-01
          2   -1    0    0  501    0  0.00000000000E+00  0.00000000000E+00  0.23663478417E+04  0.23663478417E+04  0.00000000000E+00 0. -1.
         -2   -1    0    0    0  501 -0.00000000000E+00 -0.00000000000E+00 -0.15853888811E+03  0.15853888811E+03  0.00000000000E+00 0.  1.
         23    2    1    2    0    0 -0.23221706161E+03  0.38511418565E+02  0.23602689398E+03  0.34596428652E+03  0.92599674986E+02 0.  0.
        254    2    1    2    0    0  0.23221706161E+03 -0.38511418565E+02  0.19717820596E+04  0.21789224433E+04  0.89686711959E+03 0.  0.
         23    2    4    4    0    0  0.32373019604E+03  0.30330897241E+03  0.15776158101E+04  0.16413491341E+04  0.91420802609E+02 0.  0.
         23    2    4    4    0    0 -0.91513134433E+02 -0.34182039098E+03  0.39416624945E+03  0.53757330914E+03  0.91663498881E+02 0.  0.
          1    1    3    3  502    0 -0.14521451847E+03 -0.11042483281E+02  0.17892142093E+03  0.23069908470E+03  0.00000000000E+00 0. -1.
         -1    1    3    3    0  502 -0.87002543139E+02  0.49553901846E+02  0.57105473048E+02  0.11526520183E+03  0.00000000000E+00 0.  1.
         11    1    5    5    0    0  0.17745059803E+03  0.16588971485E+03  0.10257291546E+04  0.10541007593E+04  0.00000000000E+00 0.  1.
        -11    1    5    5    0    0  0.14627959801E+03  0.13741925756E+03  0.55188665556E+03  0.58724837482E+03  0.00000000000E+00 0. -1.
          2    1    6    6  503    0 -0.84390691597E+02 -0.27341181406E+03  0.36258336949E+03  0.46189014790E+03  0.00000000000E+00 0. -1.
         -2    1    6    6    0  503 -0.71224428363E+01 -0.68408576916E+02  0.31582879955E+02  0.75683161231E+02  0.00000000000E+00 0.  1.
<mgrwt>
<rscale>  0 0.12250031E+04</rscale>
<asrwt>0</asrwt>
<pdfrwt beam="1">  1        2 0.36405349E+00 0.12250031E+04</pdfrwt>
<pdfrwt beam="2">  1       -2 0.24390600E-01 0.12250031E+04</pdfrwt>
<totfact> 0.61689016E+01</totfact>
</mgrwt>
</event>
<event>
12    2  0.3518828E-008  0.1400011E+04  0.7818608E-02  0.8953810E-01
         -2   -1    0    0    0  501 -0.00000000000E+00  0.00000000000E+00  0.36830755197E+03  0.36830755197E+03  0.00000000000E+00 0. -1.
          2   -1    0    0  501    0  0.00000000000E+00 -0.00000000000E+00 -0.13304313523E+04  0.13304313523E+04  0.00000000000E+00 0.  1.
         23    2    1    2    0    0 -0.28773235260E+03 -0.61955234262E+01 -0.62066782754E+03  0.68992882828E+03  0.89134419322E+02 0.  0.
        254    2    1    2    0    0  0.28773235260E+03  0.61955234262E+01 -0.34145597276E+03  0.10088100760E+04  0.90458680997E+03 0.  0.
         23    2    4    4    0    0 -0.25481241023E+03  0.71181304051E+02  0.10373341185E+03  0.29648440520E+03  0.84535432467E+02 0.  0.
         23    2    4    4    0    0  0.54254476283E+03 -0.64985780625E+02 -0.44518938461E+03  0.71232567075E+03  0.10313244727E+03 0.  0.
          3    1    3    3  502    0 -0.82558066053E+01 -0.19691870878E+02 -0.49471461752E+02  0.53882776926E+02  0.00000000000E+00 0. -1.
         -3    1    3    3    0  502 -0.27947654600E+03  0.13496347452E+02 -0.57119636579E+03  0.63604605136E+03  0.00000000000E+00 0.  1.
         11    1    5    5    0    0 -0.25741366652E+03  0.75189812967E+02  0.10890765069E+03  0.28944115130E+03  0.00000000000E+00 0.  1.
        -11    1    5    5    0    0  0.26012562938E+01 -0.40085089161E+01 -0.51742388378E+01  0.70432539062E+01  0.00000000000E+00 0. -1.
          4    1    6    6  503    0  0.11821235343E+02 -0.90755664467E+01 -0.38744864159E+02  0.41512311549E+02  0.00000000000E+00 0. -1.
         -4    1    6    6    0  503  0.53072352749E+03 -0.55910214178E+02 -0.40644452045E+03  0.67081335920E+03  0.00000000000E+00 0.  1.
<mgrwt>
<rscale>  0 0.14000113E+04</rscale>
<asrwt>0</asrwt>
<pdfrwt beam="1">  1        2 0.20468175E+00 0.14000113E+04</pdfrwt>
<pdfrwt beam="2">  1       -2 0.56662699E-01 0.14000113E+04</pdfrwt>
<totfact> 0.45123698E+01</totfact>
</mgrwt>
</event>
<event>
12    2  0.3518828E-008  0.1379239E+04  0.7818608E-02  0.8968985E-01
         -1   -1    0    0    0  501 -0.00000000000E+00  0.00000000000E+00  0.25383081662E+03  0.25383081662E+03  0.00000000000E+00 0.  1.
          1   -1    0    0  501    0  0.00000000000E+00 -0.00000000000E+00 -0.18735912093E+04  0.18735912093E+04  0.00000000000E+00 0. -1.
         23    2    1    2    0    0 -0.11363487378E+02  0.26928745362E+03 -0.37068697891E+02  0.28880631423E+03  0.96902720569E+02 0.  0.
        254    2    1    2    0    0  0.11363487378E+02 -0.26928745362E+03 -0.15826916948E+04  0.18386157117E+04  0.89607470281E+03 0.  0.
         23    2    4    4    0    0  0.21009360198E+03  0.24945709427E+03 -0.84732135520E+03  0.91250157766E+03  0.91309839501E+02 0.  0.
         23    2    4    4    0    0 -0.19873011461E+03 -0.51874454788E+03 -0.73537033961E+03  0.92611413405E+03  0.91259456995E+02 0.  0.
          4    1    3    3  502    0  0.81326897057E+01  0.34271898281E+02 -0.39561956182E+02  0.52970293850E+02  0.00000000000E+00 0. -1.
         -4    1    3    3    0  502 -0.19496177084E+02  0.23501555533E+03  0.24932582911E+01  0.23583602038E+03  0.00000000000E+00 0.  1.
         11    1    5    5    0    0  0.16364511549E+03  0.14438095141E+03 -0.62925498941E+03  0.66602359166E+03  0.00000000000E+00 0.  1.
        -11    1    5    5    0    0  0.46448486492E+02  0.10507614286E+03 -0.21806636579E+03  0.24647798600E+03  0.00000000000E+00 0. -1.
          1    1    6    6  503    0 -0.31990257167E+02 -0.17515357624E+03 -0.27968108138E+03  0.33154737083E+03  0.00000000000E+00 0. -1.
         -1    1    6    6    0  503 -0.16673985744E+03 -0.34359097164E+03 -0.45568925824E+03  0.59456676322E+03  0.00000000000E+00 0.  1.
<mgrwt>
<rscale>  0 0.13792392E+04</rscale>
<asrwt>0</asrwt>
<pdfrwt beam="1">  1        1 0.28824480E+00 0.13792392E+04</pdfrwt>
<pdfrwt beam="2">  1       -1 0.39050895E-01 0.13792392E+04</pdfrwt>
<totfact> 0.22581795E+01</totfact>
</mgrwt>
</event>
<event>
12    2  0.3518828E-008  0.1934784E+04  0.7818608E-02  0.8637733E-01
          2   -1    0    0  501    0  0.00000000000E+00  0.00000000000E+00  0.22910318947E+04  0.22910318947E+04  0.00000000000E+00 0. -1.
         -2   -1    0    0    0  501 -0.00000000000E+00 -0.00000000000E+00 -0.40848277397E+03  0.40848277397E+03  0.00000000000E+00 0.  1.
         23    2    1    2    0    0  0.53063830977E+03  0.29476113770E+03  0.10615068113E+04  0.12263074067E+04  0.92585102196E+02 0.  0.
        254    2    1    2    0    0 -0.53063830977E+03 -0.29476113770E+03  0.82104230939E+03  0.14732072619E+04  0.10619642267E+04 0.  0.
         23    2    4    4    0    0  0.72528091860E+02 -0.46053267880E+03  0.67367867233E+03  0.82416703640E+03  0.89764569754E+02 0.  0.
         23    2    4    4    0    0 -0.60316640163E+03  0.16577154110E+03  0.14736363706E+03  0.64904022554E+03  0.90814431402E+02 0.  0.
          1    1    3    3  502    0  0.16457702163E+02  0.61888623275E+00  0.95666189674E+01  0.19046237926E+02  0.00000000000E+00 0. -1.
         -1    1    3    3    0  502  0.51418060761E+03  0.29414225147E+03  0.10519401923E+04  0.12072611688E+04  0.00000000000E+00 0.  1.
         11    1    5    5    0    0  0.77056032241E+02 -0.40962817485E+03  0.54806405548E+03  0.68855434255E+03  0.00000000000E+00 0. -1.
        -11    1    5    5    0    0 -0.45279403816E+01 -0.50904503951E+02  0.12561461685E+03  0.13561269385E+03  0.00000000000E+00 0.  1.
          4    1    6    6  503    0 -0.10225793978E+03  0.44910414641E+02  0.58743499275E+02  0.12619203738E+03  0.00000000000E+00 0. -1.
         -4    1    6    6    0  503 -0.50090846186E+03  0.12086112646E+03  0.88620137783E+02  0.52284818817E+03  0.00000000000E+00 0.  1.
<mgrwt>
<rscale>  0 0.19347838E+04</rscale>
<asrwt>0</asrwt>
<pdfrwt beam="1">  1        2 0.35246644E+00 0.19347838E+04</pdfrwt>
<pdfrwt beam="2">  1       -2 0.62843505E-01 0.19347838E+04</pdfrwt>
<totfact> 0.10057181E+01</totfact>
</mgrwt>
</event>
<event>
12    2  0.3518828E-008  0.1758173E+04  0.7818608E-02  0.8728864E-01
          2   -1    0    0  501    0  0.00000000000E+00  0.00000000000E+00  0.55998531959E+03  0.55998531959E+03  0.00000000000E+00 0.  1.
         -2   -1    0    0    0  501 -0.00000000000E+00 -0.00000000000E+00 -0.13800235252E+04  0.13800235252E+04  0.00000000000E+00 0. -1.
         23    2    1    2    0    0  0.24763324247E+03 -0.43287378162E+03  0.14338704402E+03  0.52628932369E+03  0.87855985830E+02 0.  0.
        254    2    1    2    0    0 -0.24763324247E+03  0.43287378162E+03 -0.96342524964E+03  0.14137195211E+04  0.90648372246E+03 0.  0.
         23    2    4    4    0    0 -0.14544727201E+03  0.66106802885E+03 -0.40194110583E+03  0.79235577641E+03  0.90028751799E+02 0.  0.
         23    2    4    4    0    0 -0.10218597046E+03 -0.22819424723E+03 -0.56148414382E+03  0.62136374469E+03  0.91180438850E+02 0.  0.
          1    1    3    3  502    0  0.33789106256E+02 -0.16793880097E+02  0.29453229463E+01  0.37847232891E+02  0.00000000000E+00 0. -1.
         -1    1    3    3    0  502  0.21384413622E+03 -0.41607990153E+03  0.14044172108E+03  0.48844209080E+03  0.00000000000E+00 0.  1.
         11    1    5    5    0    0 -0.11754263027E+02  0.23089599490E+03 -0.11452638856E+03  0.25800662169E+03  0.00000000000E+00 0. -1.
        -11    1    5    5    0    0 -0.13369300899E+03  0.43017203395E+03 -0.28741471727E+03  0.53434915472E+03  0.00000000000E+00 0.  1.
          4    1    6    6  503    0 -0.72081803009E+02 -0.57511828132E+02 -0.21533009007E+03  0.23424441165E+03  0.00000000000E+00 0. -1.
         -4    1    6    6    0  503 -0.30104167452E+02 -0.17068241909E+03 -0.34615405374E+03  0.38711933304E+03  0.00000000000E+00 0.  1.
<mgrwt>
<rscale>  0 0.17581728E+04</rscale>
<asrwt>0</asrwt>
<pdfrwt beam="1">  1        2 0.86151589E-01 0.17581728E+04</pdfrwt>
<pdfrwt beam="2">  1       -2 0.21231131E+00 0.17581728E+04</pdfrwt>
<totfact> 0.56434909E+00</totfact>
</mgrwt>
</event>
<event>
12    2  0.3518828E-008  0.1729977E+04  0.7818608E-02  0.8744450E-01
          1   -1    0    0  501    0  0.00000000000E+00  0.00000000000E+00  0.99607635100E+03  0.99607635100E+03  0.00000000000E+00 0. -1.
         -1   -1    0    0    0  501 -0.00000000000E+00 -0.00000000000E+00 -0.75115243800E+03  0.75115243800E+03  0.00000000000E+00 0.  1.
         23    2    1    2    0    0  0.40488778852E+03  0.15001637396E+02  0.54599016852E+03  0.68807529396E+03  0.10575053481E+03 0.  0.
        254    2    1    2    0    0 -0.40488778852E+03 -0.15001637396E+02 -0.30106625552E+03  0.10591534950E+04  0.93113160479E+03 0.  0.
         23    2    4    4    0    0 -0.71062215298E+02 -0.42832614121E+03 -0.48991224736E+01  0.44400425029E+03  0.92750478116E+02 0.  0.
         23    2    4    4    0    0 -0.33382557323E+03  0.41332450381E+03 -0.29616713305E+03  0.61514924475E+03  0.91744012500E+02 0.  0.
          3    1    3    3  502    0  0.30648152991E+03  0.13617337981E+02  0.32917676864E+03  0.44997078248E+03  0.00000000000E+00 0. -1.
         -3    1    3    3    0  502  0.98406258609E+02  0.13842994153E+01  0.21681339989E+03  0.23810451148E+03  0.00000000000E+00 0.  1.
         11    1    5    5    0    0 -0.64060598647E+01 -0.23692694863E+02 -0.23276640612E+02  0.33825779977E+02  0.00000000000E+00 0. -1.
        -11    1    5    5    0    0 -0.64656155433E+02 -0.40463344635E+03  0.18377518139E+02  0.41017847032E+03  0.00000000000E+00 0.  1.
          1    1    6    6  503    0 -0.80814659803E+02  0.12481998630E+03 -0.40731401469E+02  0.15417550157E+03  0.00000000000E+00 0. -1.
         -1    1    6    6    0  503 -0.25301091342E+03  0.28850451752E+03 -0.25543573158E+03  0.46097374318E+03  0.00000000000E+00 0.  1.
<mgrwt>
<rscale>  0 0.17299771E+04</rscale>
<asrwt>0</asrwt>
<pdfrwt beam="1">  1        1 0.15324252E+00 0.17299771E+04</pdfrwt>
<pdfrwt beam="2">  1       -1 0.11556191E+00 0.17299771E+04</pdfrwt>
<totfact> 0.98148207E+00</totfact>
</mgrwt>
</event>
<event>
12    2  0.3518828E-008  0.3229125E+04  0.7818608E-02  0.8181167E-01
         -1   -1    0    0    0  501 -0.00000000000E+00  0.00000000000E+00  0.14865313303E+04  0.14865313303E+04  0.00000000000E+00 0.  1.
          1   -1    0    0  501    0  0.00000000000E+00 -0.00000000000E+00 -0.17536206024E+04  0.17536206024E+04  0.00000000000E+00 0. -1.
         23    2    1    2    0    0  0.40844426471E+03 -0.40344377251E+03  0.12528446517E+04  0.13810142164E+04  0.89369734850E+02 0.  0.
        254    2    1    2    0    0 -0.40844426471E+03  0.40344377251E+03 -0.15199339238E+04  0.18591377163E+04  0.90365940512E+03 0.  0.
         23    2    4    4    0    0 -0.99400762815E+01  0.25558901334E+03  0.82307866428E+01  0.27038144199E+03  0.87257260256E+02 0.  0.
         23    2    4    4    0    0 -0.39850418843E+03  0.14785475917E+03 -0.15281647104E+04  0.15887562743E+04  0.90512423888E+02 0.  0.
          4    1    3    3  502    0  0.36417765050E+03 -0.31253911324E+03  0.10369618843E+04  0.11426268017E+04  0.00000000000E+00 0. -1.
         -4    1    3    3    0  502  0.44266614208E+02 -0.90904659272E+02  0.21588276742E+03  0.23838741468E+03  0.00000000000E+00 0.  1.
         11    1    5    5    0    0 -0.27421900048E+02  0.11975506741E+03 -0.33265625276E+02  0.12727858656E+03  0.00000000000E+00 0.  1.
        -11    1    5    5    0    0  0.17481823767E+02  0.13583394593E+03  0.41496411919E+02  0.14310285543E+03  0.00000000000E+00 0. -1.
          1    1    6    6  503    0 -0.21630630118E+03  0.10801739274E+03 -0.99353424522E+03  0.10225294468E+04  0.00000000000E+00 0. -1.
         -1    1    6    6    0  503 -0.18219788725E+03  0.39837366431E+02 -0.53463046522E+03  0.56622682754E+03  0.00000000000E+00 0.  1.
<mgrwt>
<rscale>  0 0.32291249E+04</rscale>
<asrwt>0</asrwt>
<pdfrwt beam="1">  1        1 0.26978778E+00 0.32291249E+04</pdfrwt>
<pdfrwt beam="2">  1       -1 0.22869713E+00 0.32291249E+04</pdfrwt>
<totfact> 0.35210402E-01</totfact>
</mgrwt>
</event>
<event>
12    2  0.3518828E-008  0.1669303E+04  0.7818608E-02  0.8779068E-01
          2   -1    0    0  501    0  0.00000000000E+00  0.00000000000E+00  0.11727607573E+04  0.11727607573E+04  0.00000000000E+00 0.  1.
         -2   -1    0    0    0  501 -0.00000000000E+00 -0.00000000000E+00 -0.59401953856E+03  0.59401953856E+03  0.00000000000E+00 0. -1.
         23    2    1    2    0    0  0.47442754453E+03  0.32999720288E+03  0.57731985383E+02  0.58759939825E+03  0.89221195730E+02 0.  0.
        254    2    1    2    0    0 -0.47442754453E+03 -0.32999720288E+03  0.52100923331E+03  0.11791808976E+04  0.88602331745E+03 0.  0.
         23    2    4    4    0    0 -0.38162058274E+03 -0.56212031605E+02 -0.16546548031E+03  0.42879584319E+03  0.87709681888E+02 0.  0.
         23    2    4    4    0    0 -0.92806961789E+02 -0.27378517127E+03  0.68647471362E+03  0.75038505437E+03  0.90877638704E+02 0.  0.
          3    1    3    3  502    0  0.45023381004E+03  0.28355759928E+03  0.57974867835E+02  0.53523497748E+03  0.00000000000E+00 0. -1.
         -3    1    3    3    0  502  0.24193734489E+02  0.46439603594E+02 -0.24288245239E+00  0.52364420768E+02  0.00000000000E+00 0.  1.
         11    1    5    5    0    0 -0.12686745672E+03 -0.60637141707E+02 -0.52686713452E+02  0.15016026207E+03  0.00000000000E+00 0.  1.
        -11    1    5    5    0    0 -0.25475312602E+03  0.44251101021E+01 -0.11277876686E+03  0.27863558113E+03  0.00000000000E+00 0. -1.
          2    1    6    6  503    0 -0.81572293332E+02 -0.27803561014E+03  0.67022549603E+03  0.73017809819E+03  0.00000000000E+00 0. -1.
         -2    1    6    6    0  503 -0.11234668457E+02  0.42504388628E+01  0.16249217584E+02  0.20206956178E+02  0.00000000000E+00 0.  1.
<mgrwt>
<rscale>  0 0.16693026E+04</rscale>
<asrwt>0</asrwt>
<pdfrwt beam="1">  1        2 0.18042473E+00 0.16693026E+04</pdfrwt>
<pdfrwt beam="2">  1       -2 0.91387621E-01 0.16693026E+04</pdfrwt>
<totfact> 0.19139663E+01</totfact>
</mgrwt>
</event>
<event>
12    2  0.3518828E-008  0.1119946E+04  0.7818608E-02  0.9185966E-01
         -2   -1    0    0    0  501 -0.00000000000E+00  0.00000000000E+00  0.49777366996E+03  0.49777366996E+03  0.00000000000E+00 0.  1.
          2   -1    0    0  501    0  0.00000000000E+00 -0.00000000000E+00 -0.62994488759E+03  0.62994488759E+03  0.00000000000E+00 0. -1.
         23    2    1    2    0    0  0.46987933667E+01  0.84976076411E+02  0.13760481123E+03  0.18621084795E+03  0.92175829814E+02 0.  0.
        254    2    1    2    0    0 -0.46987933667E+01 -0.84976076411E+02 -0.26977602885E+03  0.94150770959E+03  0.89800592941E+03 0.  0.
         23    2    4    4    0    0 -0.17218395477E+03 -0.16467302164E+03  0.26500806172E+03  0.36811243567E+03  0.92265780122E+02 0.  0.
         23    2    4    4    0    0  0.16748516140E+03  0.79696945228E+02 -0.53478409058E+03  0.57339527392E+03  0.91570924694E+02 0.  0.
          2    1    3    3  502    0  0.30744501896E+02  0.35210741595E+02  0.11463997039E+02  0.48129449909E+02  0.00000000000E+00 0. -1.
         -2    1    3    3    0  502 -0.26045708529E+02  0.49765334816E+02  0.12614081419E+03  0.13808139804E+03  0.00000000000E+00 0.  1.
         11    1    5    5    0    0 -0.15464028929E+03 -0.13855974346E+03  0.26499613981E+03  0.33665319796E+03  0.00000000000E+00 0.  1.
        -11    1    5    5    0    0 -0.17543665478E+02 -0.26113278175E+02  0.11921915031E-01  0.31459237715E+02  0.00000000000E+00 0. -1.
          1    1    6    6  503    0  0.31302873856E+02 -0.13319976268E+02 -0.16548593655E+03  0.16894640237E+03  0.00000000000E+00 0. -1.
         -1    1    6    6    0  503  0.13618228755E+03  0.93016921495E+02 -0.36929815403E+03  0.40444887155E+03  0.00000000000E+00 0.  1.
<mgrwt>
<rscale>  0 0.11199464E+04</rscale>
<asrwt>0</asrwt>
<pdfrwt beam="1">  1        2 0.96914598E-01 0.11199464E+04</pdfrwt>
<pdfrwt beam="2">  1       -2 0.76580565E-01 0.11199464E+04</pdfrwt>
<totfact> 0.70695226E+01</totfact>
</mgrwt>
</event>
<event>
12    2  0.3518828E-008  0.1281689E+04  0.7818608E-02  0.9044214E-01
          2   -1    0    0  501    0  0.00000000000E+00  0.00000000000E+00  0.44719342650E+03  0.44719342650E+03  0.00000000000E+00 0.  1.
         -2   -1    0    0    0  501 -0.00000000000E+00 -0.00000000000E+00 -0.91835285012E+03  0.91835285012E+03  0.00000000000E+00 0. -1.
         23    2    1    2    0    0  0.10335166515E+03 -0.14117428713E+03  0.15707585558E+03  0.25318324114E+03  0.93899857032E+02 0.  0.
        254    2    1    2    0    0 -0.10335166515E+03  0.14117428713E+03 -0.62823527920E+03  0.11123630355E+04  0.90114383460E+03 0.  0.
         23    2    4    4    0    0  0.33998741813E+03  0.21302475540E+03 -0.12039166368E+03  0.42859038190E+03  0.90689425386E+02 0.  0.
         23    2    4    4    0    0 -0.44333908328E+03 -0.71850468270E+02 -0.50784361553E+03  0.68377265358E+03  0.89038594966E+02 0.  0.
          1    1    3    3  502    0 -0.83266767380E+01  0.84155680947E+01  0.80667689574E+01  0.14325784211E+02  0.00000000000E+00 0. -1.
         -1    1    3    3    0  502  0.11167834189E+03 -0.14958985522E+03  0.14900908662E+03  0.23885745693E+03  0.00000000000E+00 0.  1.
         11    1    5    5    0    0  0.24258382711E+02  0.34755732827E+02 -0.37643161647E+02  0.56687191806E+02  0.00000000000E+00 0.  1.
        -11    1    5    5    0    0  0.31572903542E+03  0.17826902257E+03 -0.82748502029E+02  0.37190319010E+03  0.00000000000E+00 0. -1.
          3    1    6    6  503    0 -0.19105824539E+03  0.66201781096E+00 -0.26090456030E+03  0.32338039672E+03  0.00000000000E+00 0. -1.
         -3    1    6    6    0  503 -0.25228083789E+03 -0.72512486081E+02 -0.24693905523E+03  0.36039225686E+03  0.00000000000E+00 0.  1.
<mgrwt>
<rscale>  0 0.12816885E+04</rscale>
<asrwt>0</asrwt>
<pdfrwt beam="1">  1        2 0.68798989E-01 0.12816885E+04</pdfrwt>
<pdfrwt beam="2">  1       -2 0.14128505E+00 0.12816885E+04</pdfrwt>
<totfact> 0.24089856E+01</totfact>
</mgrwt>
</event>
<event>
12    2  0.3518828E-008  0.1485287E+04  0.7818608E-02  0.8894296E-01
         -2   -1    0    0    0  501 -0.00000000000E+00  0.00000000000E+00  0.53867889531E+03  0.53867889531E+03  0.00000000000E+00 0. -1.
          2   -1    0    0  501    0  0.00000000000E+00 -0.00000000000E+00 -0.10238372462E+04  0.10238372462E+04  0.00000000000E+00 0.  1.
         23    2    1    2    0    0  0.22474363710E+03  0.40251003999E+03 -0.19568576755E+03  0.50970796322E+03  0.94790576740E+02 0.  0.
        254    2    1    2    0    0 -0.22474363710E+03 -0.40251003999E+03 -0.28947258331E+03  0.10528081783E+04  0.90115850382E+03 0.  0.
         23    2    4    4    0    0 -0.36713761149E+03 -0.40479832653E+03 -0.52417857441E+03  0.76328022725E+03  0.95821795584E+02 0.  0.
         23    2    4    4    0    0  0.14239397439E+03  0.22882865450E+01  0.23470599109E+03  0.28952795101E+03  0.91968755361E+02 0.  0.
          4    1    3    3  502    0  0.76291250137E+02  0.12991908638E+03 -0.17162163138E+02  0.15163727674E+03  0.00000000000E+00 0. -1.
         -4    1    3    3    0  502  0.14845238696E+03  0.27259095361E+03 -0.17852360441E+03  0.35807068648E+03  0.00000000000E+00 0.  1.
         11    1    5    5    0    0 -0.36802356299E+03 -0.39415563725E+03 -0.52494435119E+03  0.75257330615E+03  0.00000000000E+00 0. -1.
        -11    1    5    5    0    0  0.88595149812E+00 -0.10642689285E+02  0.76577678309E+00  0.10706921096E+02  0.00000000000E+00 0.  1.
          4    1    6    6  503    0  0.59225095008E+02  0.45984711554E+02  0.92208163082E+02  0.11884675391E+03  0.00000000000E+00 0. -1.
         -4    1    6    6    0  503  0.83168879383E+02 -0.43696425009E+02  0.14249782801E+03  0.17068119710E+03  0.00000000000E+00 0.  1.
<mgrwt>
<rscale>  0 0.14852872E+04</rscale>
<asrwt>0</asrwt>
<pdfrwt beam="1">  1        2 0.15751342E+00 0.14852872E+04</pdfrwt>
<pdfrwt beam="2">  1       -2 0.82873678E-01 0.14852872E+04</pdfrwt>
<totfact> 0.30029552E+01</totfact>
</mgrwt>
</event>
<event>
12    2  0.3518828E-008  0.1594266E+04  0.7818608E-02  0.8824079E-01
          2   -1    0    0  501    0  0.00000000000E+00  0.00000000000E+00  0.46867797139E+03  0.46867797139E+03  0.00000000000E+00 0. -1.
         -2   -1    0    0    0  501 -0.00000000000E+00 -0.00000000000E+00 -0.13557725049E+04  0.13557725049E+04  0.00000000000E+00 0.  1.
         23    2    1    2    0    0  0.25867981011E+03 -0.39565180137E+03  0.88625581699E+01  0.48150538043E+03  0.91177268854E+02 0.  0.
        254    2    1    2    0    0 -0.25867981011E+03  0.39565180137E+03 -0.89595709173E+03  0.13429450959E+04  0.88165006001E+03 0.  0.
         23    2    4    4    0    0 -0.14177070701E+03  0.21712498223E+03 -0.10363666353E+04  0.10721450871E+04  0.90537803188E+02 0.  0.
         23    2    4    4    0    0 -0.11690910311E+03  0.17852681914E+03  0.14040954360E+03  0.27080000876E+03  0.89879036868E+02 0.  0.
          4    1    3    3  502    0  0.20646797764E+03 -0.34034093180E+03  0.38379149812E+02  0.39991740997E+03  0.00000000000E+00 0. -1.
         -4    1    3    3    0  502  0.52211832471E+02 -0.55310869570E+02 -0.29516591642E+02  0.81587970466E+02  0.00000000000E+00 0.  1.
         11    1    5    5    0    0 -0.79006224062E+02  0.12755484824E+03 -0.41645301732E+03  0.44265713412E+03  0.00000000000E+00 0. -1.
        -11    1    5    5    0    0 -0.62764482945E+02  0.89570133991E+02 -0.61991361800E+03  0.62948795303E+03  0.00000000000E+00 0.  1.
          3    1    6    6  503    0 -0.13661669596E+02  0.56660519232E+01  0.46185921381E+02  0.48496233816E+02  0.00000000000E+00 0. -1.
         -3    1    6    6    0  503 -0.10324743351E+03  0.17286076722E+03  0.94223622216E+02  0.22230377494E+03  0.00000000000E+00 0.  1.
<mgrwt>
<rscale>  0 0.15942656E+04</rscale>
<asrwt>0</asrwt>
<pdfrwt beam="1">  1        2 0.72104305E-01 0.15942656E+04</pdfrwt>
<pdfrwt beam="2">  1       -2 0.20858038E+00 0.15942656E+04</pdfrwt>
<totfact> 0.74399355E+00</totfact>
</mgrwt>
</event>
<event>
12    2  0.3518828E-008  0.2553355E+04  0.7818608E-02  0.8384220E-01
         -1   -1    0    0    0  501 -0.00000000000E+00  0.00000000000E+00  0.16836671256E+04  0.16836671256E+04  0.00000000000E+00 0.  1.
          1   -1    0    0  501    0  0.00000000000E+00 -0.00000000000E+00 -0.96806898886E+03  0.96806898886E+03  0.00000000000E+00 0. -1.
         23    2    1    2    0    0 -0.98187226252E+03 -0.20663897893E+01 -0.14900775288E+03  0.99775697165E+03  0.96115837305E+02 0.  0.
        254    2    1    2    0    0  0.98187226252E+03  0.20663897893E+01  0.86460588966E+03  0.16539791429E+04  0.10119418218E+04 0.  0.
         23    2    4    4    0    0 -0.18620684785E+02  0.33738502995E+03  0.19768949742E+03  0.40247926191E+03  0.93450685089E+02 0.  0.
         23    2    4    4    0    0  0.10004929473E+04 -0.33531864016E+03  0.66691639224E+03  0.12514998809E+04  0.89720397444E+02 0.  0.
          2    1    3    3  502    0 -0.95484323672E+03  0.10205950515E+02 -0.15521482153E+03  0.96743031220E+03  0.00000000000E+00 0. -1.
         -2    1    3    3    0  502 -0.27029025795E+02 -0.12272340304E+02  0.62070686467E+01  0.30326659446E+02  0.00000000000E+00 0.  1.
         11    1    5    5    0    0  0.32695932414E+02  0.21853794176E+03  0.13050262656E+03  0.25662967779E+03  0.00000000000E+00 0.  1.
        -11    1    5    5    0    0 -0.51316617200E+02  0.11884708819E+03  0.67186870863E+02  0.14584958413E+03  0.00000000000E+00 0. -1.
          4    1    6    6  503    0  0.61171103770E+02 -0.30047258509E+02  0.20810484044E+02  0.71258809466E+02  0.00000000000E+00 0. -1.
         -4    1    6    6    0  503  0.93932184354E+03 -0.30527138165E+03  0.64610590820E+03  0.11802410715E+04  0.00000000000E+00 0.  1.
<mgrwt>
<rscale>  0 0.25533554E+04</rscale>
<asrwt>0</asrwt>
<pdfrwt beam="1">  1        1 0.14893369E+00 0.25533554E+04</pdfrwt>
<pdfrwt beam="2">  1       -1 0.25902571E+00 0.25533554E+04</pdfrwt>
<totfact> 0.86322330E-01</totfact>
</mgrwt>
</event>
<event>
12    2  0.3518828E-008  0.1273212E+04  0.7818608E-02  0.9051082E-01
          2   -1    0    0  501    0  0.00000000000E+00  0.00000000000E+00  0.10340465143E+04  0.10340465143E+04  0.00000000000E+00 0. -1.
         -2   -1    0    0    0  501 -0.00000000000E+00 -0.00000000000E+00 -0.39192350719E+03  0.39192350719E+03  0.00000000000E+00 0.  1.
         23    2    1    2    0    0  0.54338352288E+02 -0.25834099006E+03 -0.20496025601E+02  0.27853422710E+03  0.86420512194E+02 0.  0.
        254    2    1    2    0    0 -0.54338352288E+02  0.25834099006E+03  0.66261903268E+03  0.11474357944E+04  0.89880598353E+03 0.  0.
         23    2    4    4    0    0 -0.94096179015E+02 -0.30218604176E+03  0.93721985018E+02  0.34260744671E+03  0.91790834653E+02 0.  0.
         23    2    4    4    0    0  0.39757826727E+02  0.56052703182E+03  0.56889704767E+03  0.80482834765E+03  0.91288444758E+02 0.  0.
          3    1    3    3  502    0  0.21196805939E+02 -0.14947031715E+02 -0.20231319216E+02  0.32894142584E+02  0.00000000000E+00 0. -1.
         -3    1    3    3    0  502  0.33141546348E+02 -0.24339395834E+03 -0.26470638589E+00  0.24564008452E+03  0.00000000000E+00 0.  1.
         11    1    5    5    0    0 -0.96315853328E+01  0.15983796066E+01  0.14531708422E+02  0.17506935856E+02  0.00000000000E+00 0. -1.
        -11    1    5    5    0    0 -0.84464593682E+02 -0.30378442137E+03  0.79190276596E+02  0.32510051086E+03  0.00000000000E+00 0.  1.
          3    1    6    6  503    0 -0.17359175546E+02  0.48870015631E+02  0.76563490808E+02  0.92474794014E+02  0.00000000000E+00 0. -1.
         -3    1    6    6    0  503  0.57117002272E+02  0.51165701619E+03  0.49233355686E+03  0.71235355363E+03  0.00000000000E+00 0.  1.
<mgrwt>
<rscale>  0 0.12732119E+04</rscale>
<asrwt>0</asrwt>
<pdfrwt beam="1">  1        2 0.15908408E+00 0.12732119E+04</pdfrwt>
<pdfrwt beam="2">  1       -2 0.60295925E-01 0.12732119E+04</pdfrwt>
<totfact> 0.60305400E+01</totfact>
</mgrwt>
</event>
<event>
12    2  0.3518828E-008  0.2359028E+04  0.7818608E-02  0.8455004E-01
          2   -1    0    0  501    0  0.00000000000E+00  0.00000000000E+00  0.90896981553E+03  0.90896981553E+03  0.00000000000E+00 0. -1.
         -2   -1    0    0    0  501 -0.00000000000E+00 -0.00000000000E+00 -0.15305820670E+04  0.15305820670E+04  0.00000000000E+00 0.  1.
         23    2    1    2    0    0  0.84161443242E+01 -0.56114842011E+03  0.59735487056E+03  0.82449424460E+03  0.89440131507E+02 0.  0.
        254    2    1    2    0    0 -0.84161443242E+01  0.56114842011E+03 -0.12189671220E+04  0.16150576379E+04  0.89865006999E+03 0.  0.
         23    2    4    4    0    0  0.30049044169E+03  0.11848050119E+03 -0.94535003278E+03  0.10028195158E+04  0.87339350066E+02 0.  0.
         23    2    4    4    0    0 -0.30890658601E+03  0.44266791892E+03 -0.27361708921E+03  0.61223812208E+03  0.92687870303E+02 0.  0.
          4    1    3    3  502    0 -0.83615400686E+01 -0.37133384379E+03  0.45076528923E+03  0.58407883447E+03  0.00000000000E+00 0. -1.
         -4    1    3    3    0  502  0.16777684393E+02 -0.18981457632E+03  0.14658958133E+03  0.24041541014E+03  0.00000000000E+00 0.  1.
         11    1    5    5    0    0  0.21871133192E+03  0.61260379511E+02 -0.54972083580E+03  0.59479448394E+03  0.00000000000E+00 0. -1.
        -11    1    5    5    0    0  0.81779109771E+02  0.57220121677E+02 -0.39562919698E+03  0.40802503186E+03  0.00000000000E+00 0.  1.
          3    1    6    6  503    0 -0.30073926276E+03  0.41636233548E+03 -0.27850116512E+03  0.58426415049E+03  0.00000000000E+00 0. -1.
         -3    1    6    6    0  503 -0.81673232504E+01  0.26305583437E+02  0.48840759136E+01  0.27973971591E+02  0.00000000000E+00 0.  1.
<mgrwt>
<rscale>  0 0.23590277E+04</rscale>
<asrwt>0</asrwt>
<pdfrwt beam="1">  1        2 0.13984151E+00 0.23590277E+04</pdfrwt>
<pdfrwt beam="2">  1       -2 0.23547416E+00 0.23590277E+04</pdfrwt>
<totfact> 0.20612709E+00</totfact>
</mgrwt>
</event>
<event>
12    2  0.3518828E-008  0.1534070E+04  0.7818608E-02  0.8862108E-01
         -2   -1    0    0    0  501 -0.00000000000E+00  0.00000000000E+00  0.66645022666E+03  0.66645022666E+03  0.00000000000E+00 0.  1.
          2   -1    0    0  501    0  0.00000000000E+00 -0.00000000000E+00 -0.88280027663E+03  0.88280027663E+03  0.00000000000E+00 0. -1.
         23    2    1    2    0    0  0.23258683503E+03 -0.54359868914E+02 -0.52442646002E+03  0.58339928074E+03  0.90994382369E+02 0.  0.
        254    2    1    2    0    0 -0.23258683503E+03  0.54359868914E+02  0.30807641005E+03  0.96585122255E+03  0.88368879052E+03 0.  0.
         23    2    4    4    0    0 -0.47674099373E+03 -0.19582666446E+03  0.57984465652E+02  0.52626148552E+03  0.89212640734E+02 0.  0.
         23    2    4    4    0    0  0.24415415869E+03  0.25018653338E+03  0.25009194440E+03  0.43958973703E+03  0.92133607102E+02 0.  0.
          4    1    3    3  502    0  0.21576236596E+03 -0.43491947622E+02 -0.51723452337E+03  0.56211787041E+03  0.00000000000E+00 0. -1.
         -4    1    3    3    0  502  0.16824469073E+02 -0.10867921291E+02 -0.71919366490E+01  0.21281410328E+02  0.00000000000E+00 0.  1.
         11    1    5    5    0    0 -0.14091453268E+03 -0.42771080803E+02  0.54973773916E+02  0.15718901581E+03  0.00000000000E+00 0.  1.
        -11    1    5    5    0    0 -0.33582646105E+03 -0.15305558366E+03  0.30106917364E+01  0.36907246971E+03  0.00000000000E+00 0. -1.
          4    1    6    6  503    0  0.18941729270E+03  0.15275556363E+03  0.20817181786E+03  0.32023222627E+03  0.00000000000E+00 0. -1.
         -4    1    6    6    0  503  0.54736865997E+02  0.97430969750E+02  0.41920126542E+02  0.11935751076E+03  0.00000000000E+00 0.  1.
<mgrwt>
<rscale>  0 0.15340697E+04</rscale>
<asrwt>0</asrwt>
<pdfrwt beam="1">  1        2 0.13581543E+00 0.15340697E+04</pdfrwt>
<pdfrwt beam="2">  1       -2 0.10253080E+00 0.15340697E+04</pdfrwt>
<totfact> 0.22596790E+01</totfact>
</mgrwt>
</event>
<event>
12    2  0.3518828E-008  0.1249255E+04  0.7818608E-02  0.9070804E-01
         -1   -1    0    0    0  501 -0.00000000000E+00  0.00000000000E+00  0.16193149820E+03  0.16193149820E+03  0.00000000000E+00 0.  1.
          1   -1    0    0  501    0  0.00000000000E+00 -0.00000000000E+00 -0.24094098177E+04  0.24094098177E+04  0.00000000000E+00 0. -1.
         23    2    1    2    0    0  0.26639677246E+03  0.74909951777E+02 -0.37529201758E+03  0.47501901855E+03  0.90665474540E+02 0.  0.
        254    2    1    2    0    0 -0.26639677246E+03 -0.74909951777E+02 -0.18721863019E+04  0.20963222973E+04  0.90161348925E+03 0.  0.
         23    2    4    4    0    0 -0.27265804732E+03  0.37355302797E+03 -0.76843375371E+03  0.90144258968E+03  0.90686455317E+02 0.  0.
         23    2    4    4    0    0  0.62612748569E+01 -0.44846297975E+03 -0.11037525482E+04  0.11948797076E+04  0.91156899542E+02 0.  0.
          1    1    3    3  502    0  0.64238780337E+01 -0.76574196771E+01 -0.47685788793E+02  0.48722035445E+02  0.00000000000E+00 0. -1.
         -1    1    3    3    0  502  0.25997289443E+03  0.82567371454E+02 -0.32760622879E+03  0.42629698311E+03  0.00000000000E+00 0.  1.
         11    1    5    5    0    0 -0.18947664734E+03  0.23579646053E+03 -0.41947114763E+03  0.51716285092E+03  0.00000000000E+00 0. -1.
        -11    1    5    5    0    0 -0.83181399978E+02  0.13775656745E+03 -0.34896260608E+03  0.38427973876E+03  0.00000000000E+00 0.  1.
          1    1    6    6  503    0  0.15389789977E+02 -0.14882584944E+03 -0.48096284147E+03  0.50369756201E+03  0.00000000000E+00 0. -1.
         -1    1    6    6    0  503 -0.91285151197E+01 -0.29963713031E+03 -0.62278970669E+03  0.69118214561E+03  0.00000000000E+00 0.  1.
<mgrwt>
<rscale>  0 0.12492547E+04</rscale>
<asrwt>0</asrwt>
<pdfrwt beam="1">  1        1 0.37067841E+00 0.12492547E+04</pdfrwt>
<pdfrwt beam="2">  1       -1 0.24912540E-01 0.12492547E+04</pdfrwt>
<totfact> 0.21850632E+01</totfact>
</mgrwt>
</event>
<event>
12    2  0.3518828E-008  0.1634040E+04  0.7818608E-02  0.8799905E-01
         -4   -1    0    0    0  501 -0.00000000000E+00  0.00000000000E+00  0.49129796906E+03  0.49129796906E+03  0.00000000000E+00 0.  1.
          4   -1    0    0  501    0  0.00000000000E+00 -0.00000000000E+00 -0.13586894605E+04  0.13586894605E+04  0.00000000000E+00 0. -1.
         23    2    1    2    0    0  0.35775914875E+03 -0.33395365275E+03 -0.60736625654E+03  0.78501696394E+03  0.88550626091E+02 0.  0.
        254    2    1    2    0    0 -0.35775914875E+03  0.33395365275E+03 -0.26002523485E+03  0.10649704656E+04  0.90941317293E+03 0.  0.
         23    2    4    4    0    0 -0.50089926551E+03  0.23368720189E+03  0.17415702854E+03  0.58806729833E+03  0.99913433805E+02 0.  0.
         23    2    4    4    0    0  0.14314011676E+03  0.10026645086E+03 -0.43418226339E+03  0.47690316725E+03  0.91542006197E+02 0.  0.
          4    1    3    3  502    0  0.17557385960E+03 -0.15282401918E+03 -0.35779764227E+03  0.42684952129E+03  0.00000000000E+00 0. -1.
         -4    1    3    3    0  502  0.18218528915E+03 -0.18112963357E+03 -0.24956861427E+03  0.35816744265E+03  0.00000000000E+00 0.  1.
         11    1    5    5    0    0 -0.28733248612E+03  0.10896872195E+03  0.50023911557E+02  0.31134632111E+03  0.00000000000E+00 0.  1.
        -11    1    5    5    0    0 -0.21356677940E+03  0.12471847995E+03  0.12413311698E+03  0.27672097722E+03  0.00000000000E+00 0. -1.
          2    1    6    6  503    0  0.48978556141E+02  0.22986754416E+02 -0.25203723846E+03  0.25777909033E+03  0.00000000000E+00 0. -1.
         -2    1    6    6    0  503  0.94161560620E+02  0.77279696443E+02 -0.18214502493E+03  0.21912407692E+03  0.00000000000E+00 0.  1.
<mgrwt>
<rscale>  0 0.16340396E+04</rscale>
<asrwt>0</asrwt>
<pdfrwt beam="1">  1        4 0.20902915E+00 0.16340396E+04</pdfrwt>
<pdfrwt beam="2">  1       -4 0.75584304E-01 0.16340396E+04</pdfrwt>
<totfact> 0.34663833E-01</totfact>
</mgrwt>
</event>
<event>
12    2  0.3518828E-008  0.3087637E+04  0.7818608E-02  0.8219139E-01
          1   -1    0    0  501    0  0.00000000000E+00  0.00000000000E+00  0.15097163977E+04  0.15097163977E+04  0.00000000000E+00 0. -1.
         -1   -1    0    0    0  501 -0.00000000000E+00 -0.00000000000E+00 -0.15786906618E+04  0.15786906618E+04  0.00000000000E+00 0.  1.
         23    2    1    2    0    0 -0.66646124012E+03  0.12444458493E+04  0.11425535193E+02  0.14146587048E+04  0.91173744514E+02 0.  0.
        254    2    1    2    0    0  0.66646124012E+03 -0.12444458493E+04 -0.80399799375E+02  0.16737483547E+04  0.89563015281E+03 0.  0.
         23    2    4    4    0    0  0.10324500497E+03 -0.46939547418E+03 -0.42890712798E+03  0.65041343347E+03  0.89914780623E+02 0.  0.
         23    2    4    4    0    0  0.56321623514E+03 -0.77505037515E+03  0.34850732861E+03  0.10233349212E+04  0.88551631038E+02 0.  0.
          3    1    3    3  502    0 -0.46357691381E+03  0.91970624821E+03 -0.23150156260E+02  0.10301937040E+04  0.00000000000E+00 0. -1.
         -3    1    3    3    0  502 -0.20288432631E+03  0.32473960112E+03  0.34575691453E+02  0.38446500080E+03  0.00000000000E+00 0.  1.
         11    1    5    5    0    0  0.26400854931E+02 -0.50604002317E+02 -0.88373827392E+02  0.10520315375E+03  0.00000000000E+00 0. -1.
        -11    1    5    5    0    0  0.76844150044E+02 -0.41879147187E+03 -0.34053330059E+03  0.54521027972E+03  0.00000000000E+00 0.  1.
          4    1    6    6  503    0  0.40672086296E+02 -0.10375837719E+03  0.38232482002E+02  0.11782080512E+03  0.00000000000E+00 0. -1.
         -4    1    6    6    0  503  0.52254414885E+03 -0.67129199796E+03  0.31027484661E+03  0.90551411610E+03  0.00000000000E+00 0.  1.
<mgrwt>
<rscale>  0 0.30876368E+04</rscale>
<asrwt>0</asrwt>
<pdfrwt beam="1">  1        1 0.23226406E+00 0.30876368E+04</pdfrwt>
<pdfrwt beam="2">  1       -1 0.24287549E+00 0.30876368E+04</pdfrwt>
<totfact> 0.42233832E-01</totfact>
</mgrwt>
</event>
<event>
12    2  0.3518828E-008  0.1434441E+04  0.7818608E-02  0.8929259E-01
          2   -1    0    0  501    0  0.00000000000E+00  0.00000000000E+00  0.12233445474E+04  0.12233445474E+04  0.00000000000E+00 0. -1.
         -2   -1    0    0    0  501 -0.00000000000E+00 -0.00000000000E+00 -0.42049067453E+03  0.42049067453E+03  0.00000000000E+00 0.  1.
         23    2    1    2    0    0  0.17628405134E+03  0.37517152307E+03  0.17063118489E+03  0.45554573397E+03  0.81099790390E+02 0.  0.
        254    2    1    2    0    0 -0.17628405134E+03 -0.37517152307E+03  0.63222268794E+03  0.11882894879E+04  0.91678603909E+03 0.  0.
         23    2    4    4    0    0 -0.52373183461E+03 -0.83866852950E+02  0.27158811995E+03  0.60159847916E+03  0.82655548033E+02 0.  0.
         23    2    4    4    0    0  0.34744778327E+03 -0.29130467012E+03  0.36063456799E+03  0.58669100876E+03  0.92577941193E+02 0.  0.
          1    1    3    3  502    0  0.16509680439E+03  0.37636077256E+03  0.16800289916E+03  0.44399252254E+03  0.00000000000E+00 0. -1.
         -1    1    3    3    0  502  0.11187246951E+02 -0.11892494834E+01  0.26282857301E+01  0.11553211440E+02  0.00000000000E+00 0.  1.
         11    1    5    5    0    0 -0.47614258181E+03 -0.63601299921E+02  0.21934254931E+03  0.52807957497E+03  0.00000000000E+00 0. -1.
        -11    1    5    5    0    0 -0.47589252801E+02 -0.20265553029E+02  0.52245570635E+02  0.73518904186E+02  0.00000000000E+00 0.  1.
          2    1    6    6  503    0  0.32280342216E+03 -0.27605299755E+03  0.36141430641E+03  0.55769849174E+03  0.00000000000E+00 0. -1.
         -2    1    6    6    0  503  0.24644361109E+02 -0.15251672579E+02 -0.77973842441E+00  0.28992517016E+02  0.00000000000E+00 0.  1.
<mgrwt>
<rscale>  0 0.14344406E+04</rscale>
<asrwt>0</asrwt>
<pdfrwt beam="1">  1        2 0.18820685E+00 0.14344406E+04</pdfrwt>
<pdfrwt beam="2">  1       -2 0.64690873E-01 0.14344406E+04</pdfrwt>
<totfact> 0.39281474E+01</totfact>
</mgrwt>
</event>
<event>
12    2  0.3518828E-008  0.2148992E+04  0.7818608E-02  0.8539964E-01
          2   -1    0    0  501    0  0.00000000000E+00  0.00000000000E+00  0.20283169926E+04  0.20283169926E+04  0.00000000000E+00 0. -1.
         -2   -1    0    0    0  501 -0.00000000000E+00 -0.00000000000E+00 -0.56921190142E+03  0.56921190142E+03  0.00000000000E+00 0.  1.
         23    2    1    2    0    0 -0.28695939076E+03  0.66151724420E+03  0.12194428440E+04  0.14193837238E+04  0.87513137476E+02 0.  0.
        254    2    1    2    0    0  0.28695939076E+03 -0.66151724420E+03  0.23966224724E+03  0.11781451703E+04  0.90035398218E+03 0.  0.
         23    2    4    4    0    0  0.59958747252E+03 -0.51055483593E+03  0.13320614572E+03  0.80393399548E+03  0.91622126977E+02 0.  0.
         23    2    4    4    0    0 -0.31262808175E+03 -0.15096240828E+03  0.10645610152E+03  0.37421117481E+03  0.90416456420E+02 0.  0.
          3    1    3    3  502    0 -0.17258065758E+03  0.39589070004E+03  0.81243010342E+03  0.92008488885E+03  0.00000000000E+00 0. -1.
         -3    1    3    3    0  502 -0.11437873319E+03  0.26562654416E+03  0.40701274056E+03  0.49929883492E+03  0.00000000000E+00 0.  1.
         11    1    5    5    0    0  0.29110103783E+03 -0.20479442094E+03  0.92135929540E+02  0.36765418342E+03  0.00000000000E+00 0. -1.
        -11    1    5    5    0    0  0.30848643469E+03 -0.30576041499E+03  0.41070216181E+02  0.43627981207E+03  0.00000000000E+00 0.  1.
          3    1    6    6  503    0 -0.24819386330E+03 -0.15428693959E+03  0.71625934252E+02  0.30089022577E+03  0.00000000000E+00 0. -1.
         -3    1    6    6    0  503 -0.64434218458E+02  0.33245313180E+01  0.34830167265E+02  0.73320949042E+02  0.00000000000E+00 0.  1.
<mgrwt>
<rscale>  0 0.21489925E+04</rscale>
<asrwt>0</asrwt>
<pdfrwt beam="1">  1        2 0.31204877E+00 0.21489925E+04</pdfrwt>
<pdfrwt beam="2">  1       -2 0.87571063E-01 0.21489925E+04</pdfrwt>
<totfact> 0.66554445E+00</totfact>
</mgrwt>
</event>
<event>
12    2  0.3518828E-008  0.1636698E+04  0.7818608E-02  0.8798315E-01
         -1   -1    0    0    0  501 -0.00000000000E+00  0.00000000000E+00  0.25772089520E+03  0.25772089520E+03  0.00000000000E+00 0.  1.
          1   -1    0    0  501    0  0.00000000000E+00 -0.00000000000E+00 -0.25985282890E+04  0.25985282890E+04  0.00000000000E+00 0. -1.
         23    2    1    2    0    0 -0.49381349184E+03 -0.25750204152E+03 -0.90988238263E+03  0.10708186997E+04  0.92777536116E+02 0.  0.
        254    2    1    2    0    0  0.49381349184E+03  0.25750204152E+03 -0.14309250112E+04  0.17854304845E+04  0.91107439951E+03 0.  0.
         23    2    4    4    0    0 -0.12660399985E+03 -0.96875674681E+02 -0.82262770723E+03  0.84274190876E+03  0.89911684226E+02 0.  0.
         23    2    4    4    0    0  0.62041749169E+03  0.35437771620E+03 -0.60829730393E+03  0.94268857578E+03  0.90192633827E+02 0.  0.
          1    1    3    3  502    0 -0.19971233576E+03 -0.12416426641E+03 -0.46516734220E+03  0.52123165518E+03  0.00000000000E+00 0. -1.
         -1    1    3    3    0  502 -0.29410115608E+03 -0.13333777511E+03 -0.44471504043E+03  0.54958704448E+03  0.00000000000E+00 0.  1.
         11    1    5    5    0    0 -0.10313450733E+03 -0.24132736036E+02 -0.51282856772E+03  0.52365280045E+03  0.00000000000E+00 0. -1.
        -11    1    5    5    0    0 -0.23469492517E+02 -0.72742938645E+02 -0.30979913951E+03  0.31908910831E+03  0.00000000000E+00 0.  1.
          1    1    6    6  503    0  0.60571968370E+03  0.35484183206E+03 -0.60679693708E+03  0.92790709872E+03  0.00000000000E+00 0. -1.
         -1    1    6    6    0  503  0.14697807994E+02 -0.46411586401E+00 -0.15003668491E+01  0.14781477059E+02  0.00000000000E+00 0.  1.
<mgrwt>
<rscale>  0 0.16366979E+04</rscale>
<asrwt>0</asrwt>
<pdfrwt beam="1">  1        1 0.39977358E+00 0.16366979E+04</pdfrwt>
<pdfrwt beam="2">  1       -1 0.39649369E-01 0.16366979E+04</pdfrwt>
<totfact> 0.68643824E+00</totfact>
</mgrwt>
</event>
<event>
12    2  0.3518828E-008  0.2091868E+04  0.7818608E-02  0.8564834E-01
          1   -1    0    0  501    0  0.00000000000E+00  0.00000000000E+00  0.80349941654E+03  0.80349941654E+03  0.00000000000E+00 0. -1.
         -1   -1    0    0    0  501 -0.00000000000E+00 -0.00000000000E+00 -0.13615171818E+04  0.13615171818E+04  0.00000000000E+00 0.  1.
         23    2    1    2    0    0  0.38264995424E+03 -0.70994940430E+03  0.49077097899E+02  0.81315584225E+03  0.91458832814E+02 0.  0.
        254    2    1    2    0    0 -0.38264995424E+03  0.70994940430E+03 -0.60709486313E+03  0.13518607561E+04  0.89917416932E+03 0.  0.
         23    2    4    4    0    0  0.86673220956E+02  0.74851452824E+02 -0.53336186762E+03  0.55363027637E+03  0.94427823508E+02 0.  0.
         23    2    4    4    0    0 -0.46932317520E+03  0.63509795148E+03 -0.73732995502E+02  0.79823047968E+03  0.90120437900E+02 0.  0.
          3    1    3    3  502    0  0.45506740525E+02 -0.59581205882E+02 -0.19286098730E+02  0.77412771115E+02  0.00000000000E+00 0. -1.
         -3    1    3    3    0  502  0.33714321372E+03 -0.65036819842E+03  0.68363196629E+02  0.73574307113E+03  0.00000000000E+00 0.  1.
         11    1    5    5    0    0  0.92498412149E+02  0.28983782379E+02 -0.28588315727E+03  0.30186950078E+03  0.00000000000E+00 0.  1.
        -11    1    5    5    0    0 -0.58251911934E+01  0.45867670445E+02 -0.24747871035E+03  0.25176077558E+03  0.00000000000E+00 0. -1.
          3    1    6    6  503    0 -0.85280189471E+02  0.10006735743E+03  0.20033622184E+02  0.13299448394E+03  0.00000000000E+00 0. -1.
         -3    1    6    6    0  503 -0.38404298573E+03  0.53503059404E+03 -0.93766617686E+02  0.66523599575E+03  0.00000000000E+00 0.  1.
<mgrwt>
<rscale>  0 0.20918683E+04</rscale>
<asrwt>0</asrwt>
<pdfrwt beam="1">  1        1 0.12361530E+00 0.20918683E+04</pdfrwt>
<pdfrwt beam="2">  1       -1 0.20946418E+00 0.20918683E+04</pdfrwt>
<totfact> 0.26191733E+00</totfact>
</mgrwt>
</event>
<event>
12    2  0.3518828E-008  0.3631709E+04  0.7818608E-02  0.8083267E-01
         -2   -1    0    0    0  501 -0.00000000000E+00  0.00000000000E+00  0.10043301334E+04  0.10043301334E+04  0.00000000000E+00 0.  1.
          2   -1    0    0  501    0  0.00000000000E+00 -0.00000000000E+00 -0.32831115907E+04  0.32831115907E+04  0.00000000000E+00 0. -1.
         23    2    1    2    0    0  0.16815440394E+04 -0.20553401591E+03 -0.12413288209E+04  0.21020775112E+04  0.89431725075E+02 0.  0.
        254    2    1    2    0    0 -0.16815440394E+04  0.20553401591E+03 -0.10374526364E+04  0.21853642129E+04  0.91086452465E+03 0.  0.
         23    2    4    4    0    0 -0.12514324092E+03 -0.19690292345E+03 -0.35853001004E+03  0.43788874361E+03  0.93654640424E+02 0.  0.
         23    2    4    4    0    0 -0.15564007985E+04  0.40243693936E+03 -0.67892262633E+03  0.17474754693E+04  0.91627766637E+02 0.  0.
          3    1    3    3  502    0  0.11015808619E+04 -0.16509309183E+03 -0.85230152679E+03  0.14025526788E+04  0.00000000000E+00 0. -1.
         -3    1    3    3    0  502  0.57996317750E+03 -0.40440924081E+02 -0.38902729413E+03  0.69952483242E+03  0.00000000000E+00 0.  1.
         11    1    5    5    0    0 -0.13086053093E+02 -0.87557925414E+02 -0.17887402473E+03  0.19958344574E+03  0.00000000000E+00 0. -1.
        -11    1    5    5    0    0 -0.11205718783E+03 -0.10934499803E+03 -0.17965598530E+03  0.23830529787E+03  0.00000000000E+00 0.  1.
          1    1    6    6  503    0 -0.15358443491E+04  0.39863165107E+03 -0.68052015731E+03  0.17265088307E+04  0.00000000000E+00 0. -1.
         -1    1    6    6    0  503 -0.20556449399E+02  0.38052882937E+01  0.15975309869E+01  0.20966638646E+02  0.00000000000E+00 0.  1.
<mgrwt>
<rscale>  0 0.36317092E+04</rscale>
<asrwt>0</asrwt>
<pdfrwt beam="1">  1        2 0.50509410E+00 0.36317092E+04</pdfrwt>
<pdfrwt beam="2">  1       -2 0.15451233E+00 0.36317092E+04</pdfrwt>
<totfact> 0.25695381E-01</totfact>
</mgrwt>
</event>
<event>
12    2  0.3518828E-008  0.1509097E+04  0.7818608E-02  0.8878426E-01
          2   -1    0    0  501    0  0.00000000000E+00  0.00000000000E+00  0.29796825297E+04  0.29796825297E+04  0.00000000000E+00 0. -1.
         -2   -1    0    0    0  501 -0.00000000000E+00 -0.00000000000E+00 -0.19107518943E+03  0.19107518943E+03  0.00000000000E+00 0.  1.
         23    2    1    2    0    0  0.45095336594E+03 -0.23180604786E+02  0.12134239201E+04  0.12979142831E+04  0.91036244296E+02 0.  0.
        254    2    1    2    0    0 -0.45095336594E+03  0.23180604786E+02  0.15751834203E+04  0.18728434361E+04  0.90688667978E+03 0.  0.
         23    2    4    4    0    0 -0.25871387064E+03  0.33531693349E+03  0.13831501789E+04  0.14495579458E+04  0.93506726526E+02 0.  0.
         23    2    4    4    0    0 -0.19223949530E+03 -0.31213632870E+03  0.19203324134E+03  0.42328549034E+03  0.88931036765E+02 0.  0.
          1    1    3    3  502    0  0.26895134301E+03  0.12168522556E+02  0.61297983204E+03  0.66949770152E+03  0.00000000000E+00 0. -1.
         -1    1    3    3    0  502  0.18200202293E+03 -0.35349127342E+02  0.60044408801E+03  0.62841658156E+03  0.00000000000E+00 0.  1.
         11    1    5    5    0    0 -0.62606901301E+01  0.15504121873E+02  0.16607948774E+02  0.23566883511E+02  0.00000000000E+00 0. -1.
        -11    1    5    5    0    0 -0.25245318051E+03  0.31981281162E+03  0.13665422302E+04  0.14259910622E+04  0.00000000000E+00 0.  1.
          3    1    6    6  503    0 -0.17562305514E+02 -0.28608337801E+02  0.52287512855E+02  0.62135783308E+02  0.00000000000E+00 0. -1.
         -3    1    6    6    0  503 -0.17467718979E+03 -0.28352799090E+03  0.13974572848E+03  0.36114970703E+03  0.00000000000E+00 0.  1.
<mgrwt>
<rscale>  0 0.15090970E+04</rscale>
<asrwt>0</asrwt>
<pdfrwt beam="1">  1        2 0.45841266E+00 0.15090970E+04</pdfrwt>
<pdfrwt beam="2">  1       -2 0.29396185E-01 0.15090970E+04</pdfrwt>
<totfact> 0.18566842E+01</totfact>
</mgrwt>
</event>
<event>
12    2  0.3518828E-008  0.1802343E+04  0.7818608E-02  0.8705054E-01
          1   -1    0    0  501    0  0.00000000000E+00  0.00000000000E+00  0.11130277467E+04  0.11130277467E+04  0.00000000000E+00 0. -1.
         -1   -1    0    0    0  501 -0.00000000000E+00 -0.00000000000E+00 -0.72964047654E+03  0.72964047654E+03  0.00000000000E+00 0.  1.
         23    2    1    2    0    0  0.54361669349E+02  0.30608566128E+03 -0.45346915574E+03  0.55890980112E+03  0.10051003651E+03 0.  0.
        254    2    1    2    0    0 -0.54361669349E+02 -0.30608566128E+03  0.83685642592E+03  0.12837584221E+04  0.92253096732E+03 0.  0.
         23    2    4    4    0    0  0.22672726469E+03  0.42368981822E+02 -0.77471851504E+02  0.26164548900E+03  0.96208580531E+02 0.  0.
         23    2    4    4    0    0 -0.28108893403E+03 -0.34845464310E+03  0.91432827742E+03  0.10221129331E+04  0.91033082140E+02 0.  0.
          4    1    3    3  502    0  0.67077798944E+02  0.30399184367E+03 -0.44635134241E+03  0.54418746126E+03  0.00000000000E+00 0.  1.
         -4    1    3    3    0  502 -0.12716129595E+02  0.20938176088E+01 -0.71178133352E+01  0.14722339852E+02  0.00000000000E+00 0. -1.
         11    1    5    5    0    0  0.54932866716E+02  0.54140847561E+02 -0.15748397005E+02  0.78720157701E+02  0.00000000000E+00 0. -1.
        -11    1    5    5    0    0  0.17179439797E+03 -0.11771865739E+02 -0.61723454499E+02  0.18292533130E+03  0.00000000000E+00 0.  1.
          2    1    6    6  503    0 -0.59226179790E+02 -0.13834608270E+03  0.27375386846E+03  0.31239167638E+03  0.00000000000E+00 0. -1.
         -2    1    6    6    0  503 -0.22186275425E+03 -0.21010856040E+03  0.64057440896E+03  0.70972125675E+03  0.00000000000E+00 0.  1.
<mgrwt>
<rscale>  0 0.18023430E+04</rscale>
<asrwt>0</asrwt>
<pdfrwt beam="1">  1        1 0.17123504E+00 0.18023430E+04</pdfrwt>
<pdfrwt beam="2">  1       -1 0.11225238E+00 0.18023430E+04</pdfrwt>
<totfact> 0.85065577E+00</totfact>
</mgrwt>
</event>
<event>
12    2  0.3518828E-008  0.1207587E+04  0.7818608E-02  0.9106242E-01
         -1   -1    0    0    0  501 -0.00000000000E+00  0.00000000000E+00  0.13372207291E+03  0.13372207291E+03  0.00000000000E+00 0.  1.
          1   -1    0    0  501    0  0.00000000000E+00 -0.00000000000E+00 -0.27262991659E+04  0.27262991659E+04  0.00000000000E+00 0. -1.
         23    2    1    2    0    0 -0.10015548853E+03 -0.63796323737E+02 -0.56259186139E+02  0.15861459006E+03  0.88839176887E+02 0.  0.
        254    2    1    2    0    0  0.10015548853E+03  0.63796323737E+02 -0.25363179069E+04  0.27014066488E+04  0.92227342178E+03 0.  0.
         23    2    4    4    0    0 -0.39274263075E+02  0.62826721810E+01  0.50814099204E+02  0.10818159972E+03  0.86828832372E+02 0.  0.
         23    2    4    4    0    0  0.13942975160E+03  0.57513651556E+02 -0.25871320061E+04  0.25932250490E+04  0.93891759009E+02 0.  0.
          2    1    3    3  502    0 -0.93981508552E+02 -0.84474549257E+02 -0.51840329349E+02  0.13658657756E+03  0.00000000000E+00 0.  1.
         -2    1    3    3    0  502 -0.61739799767E+01  0.20678225521E+02 -0.44188567900E+01  0.22028012501E+02  0.00000000000E+00 0. -1.
         11    1    5    5    0    0 -0.53931358846E+02 -0.74895687270E+01  0.64079562106E+02  0.84088497349E+02  0.00000000000E+00 0.  1.
        -11    1    5    5    0    0  0.14657095771E+02  0.13772240908E+02 -0.13265462902E+02  0.24093102375E+02  0.00000000000E+00 0. -1.
          2    1    6    6  503    0  0.36817129695E+02 -0.24961931705E+02 -0.81242696553E+03  0.81364376320E+03  0.00000000000E+00 0. -1.
         -2    1    6    6    0  503  0.10261262191E+03  0.82475583261E+02 -0.17747050405E+04  0.17795812859E+04  0.00000000000E+00 0.  1.
<mgrwt>
<rscale>  0 0.12075866E+04</rscale>
<asrwt>0</asrwt>
<pdfrwt beam="1">  1        1 0.41943063E+00 0.12075866E+04</pdfrwt>
<pdfrwt beam="2">  1       -1 0.20572627E-01 0.12075866E+04</pdfrwt>
<totfact> 0.18306515E+01</totfact>
</mgrwt>
</event>
<event>
12    2  0.3518828E-008  0.1437877E+04  0.7818608E-02  0.8926848E-01
          2   -1    0    0  501    0  0.00000000000E+00  0.00000000000E+00  0.10130484993E+04  0.10130484993E+04  0.00000000000E+00 0. -1.
         -2   -1    0    0    0  501 -0.00000000000E+00 -0.00000000000E+00 -0.51021534370E+03  0.51021534370E+03  0.00000000000E+00 0.  1.
         23    2    1    2    0    0  0.21768621417E+03 -0.35225562644E+03  0.27331333568E+03  0.50726310161E+03  0.10556685366E+03 0.  0.
        254    2    1    2    0    0 -0.21768621417E+03  0.35225562644E+03  0.22951981994E+03  0.10160007414E+04  0.89894763175E+03 0.  0.
         23    2    4    4    0    0 -0.50803717600E+03  0.52869806222E+02 -0.22845989700E+02  0.52036325578E+03  0.96741873670E+02 0.  0.
         23    2    4    4    0    0  0.29035096183E+03  0.29938582022E+03  0.25236580964E+03  0.49563748564E+03  0.89624019747E+02 0.  0.
          4    1    3    3  502    0  0.18953406213E+03 -0.28757723985E+03  0.17518298076E+03  0.38641028239E+03  0.00000000000E+00 0. -1.
         -4    1    3    3    0  502  0.28152152042E+02 -0.64678386591E+02  0.98130354919E+02  0.12085281922E+03  0.00000000000E+00 0.  1.
         11    1    5    5    0    0 -0.24740465355E+03  0.12630691292E+01  0.30772751284E+02  0.24931429996E+03  0.00000000000E+00 0.  1.
        -11    1    5    5    0    0 -0.26063252244E+03  0.51606737093E+02 -0.53618740984E+02  0.27104895582E+03  0.00000000000E+00 0. -1.
          3    1    6    6  503    0  0.80706747918E+02  0.91564182050E+02  0.12318653964E+03  0.17341425011E+03  0.00000000000E+00 0. -1.
         -3    1    6    6    0  503  0.20964421391E+03  0.20782163817E+03  0.12917927000E+03  0.32222323553E+03  0.00000000000E+00 0.  1.
<mgrwt>
<rscale>  0 0.14378774E+04</rscale>
<asrwt>0</asrwt>
<pdfrwt beam="1">  1        2 0.15585361E+00 0.14378774E+04</pdfrwt>
<pdfrwt beam="2">  1       -2 0.78494668E-01 0.14378774E+04</pdfrwt>
<totfact> 0.34604051E+01</totfact>
</mgrwt>
</event>
<event>
12    2  0.3518828E-008  0.2500438E+04  0.7818608E-02  0.8402830E-01
          2   -1    0    0  501    0  0.00000000000E+00  0.00000000000E+00  0.13848934531E+04  0.13848934531E+04  0.00000000000E+00 0.  1.
         -2   -1    0    0    0  501 -0.00000000000E+00 -0.00000000000E+00 -0.11286407656E+04  0.11286407656E+04  0.00000000000E+00 0. -1.
         23    2    1    2    0    0  0.45544738008E+03 -0.27038688816E+03  0.10515771993E+04  0.11809199886E+04  0.90642308527E+02 0.  0.
        254    2    1    2    0    0 -0.45544738008E+03  0.27038688816E+03 -0.79532451174E+03  0.13326142302E+04  0.92885855880E+03 0.  0.
         23    2    4    4    0    0 -0.11970344276E+03 -0.33227985748E+03 -0.19415080455E+03  0.41310063647E+03  0.90657504095E+02 0.  0.
         23    2    4    4    0    0 -0.33574393732E+03  0.60266674564E+03 -0.60117370719E+03  0.91951359373E+03  0.90356101607E+02 0.  0.
          4    1    3    3  502    0  0.61436412557E+02 -0.12324234003E+02  0.84023745317E+02  0.10481559669E+03  0.00000000000E+00 0. -1.
         -4    1    3    3    0  502  0.39401096752E+03 -0.25806265415E+03  0.96755345394E+03  0.10761043919E+04  0.00000000000E+00 0.  1.
         11    1    5    5    0    0 -0.11389183239E+03 -0.20229857322E+03 -0.14662431664E+03  0.27458104895E+03  0.00000000000E+00 0. -1.
        -11    1    5    5    0    0 -0.58116103665E+01 -0.12998128426E+03 -0.47526487902E+02  0.13851958752E+03  0.00000000000E+00 0.  1.
          2    1    6    6  503    0 -0.28460652568E+03  0.43478295207E+03 -0.46599215823E+03  0.69798694931E+03  0.00000000000E+00 0.  1.
         -2    1    6    6    0  503 -0.51137411646E+02  0.16788379357E+03 -0.13518154896E+03  0.22152664443E+03  0.00000000000E+00 0. -1.
<mgrwt>
<rscale>  0 0.25004377E+04</rscale>
<asrwt>0</asrwt>
<pdfrwt beam="1">  1        2 0.21306053E+00 0.25004377E+04</pdfrwt>
<pdfrwt beam="2">  1       -2 0.17363704E+00 0.25004377E+04</pdfrwt>
<totfact> 0.26448986E+00</totfact>
</mgrwt>
</event>
<event>
12    2  0.3518828E-008  0.2197255E+04  0.7818608E-02  0.8519572E-01
         -1   -1    0    0    0  501 -0.00000000000E+00  0.00000000000E+00  0.53171675789E+03  0.53171675789E+03  0.00000000000E+00 0.  1.
          1   -1    0    0  501    0  0.00000000000E+00 -0.00000000000E+00 -0.22699718682E+04  0.22699718682E+04  0.00000000000E+00 0. -1.
         23    2    1    2    0    0 -0.40355849375E+03 -0.16170405854E+03  0.29069769805E+03  0.53207172364E+03  0.97915816003E+02 0.  0.
        254    2    1    2    0    0  0.40355849375E+03  0.16170405854E+03 -0.20289528084E+04  0.22696169025E+04  0.91951276495E+03 0.  0.
         23    2    4    4    0    0  0.61938597738E+03  0.21523091237E+03 -0.18634476394E+04  0.19774498553E+04  0.88924073828E+02 0.  0.
         23    2    4    4    0    0 -0.21582748362E+03 -0.53526853833E+02 -0.16550516895E+03  0.29216704712E+03  0.92320072064E+02 0.  0.
          3    1    3    3  502    0 -0.22173455155E+02 -0.29598808300E+02  0.49802347614E+02  0.62032454361E+02  0.00000000000E+00 0. -1.
         -3    1    3    3    0  502 -0.38138503860E+03 -0.13210525024E+03  0.24089535043E+03  0.47003926928E+03  0.00000000000E+00 0.  1.
         11    1    5    5    0    0  0.54920647955E+02  0.48163288431E+02 -0.20558232551E+03  0.21817440841E+03  0.00000000000E+00 0.  1.
        -11    1    5    5    0    0  0.56446532942E+03  0.16706762394E+03 -0.16578653139E+04  0.17592754469E+04  0.00000000000E+00 0. -1.
          1    1    6    6  503    0 -0.20662395380E+03 -0.72050051901E+02 -0.14202037236E+03  0.26087248691E+03  0.00000000000E+00 0. -1.
         -1    1    6    6    0  503 -0.92035298273E+01  0.18523198067E+02 -0.23484796592E+02  0.31294560213E+02  0.00000000000E+00 0.  1.
<mgrwt>
<rscale>  0 0.21972547E+04</rscale>
<asrwt>0</asrwt>
<pdfrwt beam="1">  1        1 0.34922644E+00 0.21972547E+04</pdfrwt>
<pdfrwt beam="2">  1       -1 0.81802578E-01 0.21972547E+04</pdfrwt>
<totfact> 0.26463704E+00</totfact>
</mgrwt>
</event>
<event>
12    2  0.3518828E-008  0.1612305E+04  0.7818608E-02  0.8813024E-01
          1   -1    0    0  501    0  0.00000000000E+00  0.00000000000E+00  0.46578101007E+03  0.46578101007E+03  0.00000000000E+00 0. -1.
         -1   -1    0    0    0  501 -0.00000000000E+00 -0.00000000000E+00 -0.13952524381E+04  0.13952524381E+04  0.00000000000E+00 0.  1.
         23    2    1    2    0    0  0.72410177382E+02 -0.50832596051E+03 -0.55574659899E+03  0.76211497582E+03  0.91249318621E+02 0.  0.
        254    2    1    2    0    0 -0.72410177382E+02  0.50832596051E+03 -0.37372482901E+03  0.10989184723E+04  0.89683501552E+03 0.  0.
         23    2    4    4    0    0  0.48443029612E+02  0.59710712374E+03 -0.57010571959E+03  0.83198862741E+03  0.91109276725E+02 0.  0.
         23    2    4    4    0    0 -0.12085320699E+03 -0.88781163223E+02  0.19638089058E+03  0.26692984490E+03  0.10098759989E+03 0.  0.
          1    1    3    3  502    0  0.19454830610E+02 -0.15877095561E+02 -0.38596258574E+02  0.46046104867E+02  0.00000000000E+00 0. -1.
         -1    1    3    3    0  502  0.52955346772E+02 -0.49244886495E+03 -0.51715034042E+03  0.71606887095E+03  0.00000000000E+00 0.  1.
         11    1    5    5    0    0 -0.15218720038E+02  0.29643390704E+03 -0.31210618983E+03  0.43071445809E+03  0.00000000000E+00 0.  1.
        -11    1    5    5    0    0  0.63661749650E+02  0.30067321670E+03 -0.25799952976E+03  0.40127416932E+03  0.00000000000E+00 0. -1.
          2    1    6    6  503    0 -0.30744913486E+02 -0.12023438365E+02 -0.49489698536E+01  0.33381208456E+02  0.00000000000E+00 0. -1.
         -2    1    6    6    0  503 -0.90108293508E+02 -0.76757724859E+02  0.20132986043E+03  0.23354863645E+03  0.00000000000E+00 0.  1.
<mgrwt>
<rscale>  0 0.16123053E+04</rscale>
<asrwt>0</asrwt>
<pdfrwt beam="1">  1        1 0.71658617E-01 0.16123053E+04</pdfrwt>
<pdfrwt beam="2">  1       -1 0.21465422E+00 0.16123053E+04</pdfrwt>
<totfact> 0.55983393E+00</totfact>
</mgrwt>
</event>
<event>
12    2  0.3518828E-008  0.4428886E+04  0.7818608E-02  0.7923206E-01
          1   -1    0    0  501    0  0.00000000000E+00  0.00000000000E+00  0.29750536075E+04  0.29750536075E+04  0.00000000000E+00 0. -1.
         -1   -1    0    0    0  501 -0.00000000000E+00 -0.00000000000E+00 -0.16482920331E+04  0.16482920331E+04  0.00000000000E+00 0.  1.
         23    2    1    2    0    0 -0.33579966848E+03  0.33957630929E+03 -0.15227517662E+04  0.15983487856E+04  0.88726613920E+02 0.  0.
        254    2    1    2    0    0  0.33579966848E+03 -0.33957630929E+03  0.28495133405E+04  0.30249968550E+04  0.89599453562E+03 0.  0.
         23    2    4    4    0    0  0.52340556514E+03 -0.46386381021E+03  0.15503212444E+04  0.17031860095E+04  0.90684078709E+02 0.  0.
         23    2    4    4    0    0 -0.18760589666E+03  0.12428750092E+03  0.12991920961E+04  0.13218108455E+04  0.92954038715E+02 0.  0.
          3    1    3    3  502    0 -0.94669194850E+02  0.69850569390E+02 -0.49454581850E+03  0.50834724854E+03  0.00000000000E+00 0. -1.
         -3    1    3    3    0  502 -0.24113047363E+03  0.26972573990E+03 -0.10282059477E+04  0.10900015371E+04  0.00000000000E+00 0.  1.
         11    1    5    5    0    0  0.41806812795E+03 -0.33131630248E+03  0.12351844387E+04  0.13454486425E+04  0.00000000000E+00 0. -1.
        -11    1    5    5    0    0  0.10533743718E+03 -0.13254750773E+03  0.31513680568E+03  0.35773736703E+03  0.00000000000E+00 0.  1.
          1    1    6    6  503    0 -0.16560454292E+03  0.78146949020E+02  0.83677998832E+03  0.85658190451E+03  0.00000000000E+00 0. -1.
         -1    1    6    6    0  503 -0.22001353734E+02  0.46140551897E+02  0.46241210780E+03  0.46522894099E+03  0.00000000000E+00 0.  1.
<mgrwt>
<rscale>  0 0.44288857E+04</rscale>
<asrwt>0</asrwt>
<pdfrwt beam="1">  1        1 0.45770055E+00 0.44288857E+04</pdfrwt>
<pdfrwt beam="2">  1       -1 0.25358339E+00 0.44288857E+04</pdfrwt>
<totfact> 0.31112890E-02</totfact>
</mgrwt>
</event>
<event>
12    2  0.3518828E-008  0.1972209E+04  0.7818608E-02  0.8619725E-01
         -2   -1    0    0    0  501 -0.00000000000E+00  0.00000000000E+00  0.47306790306E+03  0.47306790306E+03  0.00000000000E+00 0.  1.
          2   -1    0    0  501    0  0.00000000000E+00 -0.00000000000E+00 -0.20555238293E+04  0.20555238293E+04  0.00000000000E+00 0. -1.
         23    2    1    2    0    0 -0.31923348519E+03  0.64450918152E+03 -0.99506816360E+03  0.12314928639E+04  0.95456380202E+02 0.  0.
        254    2    1    2    0    0  0.31923348519E+03 -0.64450918152E+03 -0.58738776266E+03  0.12970988685E+04  0.90561525372E+03 0.  0.
         23    2    4    4    0    0  0.57697479691E+03 -0.66219597548E+03 -0.44748888163E+03  0.98991242641E+03  0.90977395821E+02 0.  0.
         23    2    4    4    0    0 -0.25774131172E+03  0.17686793967E+02 -0.13989888103E+03  0.30718644208E+03  0.89712913421E+02 0.  0.
          3    1    3    3  502    0 -0.24284885314E+03  0.51426728969E+03 -0.71798487051E+03  0.91594142007E+03  0.00000000000E+00 0. -1.
         -3    1    3    3    0  502 -0.76384632052E+02  0.13024189183E+03 -0.27708329309E+03  0.31555144384E+03  0.00000000000E+00 0.  1.
         11    1    5    5    0    0  0.30689777445E+03 -0.29181808371E+03 -0.19006823739E+03  0.46418743284E+03  0.00000000000E+00 0.  1.
        -11    1    5    5    0    0  0.27007702246E+03 -0.37037789177E+03 -0.25742064425E+03  0.52572499356E+03  0.00000000000E+00 0. -1.
          4    1    6    6  503    0 -0.15083411010E+03  0.44888535269E+02 -0.50747366775E+02  0.16535176020E+03  0.00000000000E+00 0. -1.
         -4    1    6    6    0  503 -0.10690720162E+03 -0.27201741302E+02 -0.89151514253E+02  0.14183468187E+03  0.00000000000E+00 0.  1.
<mgrwt>
<rscale>  0 0.19722093E+04</rscale>
<asrwt>0</asrwt>
<pdfrwt beam="1">  1        2 0.31623443E+00 0.19722093E+04</pdfrwt>
<pdfrwt beam="2">  1       -2 0.72779679E-01 0.19722093E+04</pdfrwt>
<totfact> 0.98862833E+00</totfact>
</mgrwt>
</event>
<event>
12    2  0.3518828E-008  0.1550683E+04  0.7818608E-02  0.8851432E-01
         -2   -1    0    0    0  501 -0.00000000000E+00  0.00000000000E+00  0.24576386858E+03  0.24576386858E+03  0.00000000000E+00 0. -1.
          2   -1    0    0  501    0  0.00000000000E+00 -0.00000000000E+00 -0.24460655392E+04  0.24460655392E+04  0.00000000000E+00 0.  1.
         23    2    1    2    0    0 -0.49448595178E+01 -0.83937081132E+02 -0.15885547015E+04  0.15937635293E+04  0.97500064436E+02 0.  0.
        254    2    1    2    0    0  0.49448595178E+01  0.83937081132E+02 -0.61174696908E+03  0.10980658784E+04  0.90798922565E+03 0.  0.
         23    2    4    4    0    0 -0.10671714595E+03 -0.26102982296E+03 -0.65849463099E+03  0.72171226896E+03  0.87910763900E+02 0.  0.
         23    2    4    4    0    0  0.11166200546E+03  0.34496690409E+03  0.46747661913E+02  0.37635360944E+03  0.89365133355E+02 0.  0.
          2    1    3    3  502    0  0.44407875073E+02 -0.22751285074E+02 -0.66514008333E+03  0.66700900354E+03  0.00000000000E+00 0. -1.
         -2    1    3    3    0  502 -0.49352734591E+02 -0.61185796059E+02 -0.92341461817E+03  0.92675452581E+03  0.00000000000E+00 0.  1.
         11    1    5    5    0    0 -0.26487867722E+01 -0.25934643083E+02 -0.18384531907E+02  0.31900043834E+02  0.00000000000E+00 0. -1.
        -11    1    5    5    0    0 -0.10406835917E+03 -0.23509517988E+03 -0.64011009908E+03  0.68981222512E+03  0.00000000000E+00 0.  1.
          4    1    6    6  503    0 -0.13640782784E+02  0.60638907405E+02  0.78380173461E-01  0.62154277324E+02  0.00000000000E+00 0. -1.
         -4    1    6    6    0  503  0.12530278825E+03  0.28432799668E+03  0.46669281739E+02  0.31419933211E+03  0.00000000000E+00 0.  1.
<mgrwt>
<rscale>  0 0.15506831E+04</rscale>
<asrwt>0</asrwt>
<pdfrwt beam="1">  1        2 0.37631779E+00 0.15506831E+04</pdfrwt>
<pdfrwt beam="2">  1       -2 0.37809825E-01 0.15506831E+04</pdfrwt>
<totfact> 0.23814463E+01</totfact>
</mgrwt>
</event>
<event>
12    2  0.3518828E-008  0.2047298E+04  0.7818608E-02  0.8584821E-01
          1   -1    0    0  501    0  0.00000000000E+00  0.00000000000E+00  0.15721742184E+04  0.15721742184E+04  0.00000000000E+00 0. -1.
         -1   -1    0    0    0  501 -0.00000000000E+00 -0.00000000000E+00 -0.66650218693E+03  0.66650218693E+03  0.00000000000E+00 0.  1.
         23    2    1    2    0    0 -0.10541072148E+03 -0.78315940160E+03  0.89389626920E+02  0.80323230091E+03  0.11287849798E+03 0.  0.
        254    2    1    2    0    0  0.10541072148E+03  0.78315940160E+03  0.81628240453E+03  0.14354441044E+04  0.87734414250E+03 0.  0.
         23    2    4    4    0    0  0.32615760006E+03  0.46469585427E+03  0.86023456409E+03  0.10348261467E+04  0.92415537400E+02 0.  0.
         23    2    4    4    0    0 -0.22074687857E+03  0.31846354734E+03 -0.43952159561E+02  0.40061795772E+03  0.91731893763E+02 0.  0.
          4    1    3    3  502    0 -0.55369608480E+02 -0.15260078859E+03  0.48252354858E+02  0.16935490537E+03  0.00000000000E+00 0. -1.
         -4    1    3    3    0  502 -0.50041113004E+02 -0.63055861301E+03  0.41137272062E+02  0.63387739555E+03  0.00000000000E+00 0.  1.
         11    1    5    5    0    0  0.25143252783E+03  0.28372755181E+03  0.55094325126E+03  0.66877358337E+03  0.00000000000E+00 0. -1.
        -11    1    5    5    0    0  0.74725072226E+02  0.18096830246E+03  0.30929131283E+03  0.36605256331E+03  0.00000000000E+00 0.  1.
          4    1    6    6  503    0 -0.19821574366E+03  0.29750113699E+03 -0.64981963211E+02  0.36334427626E+03  0.00000000000E+00 0. -1.
         -4    1    6    6    0  503 -0.22531134914E+02  0.20962410341E+02  0.21029803650E+02  0.37273681458E+02  0.00000000000E+00 0.  1.
<mgrwt>
<rscale>  0 0.20472983E+04</rscale>
<asrwt>0</asrwt>
<pdfrwt beam="1">  1        1 0.24187296E+00 0.20472983E+04</pdfrwt>
<pdfrwt beam="2">  1       -1 0.10253880E+00 0.20472983E+04</pdfrwt>
<totfact> 0.48465457E+00</totfact>
</mgrwt>
</event>
<event>
12    2  0.3518828E-008  0.1415071E+04  0.7818608E-02  0.8942981E-01
          2   -1    0    0  501    0  0.00000000000E+00  0.00000000000E+00  0.35442534032E+04  0.35442534032E+04  0.00000000000E+00 0. -1.
         -2   -1    0    0    0  501 -0.00000000000E+00 -0.00000000000E+00 -0.14124463973E+03  0.14124463973E+03  0.00000000000E+00 0.  1.
         23    2    1    2    0    0 -0.16478226192E+03 -0.37924762778E+03  0.11283267375E+04  0.12051172092E+04  0.90577615629E+02 0.  0.
        254    2    1    2    0    0  0.16478226192E+03  0.37924762778E+03  0.22746820260E+04  0.24803808337E+04  0.89840347498E+03 0.  0.
         23    2    4    4    0    0  0.36335331950E+03  0.28909782713E+03  0.49423089722E+03  0.68428908172E+03  0.91565163413E+02 0.  0.
         23    2    4    4    0    0 -0.19857105759E+03  0.90149800653E+02  0.17804511288E+04  0.17960917520E+04  0.91552761625E+02 0.  0.
          2    1    3    3  502    0 -0.98292192024E+02 -0.12539418904E+03  0.47741005180E+03  0.50329456109E+03  0.00000000000E+00 0. -1.
         -2    1    3    3    0  502 -0.66490069891E+02 -0.25385343874E+03  0.65091668570E+03  0.70182264816E+03  0.00000000000E+00 0.  1.
         11    1    5    5    0    0  0.16302976323E+03  0.78092634843E+02  0.21671013573E+03  0.28220638945E+03  0.00000000000E+00 0. -1.
        -11    1    5    5    0    0  0.20032355627E+03  0.21100519228E+03  0.27752076149E+03  0.40208269227E+03  0.00000000000E+00 0.  1.
          1    1    6    6  503    0 -0.13685323051E+03  0.10156583075E+03  0.11561220282E+04  0.11686156634E+04  0.00000000000E+00 0. -1.
         -1    1    6    6    0  503 -0.61717827078E+02 -0.11416030098E+02  0.62432910056E+03  0.62747608857E+03  0.00000000000E+00 0.  1.
<mgrwt>
<rscale>  0 0.14150714E+04</rscale>
<asrwt>0</asrwt>
<pdfrwt beam="1">  1        2 0.54526969E+00 0.14150714E+04</pdfrwt>
<pdfrwt beam="2">  1       -2 0.21729947E-01 0.14150714E+04</pdfrwt>
<totfact> 0.13818679E+01</totfact>
</mgrwt>
</event>
<event>
12    2  0.3518828E-008  0.2069717E+04  0.7818608E-02  0.8574702E-01
         -1   -1    0    0    0  501 -0.00000000000E+00  0.00000000000E+00  0.10558550414E+04  0.10558550414E+04  0.00000000000E+00 0.  1.
          1   -1    0    0  501    0  0.00000000000E+00 -0.00000000000E+00 -0.10142792758E+04  0.10142792758E+04  0.00000000000E+00 0. -1.
         23    2    1    2    0    0  0.63955059738E+02  0.15581711757E+02 -0.81828125166E+03  0.82627115749E+03  0.93844442928E+02 0.  0.
        254    2    1    2    0    0 -0.63955059738E+02 -0.15581711757E+02  0.85985701717E+03  0.12438631597E+04  0.89638631779E+03 0.  0.
         23    2    4    4    0    0 -0.23713325876E+03  0.37807621648E+03  0.49312453449E+03  0.67130498376E+03  0.91130493361E+02 0.  0.
         23    2    4    4    0    0  0.17317819902E+03 -0.39365792824E+03  0.36673248267E+03  0.57255817595E+03  0.91503540490E+02 0.  0.
          1    1    3    3  502    0  0.97489614782E+01  0.46057032532E+02 -0.48157310474E+03  0.48386872982E+03  0.00000000000E+00 0. -1.
         -1    1    3    3    0  502  0.54206098260E+02 -0.30475320774E+02 -0.33670814692E+03  0.34240242766E+03  0.00000000000E+00 0.  1.
         11    1    5    5    0    0 -0.74016351846E+02  0.10241874013E+03  0.20312946910E+03  0.23922708853E+03  0.00000000000E+00 0. -1.
        -11    1    5    5    0    0 -0.16311690691E+03  0.27565747636E+03  0.28999506539E+03  0.43207789523E+03  0.00000000000E+00 0.  1.
          4    1    6    6  503    0  0.12885765054E+03 -0.25556048833E+03  0.18821344452E+03  0.34254891329E+03  0.00000000000E+00 0. -1.
         -4    1    6    6    0  503  0.44320548477E+02 -0.13809743991E+03  0.17851903815E+03  0.23000926266E+03  0.00000000000E+00 0.  1.
<mgrwt>
<rscale>  0 0.20697168E+04</rscale>
<asrwt>0</asrwt>
<pdfrwt beam="1">  1        1 0.15604297E+00 0.20697168E+04</pdfrwt>
<pdfrwt beam="2">  1       -1 0.16243924E+00 0.20697168E+04</pdfrwt>
<totfact> 0.38091512E+00</totfact>
</mgrwt>
</event>
<event>
12    2  0.3518828E-008  0.1269005E+04  0.7818608E-02  0.9054512E-01
         -1   -1    0    0    0  501 -0.00000000000E+00  0.00000000000E+00  0.41957139265E+03  0.41957139265E+03  0.00000000000E+00 0.  1.
          1   -1    0    0  501    0  0.00000000000E+00 -0.00000000000E+00 -0.95953510205E+03  0.95953510205E+03  0.00000000000E+00 0. -1.
         23    2    1    2    0    0 -0.10070716158E+02  0.14804119209E+03 -0.44959467506E+03  0.48237964370E+03  0.92396617557E+02 0.  0.
        254    2    1    2    0    0  0.10070716158E+02 -0.14804119209E+03 -0.90369034340E+02  0.89672685100E+03  0.87973568136E+03 0.  0.
         23    2    4    4    0    0 -0.19859475799E+03 -0.15148014723E+03  0.32731249646E+03  0.42051987546E+03  0.85541699848E+02 0.  0.
         23    2    4    4    0    0  0.20866547415E+03  0.34389551417E+01 -0.41768153080E+03  0.47620697553E+03  0.93606174256E+02 0.  0.
          3    1    3    3  502    0 -0.49401035389E+02  0.77939816561E+02 -0.20236097700E+03  0.22240737918E+03  0.00000000000E+00 0. -1.
         -3    1    3    3    0  502  0.39330319231E+02  0.70101375526E+02 -0.24723369807E+03  0.25997226452E+03  0.00000000000E+00 0.  1.
         11    1    5    5    0    0 -0.11538892873E+03 -0.11992290723E+03  0.26098834004E+03  0.30953355584E+03  0.00000000000E+00 0.  1.
        -11    1    5    5    0    0 -0.83205829259E+02 -0.31557239994E+02  0.66324156427E+02  0.11098631963E+03  0.00000000000E+00 0. -1.
          3    1    6    6  503    0  0.12448591591E+03  0.43389417933E+02 -0.20142995791E+03  0.24073515072E+03  0.00000000000E+00 0. -1.
         -3    1    6    6    0  503  0.84179558238E+02 -0.39950462791E+02 -0.21625157289E+03  0.23547182481E+03  0.00000000000E+00 0.  1.
<mgrwt>
<rscale>  0 0.12690051E+04</rscale>
<asrwt>0</asrwt>
<pdfrwt beam="1">  1        1 0.14762078E+00 0.12690051E+04</pdfrwt>
<pdfrwt beam="2">  1       -1 0.64549446E-01 0.12690051E+04</pdfrwt>
<totfact> 0.39036466E+01</totfact>
</mgrwt>
</event>
<event>
12    2  0.3518828E-008  0.1548980E+04  0.7818608E-02  0.8852520E-01
          4   -1    0    0  501    0  0.00000000000E+00  0.00000000000E+00  0.23073159200E+04  0.23073159200E+04  0.00000000000E+00 0. -1.
         -4   -1    0    0    0  501 -0.00000000000E+00 -0.00000000000E+00 -0.25997069013E+03  0.25997069013E+03  0.00000000000E+00 0.  1.
         23    2    1    2    0    0  0.38593476639E+03 -0.25800732254E+03  0.99235894835E+03  0.10994058249E+04  0.91670404728E+02 0.  0.
        254    2    1    2    0    0 -0.38593476639E+03  0.25800732254E+03  0.10549862815E+04  0.14678807852E+04  0.90893592899E+03 0.  0.
         23    2    4    4    0    0 -0.40557301577E+03 -0.13258992510E+03  0.96120191927E+03  0.10558202829E+04  0.93689811773E+02 0.  0.
         23    2    4    4    0    0  0.19638249380E+02  0.39059724764E+03  0.93784362236E+02  0.41206050230E+03  0.89702175278E+02 0.  0.
          2    1    3    3  502    0 -0.45916584321E+01 -0.85056497276E+01  0.23832691946E+02  0.25718215526E+02  0.00000000000E+00 0. -1.
         -2    1    3    3    0  502  0.39052642482E+03 -0.24950167281E+03  0.96852625640E+03  0.10736876094E+04  0.00000000000E+00 0.  1.
         11    1    5    5    0    0 -0.17548246081E+03 -0.10162981970E+03  0.49761421403E+03  0.53734776477E+03  0.00000000000E+00 0.  1.
        -11    1    5    5    0    0 -0.23009055496E+03 -0.30960105400E+02  0.46358770524E+03  0.51847251813E+03  0.00000000000E+00 0. -1.
          1    1    6    6  503    0  0.39348552657E+02  0.23119724338E+03  0.20192262664E+02  0.23538946751E+03  0.00000000000E+00 0. -1.
         -1    1    6    6    0  503 -0.19710303277E+02  0.15940000427E+03  0.73592099572E+02  0.17667103479E+03  0.00000000000E+00 0.  1.
<mgrwt>
<rscale>  0 0.15489797E+04</rscale>
<asrwt>0</asrwt>
<pdfrwt beam="1">  1        4 0.35497167E+00 0.15489797E+04</pdfrwt>
<pdfrwt beam="2">  1       -4 0.39995492E-01 0.15489797E+04</pdfrwt>
<totfact> 0.16330456E-01</totfact>
</mgrwt>
</event>
<event>
12    2  0.3529733E-008  0.2170930E+04  0.7818608E-02  0.8530626E-01
         -2   -1    0    0    0  501 -0.00000000000E+00  0.00000000000E+00  0.66021351341E+03  0.66021351341E+03  0.00000000000E+00 0.  1.
          2   -1    0    0  501    0  0.00000000000E+00 -0.00000000000E+00 -0.17846264402E+04  0.17846264402E+04  0.00000000000E+00 0. -1.
         23    2    1    2    0    0  0.29833260266E+03  0.83027986147E+03 -0.64830399208E+03  0.10982888152E+04  0.87024509489E+02 0.  0.
        254    2    1    2    0    0 -0.29833260266E+03 -0.83027986147E+03 -0.47610893473E+03  0.13465511384E+04  0.89897344818E+03 0.  0.
         23    2    4    4    0    0  0.57820806076E+02 -0.73775374130E+03 -0.58959731275E+03  0.95061745815E+03  0.91786339530E+02 0.  0.
         23    2    4    4    0    0 -0.35615340874E+03 -0.92526120165E+02  0.11348837802E+03  0.39593368028E+03  0.92073523704E+02 0.  0.
          1    1    3    3  502    0  0.28219680312E+03  0.79059532669E+03 -0.59048072535E+03  0.10263252376E+04  0.00000000000E+00 0. -1.
         -1    1    3    3    0  502  0.16135799538E+02  0.39684534776E+02 -0.57823266731E+02  0.71963577611E+02  0.00000000000E+00 0.  1.
         11    1    5    5    0    0  0.65284084529E+02 -0.62053837007E+03 -0.45661389126E+03  0.77319216635E+03  0.00000000000E+00 0. -1.
        -11    1    5    5    0    0 -0.74632784532E+01 -0.11721537123E+03 -0.13298342149E+03  0.17742529180E+03  0.00000000000E+00 0.  1.
          1    1    6    6  503    0 -0.31167669010E+03 -0.51220839284E+02  0.11228874764E+03  0.33522335297E+03  0.00000000000E+00 0. -1.
         -1    1    6    6    0  503 -0.44476718642E+02 -0.41305280881E+02  0.11996303772E+01  0.60710327317E+02  0.00000000000E+00 0.  1.
<mgrwt>
<rscale>  0 0.21709302E+04</rscale>
<asrwt>0</asrwt>
<pdfrwt beam="1">  1        2 0.27455791E+00 0.21709302E+04</pdfrwt>
<pdfrwt beam="2">  1       -2 0.10157131E+00 0.21709302E+04</pdfrwt>
<totfact> 0.64173704E+00</totfact>
</mgrwt>
</event>
<event>
12    2  0.3518828E-008  0.1428251E+04  0.7818608E-02  0.8933619E-01
          2   -1    0    0  501    0  0.00000000000E+00  0.00000000000E+00  0.11368931770E+04  0.11368931770E+04  0.00000000000E+00 0. -1.
         -2   -1    0    0    0  501 -0.00000000000E+00 -0.00000000000E+00 -0.44856936589E+03  0.44856936589E+03  0.00000000000E+00 0.  1.
         23    2    1    2    0    0  0.14672715683E+03 -0.55409020856E+02 -0.22803178662E+03  0.29034868069E+03  0.87777232366E+02 0.  0.
        254    2    1    2    0    0 -0.14672715683E+03  0.55409020856E+02  0.91635559770E+03  0.12951138622E+04  0.90167251062E+03 0.  0.
         23    2    4    4    0    0 -0.40132744425E+03 -0.20337643903E+03  0.23355245935E+03  0.51557192973E+03  0.94031749934E+02 0.  0.
         23    2    4    4    0    0  0.25460028742E+03  0.25878545989E+03  0.68280313835E+03  0.77954193244E+03  0.98357908077E+02 0.  0.
          2    1    3    3  502    0  0.47847866571E+02 -0.64553327521E+02 -0.10627708958E+03  0.13323426811E+03  0.00000000000E+00 0. -1.
         -2    1    3    3    0  502  0.98879290263E+02  0.91443066650E+01 -0.12175469704E+03  0.15711441258E+03  0.00000000000E+00 0.  1.
         11    1    5    5    0    0 -0.13473437944E+03 -0.44946144327E+02  0.31633775441E+02  0.14551358920E+03  0.00000000000E+00 0.  1.
        -11    1    5    5    0    0 -0.26659306481E+03 -0.15843029471E+03  0.20191868391E+03  0.37005834053E+03  0.00000000000E+00 0. -1.
          2    1    6    6  503    0  0.74821322015E+02  0.45092579142E+02  0.24649009366E+03  0.26151278591E+03  0.00000000000E+00 0.  1.
         -2    1    6    6    0  503  0.17977896541E+03  0.21369288075E+03  0.43631304469E+03  0.51802914653E+03  0.00000000000E+00 0. -1.
<mgrwt>
<rscale>  0 0.14282513E+04</rscale>
<asrwt>0</asrwt>
<pdfrwt beam="1">  1        2 0.17490664E+00 0.14282513E+04</pdfrwt>
<pdfrwt beam="2">  1       -2 0.69010672E-01 0.14282513E+04</pdfrwt>
<totfact> 0.38521319E+01</totfact>
</mgrwt>
</event>
<event>
12    2  0.3518828E-008  0.2047236E+04  0.7818608E-02  0.8584849E-01
         -2   -1    0    0    0  501 -0.00000000000E+00  0.00000000000E+00  0.29151875246E+03  0.29151875246E+03  0.00000000000E+00 0.  1.
          2   -1    0    0  501    0  0.00000000000E+00 -0.00000000000E+00 -0.35942591938E+04  0.35942591938E+04  0.00000000000E+00 0. -1.
         23    2    1    2    0    0  0.27075624949E+03  0.28094870199E+03  0.39356620721E+02  0.40239615108E+03  0.90180923805E+02 0.  0.
        254    2    1    2    0    0 -0.27075624949E+03 -0.28094870199E+03 -0.33420970621E+04  0.34833817952E+04  0.90116304795E+03 0.  0.
         23    2    4    4    0    0 -0.51620205662E+03 -0.37790027529E+03 -0.28001814545E+04  0.28737530832E+04  0.90373801420E+02 0.  0.
         23    2    4    4    0    0  0.24544580713E+03  0.96951573304E+02 -0.54191560765E+03  0.60962871203E+03  0.91276442254E+02 0.  0.
          4    1    3    3  502    0  0.66410615282E+02  0.35090017128E+02 -0.18866952599E+02  0.77444438306E+02  0.00000000000E+00 0. -1.
         -4    1    3    3    0  502  0.20434563421E+03  0.24585868486E+03  0.58223573320E+02  0.32495171277E+03  0.00000000000E+00 0.  1.
         11    1    5    5    0    0 -0.42532640914E+03 -0.31294697201E+03 -0.24470469746E+04  0.25033731759E+04  0.00000000000E+00 0. -1.
        -11    1    5    5    0    0 -0.90875647487E+02 -0.64953303284E+02 -0.35313447983E+03  0.37037990734E+03  0.00000000000E+00 0.  1.
          1    1    6    6  503    0  0.16059692725E+03  0.79980457097E+02 -0.26913671062E+03  0.32345450308E+03  0.00000000000E+00 0. -1.
         -1    1    6    6    0  503  0.84848879881E+02  0.16971116206E+02 -0.27277889702E+03  0.28617420894E+03  0.00000000000E+00 0.  1.
<mgrwt>
<rscale>  0 0.20472361E+04</rscale>
<asrwt>0</asrwt>
<pdfrwt beam="1">  1        2 0.55296296E+00 0.20472361E+04</pdfrwt>
<pdfrwt beam="2">  1       -2 0.44849038E-01 0.20472361E+04</pdfrwt>
<totfact> 0.30592123E+00</totfact>
</mgrwt>
</event>
<event>
12    2  0.3518828E-008  0.1497843E+04  0.7818608E-02  0.8885889E-01
         -2   -1    0    0    0  501 -0.00000000000E+00  0.00000000000E+00  0.16194297524E+04  0.16194297524E+04  0.00000000000E+00 0.  1.
          2   -1    0    0  501    0  0.00000000000E+00 -0.00000000000E+00 -0.34634609267E+03  0.34634609267E+03  0.00000000000E+00 0. -1.
         23    2    1    2    0    0 -0.15790966389E+03 -0.42392306729E+03  0.59928008041E+03  0.75649873742E+03  0.92236088448E+02 0.  0.
        254    2    1    2    0    0  0.15790966389E+03  0.42392306729E+03  0.67380357932E+03  0.12092771076E+04  0.89648961545E+03 0.  0.
         23    2    4    4    0    0  0.23057949510E+03  0.48586824581E+03  0.83563175037E+03  0.99777565522E+03  0.89671512042E+02 0.  0.
         23    2    4    4    0    0 -0.72669831206E+02 -0.61945178522E+02 -0.16182817105E+03  0.21150145241E+03  0.97089638568E+02 0.  0.
          3    1    3    3  502    0 -0.23363510674E+02 -0.10632075700E+03  0.89165486005E+02  0.14071403944E+03  0.00000000000E+00 0. -1.
         -3    1    3    3    0  502 -0.13454615322E+03 -0.31760231029E+03  0.51011459440E+03  0.61578469798E+03  0.00000000000E+00 0.  1.
         11    1    5    5    0    0  0.20629369950E+03  0.47265266002E+03  0.77213457362E+03  0.92852001984E+03  0.00000000000E+00 0.  1.
        -11    1    5    5    0    0  0.24285795603E+02  0.13215585798E+02  0.63497176749E+02  0.69255635375E+02  0.00000000000E+00 0. -1.
          3    1    6    6  503    0  0.84378512046E+01  0.14110171712E+01 -0.78808865637E+02  0.79271846234E+02  0.00000000000E+00 0. -1.
         -3    1    6    6    0  503 -0.81107682410E+02 -0.63356195693E+02 -0.83019305417E+02  0.13222960618E+03  0.00000000000E+00 0.  1.
<mgrwt>
<rscale>  0 0.14978427E+04</rscale>
<asrwt>0</asrwt>
<pdfrwt beam="1">  1        2 0.53284015E-01 0.14978427E+04</pdfrwt>
<pdfrwt beam="2">  1       -2 0.24914303E+00 0.14978427E+04</pdfrwt>
<totfact> 0.58808886E+00</totfact>
</mgrwt>
</event>
<event>
12    2  0.3518828E-008  0.1290964E+04  0.7818608E-02  0.9036762E-01
         -2   -1    0    0    0  501 -0.00000000000E+00  0.00000000000E+00  0.41535691740E+03  0.41535691740E+03  0.00000000000E+00 0.  1.
          2   -1    0    0  501    0  0.00000000000E+00 -0.00000000000E+00 -0.10031053672E+04  0.10031053672E+04  0.00000000000E+00 0. -1.
         23    2    1    2    0    0 -0.15455425210E+03 -0.16584383698E+03 -0.40702461415E+03  0.47486332908E+03  0.91841982153E+02 0.  0.
        254    2    1    2    0    0  0.15455425210E+03  0.16584383698E+03 -0.18072383568E+03  0.94359895554E+03  0.89795695276E+03 0.  0.
         23    2    4    4    0    0  0.42439773470E+03  0.22610319685E+03 -0.35444195266E+03  0.60432052389E+03  0.91313224375E+02 0.  0.
         23    2    4    4    0    0 -0.26984348261E+03 -0.60259359871E+02  0.17371811698E+03  0.33927843165E+03  0.92115006702E+02 0.  0.
          3    1    3    3  502    0 -0.15669276858E+03 -0.12824461601E+03 -0.30484164388E+03  0.36596138198E+03  0.00000000000E+00 0. -1.
         -3    1    3    3    0  502  0.21385164834E+01 -0.37599220965E+02 -0.10218297027E+03  0.10890194710E+03  0.00000000000E+00 0.  1.
         11    1    5    5    0    0  0.31300129030E+03  0.19435552610E+03 -0.23009634700E+03  0.43438255854E+03  0.00000000000E+00 0. -1.
        -11    1    5    5    0    0  0.11139644440E+03  0.31747670745E+02 -0.12434560565E+03  0.16993796535E+03  0.00000000000E+00 0.  1.
          3    1    6    6  503    0 -0.12855805034E+03 -0.28575521156E+02  0.29590254168E+02  0.13497894598E+03  0.00000000000E+00 0. -1.
         -3    1    6    6    0  503 -0.14128543226E+03 -0.31683838714E+02  0.14412786281E+03  0.20429948567E+03  0.00000000000E+00 0.  1.
<mgrwt>
<rscale>  0 0.12909636E+04</rscale>
<asrwt>0</asrwt>
<pdfrwt beam="1">  1        2 0.15432390E+00 0.12909636E+04</pdfrwt>
<pdfrwt beam="2">  1       -2 0.63901064E-01 0.12909636E+04</pdfrwt>
<totfact> 0.55699304E+01</totfact>
</mgrwt>
</event>
<event>
12    2  0.3518828E-008  0.1561248E+04  0.7818608E-02  0.8844715E-01
         -2   -1    0    0    0  501 -0.00000000000E+00  0.00000000000E+00  0.43331770203E+03  0.43331770203E+03  0.00000000000E+00 0.  1.
          2   -1    0    0  501    0  0.00000000000E+00 -0.00000000000E+00 -0.14062988753E+04  0.14062988753E+04  0.00000000000E+00 0. -1.
         23    2    1    2    0    0  0.15205221185E+03 -0.45553306652E+03 -0.55301336858E+03  0.73814272460E+03  0.91655039296E+02 0.  0.
        254    2    1    2    0    0 -0.15205221185E+03  0.45553306652E+03 -0.41996780472E+03  0.11014738528E+04  0.89790948401E+03 0.  0.
         23    2    4    4    0    0 -0.28012427454E+03  0.45498124855E+03 -0.63508022574E+03  0.83494687564E+03  0.91278947730E+02 0.  0.
         23    2    4    4    0    0  0.12807206269E+03  0.55181797600E+00  0.21511242103E+03  0.26652697711E+03  0.91435868800E+02 0.  0.
          2    1    3    3  502    0  0.14029823410E+03 -0.45396191747E+03 -0.54789481219E+03  0.72522668334E+03  0.00000000000E+00 0. -1.
         -2    1    3    3    0  502  0.11753977749E+02 -0.15711490554E+01 -0.51185563836E+01  0.12916041256E+02  0.00000000000E+00 0.  1.
         11    1    5    5    0    0 -0.23463184502E+03  0.30295262169E+03 -0.45840541484E+03  0.59746792219E+03  0.00000000000E+00 0. -1.
        -11    1    5    5    0    0 -0.45492429526E+02  0.15202862685E+03 -0.17667481090E+03  0.23747895345E+03  0.00000000000E+00 0.  1.
          1    1    6    6  503    0  0.10622233088E+03  0.38884118361E+02  0.15945816290E+03  0.19550463922E+03  0.00000000000E+00 0. -1.
         -1    1    6    6    0  503  0.21849731812E+02 -0.38332300384E+02  0.55654258123E+02  0.71022337896E+02  0.00000000000E+00 0.  1.
<mgrwt>
<rscale>  0 0.15612485E+04</rscale>
<asrwt>0</asrwt>
<pdfrwt beam="1">  1        2 0.21635367E+00 0.15612485E+04</pdfrwt>
<pdfrwt beam="2">  1       -2 0.66664262E-01 0.15612485E+04</pdfrwt>
<totfact> 0.28530454E+01</totfact>
</mgrwt>
</event>
<event>
12    2  0.3518828E-008  0.1939433E+04  0.7818608E-02  0.8635473E-01
         -2   -1    0    0    0  501 -0.00000000000E+00  0.00000000000E+00  0.57211678071E+03  0.57211678071E+03  0.00000000000E+00 0.  1.
          2   -1    0    0  501    0  0.00000000000E+00 -0.00000000000E+00 -0.16436330019E+04  0.16436330019E+04  0.00000000000E+00 0. -1.
         23    2    1    2    0    0 -0.10290100448E+03  0.54351012726E+03 -0.10147416634E+04  0.11592830597E+04  0.90800296863E+02 0.  0.
        254    2    1    2    0    0  0.10290100448E+03 -0.54351012726E+03 -0.56774557825E+02  0.10564667229E+04  0.89827986236E+03 0.  0.
         23    2    4    4    0    0  0.37149414857E+02  0.27170320480E+02  0.33778141287E+03  0.35269243339E+03  0.90428780535E+02 0.  0.
         23    2    4    4    0    0  0.65751589625E+02 -0.57068044774E+03 -0.39455597069E+03  0.70377428956E+03  0.98103983903E+02 0.  0.
          1    1    3    3  502    0 -0.70669508807E+02  0.48808282422E+03 -0.93372177427E+03  0.10559618244E+04  0.00000000000E+00 0. -1.
         -1    1    3    3    0  502 -0.32231495675E+02  0.55427303045E+02 -0.81019889108E+02  0.10332123532E+03  0.00000000000E+00 0.  1.
         11    1    5    5    0    0  0.25236186965E+02  0.54392625034E+02  0.29214172059E+03  0.29823180196E+03  0.00000000000E+00 0.  1.
        -11    1    5    5    0    0  0.11913227892E+02 -0.27222304555E+02  0.45639692277E+02  0.54460631425E+02  0.00000000000E+00 0. -1.
          2    1    6    6  503    0 -0.12243492089E+02 -0.10294633060E+02 -0.18275439258E+02  0.24287326910E+02  0.00000000000E+00 0. -1.
         -2    1    6    6    0  503  0.77995081714E+02 -0.56038581468E+03 -0.37628053144E+03  0.67948696265E+03  0.00000000000E+00 0.  1.
<mgrwt>
<rscale>  0 0.19394329E+04</rscale>
<asrwt>0</asrwt>
<pdfrwt beam="1">  1        2 0.25286661E+00 0.19394329E+04</pdfrwt>
<pdfrwt beam="2">  1       -2 0.88017967E-01 0.19394329E+04</pdfrwt>
<totfact> 0.10949471E+01</totfact>
</mgrwt>
</event>
<event>
12    2  0.3518828E-008  0.2813173E+04  0.7818608E-02  0.8299190E-01
          2   -1    0    0  501    0  0.00000000000E+00  0.00000000000E+00  0.22954384268E+04  0.22954384268E+04  0.00000000000E+00 0. -1.
         -2   -1    0    0    0  501 -0.00000000000E+00 -0.00000000000E+00 -0.86192047654E+03  0.86192047654E+03  0.00000000000E+00 0.  1.
         23    2    1    2    0    0 -0.80494986780E+03  0.56034741965E+03  0.15134219075E+04  0.18057513806E+04  0.91425696077E+02 0.  0.
        254    2    1    2    0    0  0.80494986780E+03 -0.56034741965E+03 -0.79903957269E+02  0.13516075228E+04  0.92656609739E+03 0.  0.
         23    2    4    4    0    0  0.31652119556E+03 -0.59221741985E+03  0.28480618896E+03  0.73439765884E+03  0.85546574608E+02 0.  0.
         23    2    4    4    0    0  0.48842867224E+03  0.31870000200E+02 -0.36471014623E+03  0.61720986392E+03  0.91412584393E+02 0.  0.
          1    1    3    3  502    0 -0.34738173515E+03  0.28306719385E+03  0.63424154874E+03  0.77657159895E+03  0.00000000000E+00 0. -1.
         -1    1    3    3    0  502 -0.45756813265E+03  0.27728022580E+03  0.87918035877E+03  0.10291797816E+04  0.00000000000E+00 0.  1.
         11    1    5    5    0    0  0.45893232982E+01 -0.65652270917E+01 -0.59183180834E+01  0.99594469744E+01  0.00000000000E+00 0. -1.
        -11    1    5    5    0    0  0.31193187226E+03 -0.58565219276E+03  0.29072450704E+03  0.72443821187E+03  0.00000000000E+00 0.  1.
          3    1    6    6  503    0  0.40267681034E+03  0.24557396476E+02 -0.25300713819E+03  0.47619774389E+03  0.00000000000E+00 0. -1.
         -3    1    6    6    0  503  0.85751861896E+02  0.73126037243E+01 -0.11170300804E+03  0.14101212004E+03  0.00000000000E+00 0.  1.
<mgrwt>
<rscale>  0 0.28131729E+04</rscale>
<asrwt>0</asrwt>
<pdfrwt beam="1">  1        2 0.35314437E+00 0.28131729E+04</pdfrwt>
<pdfrwt beam="2">  1       -2 0.13260315E+00 0.28131729E+04</pdfrwt>
<totfact> 0.16369407E+00</totfact>
</mgrwt>
</event>
<event>
12    2  0.3518828E-008  0.1453665E+04  0.7818608E-02  0.8915864E-01
         -2   -1    0    0    0  501 -0.00000000000E+00  0.00000000000E+00  0.50468051436E+03  0.50468051436E+03  0.00000000000E+00 0.  1.
          2   -1    0    0  501    0  0.00000000000E+00 -0.00000000000E+00 -0.10467717284E+04  0.10467717284E+04  0.00000000000E+00 0. -1.
         23    2    1    2    0    0 -0.50043664061E+02 -0.29818305150E+02  0.29425357493E+03  0.31377483504E+03  0.92065091703E+02 0.  0.
        254    2    1    2    0    0  0.50043664061E+02  0.29818305150E+02 -0.83634478896E+03  0.12376774077E+04  0.91048298166E+03 0.  0.
         23    2    4    4    0    0  0.53325169187E+02  0.45166038775E+03 -0.55369776630E+03  0.72152756756E+03  0.84735676137E+02 0.  0.
         23    2    4    4    0    0 -0.32815051260E+01 -0.42184208260E+03 -0.28264702265E+03  0.51614984015E+03  0.92519225785E+02 0.  0.
          4    1    3    3  502    0  0.14569884862E+02 -0.12770934115E+02  0.10060555432E+02  0.21831011856E+02  0.00000000000E+00 0. -1.
         -4    1    3    3    0  502 -0.64613548923E+02 -0.17047371035E+02  0.28419301950E+03  0.29194382318E+03  0.00000000000E+00 0.  1.
         11    1    5    5    0    0  0.73251319865E+01  0.35953827045E+03 -0.43449093978E+03  0.56400691682E+03  0.00000000000E+00 0. -1.
        -11    1    5    5    0    0  0.46000037201E+02  0.92122117301E+02 -0.11920682652E+03  0.15752065074E+03  0.00000000000E+00 0.  1.
          1    1    6    6  503    0  0.17142632764E+01 -0.26552006693E+01  0.62673132481E+01  0.70191170759E+01  0.00000000000E+00 0.  1.
         -1    1    6    6    0  503 -0.49957684024E+01 -0.41918688193E+03 -0.28891433590E+03  0.50913072307E+03  0.00000000000E+00 0. -1.
<mgrwt>
<rscale>  0 0.14536647E+04</rscale>
<asrwt>0</asrwt>
<pdfrwt beam="1">  1        2 0.16104180E+00 0.14536647E+04</pdfrwt>
<pdfrwt beam="2">  1       -2 0.77643157E-01 0.14536647E+04</pdfrwt>
<totfact> 0.33713095E+01</totfact>
</mgrwt>
</event>
<event>
12    2  0.3518828E-008  0.3204884E+04  0.7818608E-02  0.8187529E-01
         -1   -1    0    0    0  501 -0.00000000000E+00  0.00000000000E+00  0.12148504881E+04  0.12148504881E+04  0.00000000000E+00 0.  1.
          1   -1    0    0  501    0  0.00000000000E+00 -0.00000000000E+00 -0.21136922768E+04  0.21136922768E+04  0.00000000000E+00 0. -1.
         23    2    1    2    0    0  0.14100497888E+03 -0.13432532638E+02 -0.19182500029E+04  0.19255955223E+04  0.90400247494E+02 0.  0.
        254    2    1    2    0    0 -0.14100497888E+03  0.13432532638E+02  0.10194082143E+04  0.14029472426E+04  0.95341754818E+03 0.  0.
         23    2    4    4    0    0 -0.83737825841E+02 -0.33248486860E+03  0.38093160807E+02  0.35686283854E+03  0.91333374535E+02 0.  0.
         23    2    4    4    0    0 -0.57267153043E+02  0.34591740124E+03  0.98131505346E+03  0.10460844040E+04  0.91514867388E+02 0.  0.
          2    1    3    3  502    0  0.12388584294E+03  0.16052129082E+02 -0.11879563524E+04  0.11945064538E+04  0.00000000000E+00 0. -1.
         -2    1    3    3    0  502  0.17119135943E+02 -0.29484661720E+02 -0.73029365048E+03  0.73108906846E+03  0.00000000000E+00 0.  1.
         11    1    5    5    0    0 -0.98682991482E+02 -0.26815322075E+03  0.12423691553E+02  0.28600494877E+03  0.00000000000E+00 0. -1.
        -11    1    5    5    0    0  0.14945165641E+02 -0.64331647849E+02  0.25669469255E+02  0.70857889771E+02  0.00000000000E+00 0.  1.
          4    1    6    6  503    0 -0.57624495577E+02  0.13338080599E+03  0.48184228920E+03  0.50327230558E+03  0.00000000000E+00 0. -1.
         -4    1    6    6    0  503  0.35734253362E+00  0.21253659525E+03  0.49947276425E+03  0.54281209847E+03  0.00000000000E+00 0.  1.
<mgrwt>
<rscale>  0 0.32048838E+04</rscale>
<asrwt>0</asrwt>
<pdfrwt beam="1">  1        1 0.32518343E+00 0.32048838E+04</pdfrwt>
<pdfrwt beam="2">  1       -1 0.18690007E+00 0.32048838E+04</pdfrwt>
<totfact> 0.38762357E-01</totfact>
</mgrwt>
</event>
<event>
12    2  0.3518828E-008  0.1536332E+04  0.7818608E-02  0.8860646E-01
         -2   -1    0    0    0  501 -0.00000000000E+00  0.00000000000E+00  0.23680462041E+03  0.23680462041E+03  0.00000000000E+00 0.  1.
          2   -1    0    0  501    0  0.00000000000E+00 -0.00000000000E+00 -0.24918391374E+04  0.24918391374E+04  0.00000000000E+00 0. -1.
         23    2    1    2    0    0  0.48597695029E+03  0.80298882716E+02 -0.95189043174E+03  0.10754708394E+04  0.88997896990E+02 0.  0.
        254    2    1    2    0    0 -0.48597695029E+03 -0.80298882716E+02 -0.13031440853E+04  0.16531729184E+04  0.89004195650E+03 0.  0.
         23    2    4    4    0    0 -0.38463198034E+02 -0.63525128752E+02 -0.11715085320E+04  0.11773140296E+04  0.90117835528E+02 0.  0.
         23    2    4    4    0    0 -0.44751375226E+03 -0.16773753964E+02 -0.13163555333E+03  0.47585888879E+03  0.92541049595E+02 0.  0.
          3    1    3    3  502    0  0.38112925986E+03  0.71133287226E+02 -0.81744310071E+03  0.90472795921E+03  0.00000000000E+00 0. -1.
         -3    1    3    3    0  502  0.10484769043E+03  0.91655954900E+01 -0.13444733103E+03  0.17074288024E+03  0.00000000000E+00 0.  1.
         11    1    5    5    0    0 -0.62770401250E+02 -0.63033829617E+02 -0.10194865703E+04  0.10233602758E+04  0.00000000000E+00 0. -1.
        -11    1    5    5    0    0  0.24307203216E+02 -0.49129913555E+00 -0.15202196165E+03  0.15395375386E+03  0.00000000000E+00 0.  1.
          2    1    6    6  503    0 -0.24510819204E+03 -0.38544357931E+02 -0.35218155970E+02  0.25060728610E+03  0.00000000000E+00 0. -1.
         -2    1    6    6    0  503 -0.20240556021E+03  0.21770603967E+02 -0.96417397361E+02  0.22525160269E+03  0.00000000000E+00 0.  1.
<mgrwt>
<rscale>  0 0.15363320E+04</rscale>
<asrwt>0</asrwt>
<pdfrwt beam="1">  1        2 0.38335986E+00 0.15363320E+04</pdfrwt>
<pdfrwt beam="2">  1       -2 0.36431481E-01 0.15363320E+04</pdfrwt>
<totfact> 0.24111129E+01</totfact>
</mgrwt>
</event>
<event>
12    2  0.3518828E-008  0.2415665E+04  0.7818608E-02  0.8433662E-01
          2   -1    0    0  501    0  0.00000000000E+00  0.00000000000E+00  0.14156430694E+04  0.14156430694E+04  0.00000000000E+00 0. -1.
         -2   -1    0    0    0  501 -0.00000000000E+00 -0.00000000000E+00 -0.10305277464E+04  0.10305277464E+04  0.00000000000E+00 0.  1.
         23    2    1    2    0    0 -0.50378336179E+03  0.90950755243E+03  0.16310097022E+03  0.10563901349E+04  0.91414041697E+02 0.  0.
        254    2    1    2    0    0  0.50378336179E+03 -0.90950755243E+03  0.22201435276E+03  0.13897806809E+04  0.89509681305E+03 0.  0.
         23    2    4    4    0    0  0.32756680792E+03  0.77176635847E+02 -0.36793330305E+02  0.35055993949E+03  0.91007006599E+02 0.  0.
         23    2    4    4    0    0  0.17621655387E+03 -0.98668418827E+03  0.25880768307E+03  0.10392207414E+04  0.91653539930E+02 0.  0.
          2    1    3    3  502    0 -0.39807189612E+03  0.73299813414E+03  0.16672571499E+03  0.85061446212E+03  0.00000000000E+00 0. -1.
         -2    1    3    3    0  502 -0.10571146567E+03  0.17650941828E+03 -0.36247447772E+01  0.20577567274E+03  0.00000000000E+00 0.  1.
         11    1    5    5    0    0  0.32170427169E+03  0.88903466078E+02 -0.42117528916E+02  0.33640949889E+03  0.00000000000E+00 0.  1.
        -11    1    5    5    0    0  0.58625362339E+01 -0.11726830231E+02  0.53241986108E+01  0.14150440601E+02  0.00000000000E+00 0. -1.
          3    1    6    6  503    0  0.12834832955E+03 -0.54204069028E+03  0.17790462758E+03  0.58474905741E+03  0.00000000000E+00 0. -1.
         -3    1    6    6    0  503  0.47868224322E+02 -0.44464349799E+03  0.80903055484E+02  0.45447168403E+03  0.00000000000E+00 0.  1.
<mgrwt>
<rscale>  0 0.24156651E+04</rscale>
<asrwt>0</asrwt>
<pdfrwt beam="1">  1        2 0.21779124E+00 0.24156651E+04</pdfrwt>
<pdfrwt beam="2">  1       -2 0.15854273E+00 0.24156651E+04</pdfrwt>
<totfact> 0.32880615E+00</totfact>
</mgrwt>
</event>
<event>
12    2  0.3518828E-008  0.1993135E+04  0.7818608E-02  0.8609837E-01
         -1   -1    0    0    0  501 -0.00000000000E+00  0.00000000000E+00  0.29559970810E+04  0.29559970810E+04  0.00000000000E+00 0.  1.
          1   -1    0    0  501    0  0.00000000000E+00 -0.00000000000E+00 -0.33597687438E+03  0.33597687438E+03  0.00000000000E+00 0. -1.
         23    2    1    2    0    0 -0.15648588874E+03 -0.57058813064E+03  0.18241617276E+03  0.62582288927E+03  0.91213926831E+02 0.  0.
        254    2    1    2    0    0  0.15648588874E+03  0.57058813064E+03  0.24376040339E+04  0.26661510661E+04  0.90354271247E+03 0.  0.
         23    2    4    4    0    0  0.11875843173E+03  0.44478278898E+03  0.38338388077E+03  0.60594720110E+03  0.90848863550E+02 0.  0.
         23    2    4    4    0    0  0.37727457013E+02  0.12580534166E+03  0.20542201531E+04  0.20602038650E+04  0.85843945891E+02 0.  0.
          2    1    3    3  502    0 -0.14785744666E+03 -0.55491901108E+03  0.19200529187E+03  0.60552701467E+03  0.00000000000E+00 0. -1.
         -2    1    3    3    0  502 -0.86284420800E+01 -0.15669119562E+02 -0.95891191072E+01  0.20295874601E+02  0.00000000000E+00 0.  1.
         11    1    5    5    0    0  0.12764907574E+03  0.36681962967E+03  0.29478130608E+03  0.48759301232E+03  0.00000000000E+00 0. -1.
        -11    1    5    5    0    0 -0.88906440089E+01  0.77963159310E+02  0.88602574693E+02  0.11835418878E+03  0.00000000000E+00 0.  1.
          3    1    6    6  503    0  0.29685127707E+01  0.99499040538E+02  0.17554906319E+04  0.17583106181E+04  0.00000000000E+00 0. -1.
         -3    1    6    6    0  503  0.34758944242E+02  0.26306301118E+02  0.29872952125E+03  0.30189324694E+03  0.00000000000E+00 0.  1.
<mgrwt>
<rscale>  0 0.19931349E+04</rscale>
<asrwt>0</asrwt>
<pdfrwt beam="1">  1        1 0.51688752E-01 0.19931349E+04</pdfrwt>
<pdfrwt beam="2">  1       -1 0.45476876E+00 0.19931349E+04</pdfrwt>
<totfact> 0.21056035E-01</totfact>
</mgrwt>
</event>
<event>
12    2  0.3518828E-008  0.1095673E+04  0.7818608E-02  0.9209419E-01
         -2   -1    0    0    0  501 -0.00000000000E+00  0.00000000000E+00  0.19441859464E+03  0.19441859464E+03  0.00000000000E+00 0.  1.
          2   -1    0    0  501    0  0.00000000000E+00 -0.00000000000E+00 -0.15437057264E+04  0.15437057264E+04  0.00000000000E+00 0. -1.
         23    2    1    2    0    0 -0.22850240146E+02  0.52070740427E+02 -0.46363513363E+03  0.47578177911E+03  0.90428251721E+02 0.  0.
        254    2    1    2    0    0  0.22850240146E+02 -0.52070740427E+02 -0.88565199813E+03  0.12623425419E+04  0.89771695756E+03 0.  0.
         23    2    4    4    0    0 -0.32212788235E+03 -0.28808840981E+03 -0.29149515511E+03  0.52993125528E+03  0.95375077505E+02 0.  0.
         23    2    4    4    0    0  0.34497812250E+03  0.23601766938E+03 -0.59415684302E+03  0.73241128666E+03  0.93218525239E+02 0.  0.
          3    1    3    3  502    0 -0.10992376606E+02  0.77323565886E+02 -0.31392852052E+03  0.32349788590E+03  0.00000000000E+00 0. -1.
         -3    1    3    3    0  502 -0.11857863540E+02 -0.25252825459E+02 -0.14970661311E+03  0.15228389321E+03  0.00000000000E+00 0.  1.
         11    1    5    5    0    0 -0.28823976192E+03 -0.24514711798E+03 -0.21289685233E+03  0.43417086445E+03  0.00000000000E+00 0.  1.
        -11    1    5    5    0    0 -0.33888120429E+02 -0.42941291832E+02 -0.78598302786E+02  0.95760390826E+02  0.00000000000E+00 0. -1.
          2    1    6    6  503    0  0.68158463277E+02  0.94513412873E+02 -0.18295067814E+03  0.21690853363E+03  0.00000000000E+00 0. -1.
         -2    1    6    6    0  503  0.27681965922E+03  0.14150425651E+03 -0.41120616489E+03  0.51550275303E+03  0.00000000000E+00 0.  1.
<mgrwt>
<rscale>  0 0.10956735E+04</rscale>
<asrwt>0</asrwt>
<pdfrwt beam="1">  1        2 0.23749320E+00 0.10956735E+04</pdfrwt>
<pdfrwt beam="2">  1       -2 0.29910552E-01 0.10956735E+04</pdfrwt>
<totfact> 0.12274261E+02</totfact>
</mgrwt>
</event>
<event>
12    2  0.3518828E-008  0.1911092E+04  0.7818608E-02  0.8649355E-01
         -2   -1    0    0    0  501 -0.00000000000E+00  0.00000000000E+00  0.29435581773E+03  0.29435581773E+03  0.00000000000E+00 0.  1.
          2   -1    0    0  501    0  0.00000000000E+00 -0.00000000000E+00 -0.31019183276E+04  0.31019183276E+04  0.00000000000E+00 0. -1.
         23    2    1    2    0    0  0.27164686184E+03  0.42847436473E+03 -0.21023229306E+04  0.21644428909E+04  0.87572968033E+02 0.  0.
        254    2    1    2    0    0 -0.27164686184E+03 -0.42847436473E+03 -0.70523957934E+03  0.12318312545E+04  0.87330583216E+03 0.  0.
         23    2    4    4    0    0 -0.45506024497E+03 -0.54894859110E+03 -0.68472909634E+03  0.99354982108E+03  0.99312282126E+02 0.  0.
         23    2    4    4    0    0  0.18341338313E+03  0.12047422637E+03 -0.20510483002E+02  0.23828143340E+03  0.90569604508E+02 0.  0.
          4    1    3    3  502    0  0.22345758733E+03  0.36976164269E+03 -0.18954959748E+04  0.19441095535E+04  0.00000000000E+00 0. -1.
         -4    1    3    3    0  502  0.48189274510E+02  0.58712722045E+02 -0.20682695582E+03  0.22033333738E+03  0.00000000000E+00 0.  1.
         11    1    5    5    0    0 -0.35513667012E+03 -0.35938808850E+03 -0.46584672528E+03  0.68723724002E+03  0.00000000000E+00 0. -1.
        -11    1    5    5    0    0 -0.99923574853E+02 -0.18956050260E+03 -0.21888237106E+03  0.30631258106E+03  0.00000000000E+00 0.  1.
          4    1    6    6  503    0  0.97989792394E+02  0.11014798529E+03  0.79787690644E+01  0.14764226641E+03  0.00000000000E+00 0. -1.
         -4    1    6    6    0  503  0.85423590737E+02  0.10326241085E+02 -0.28489252066E+02  0.90639166990E+02  0.00000000000E+00 0.  1.
<mgrwt>
<rscale>  0 0.19110915E+04</rscale>
<asrwt>0</asrwt>
<pdfrwt beam="1">  1        2 0.47721823E+00 0.19110915E+04</pdfrwt>
<pdfrwt beam="2">  1       -2 0.45285508E-01 0.19110915E+04</pdfrwt>
<totfact> 0.65166358E+00</totfact>
</mgrwt>
</event>
<event>
12    2  0.3518828E-008  0.1530231E+04  0.7818608E-02  0.8864595E-01
          2   -1    0    0  501    0  0.00000000000E+00  0.00000000000E+00  0.12196528860E+04  0.12196528860E+04  0.00000000000E+00 0.  1.
         -2   -1    0    0    0  501 -0.00000000000E+00 -0.00000000000E+00 -0.47997432630E+03  0.47997432630E+03  0.00000000000E+00 0. -1.
         23    2    1    2    0    0 -0.12847307261E+03 -0.42763549111E+03 -0.16340190604E+01  0.45622536773E+03  0.93602737689E+02 0.  0.
        254    2    1    2    0    0  0.12847307261E+03  0.42763549111E+03  0.74131257875E+03  0.12434018446E+04  0.89281933446E+03 0.  0.
         23    2    4    4    0    0  0.22829657428E+03  0.41328919534E+03 -0.88270923255E+01  0.48062144833E+03  0.89396723779E+02 0.  0.
         23    2    4    4    0    0 -0.99823501669E+02  0.14346295770E+02  0.75013967108E+03  0.76278039623E+03  0.94624833213E+02 0.  0.
          1    1    3    3  502    0 -0.29168289959E+02 -0.16211568464E+03 -0.41727287740E+02  0.16992189643E+03  0.00000000000E+00 0. -1.
         -1    1    3    3    0  502 -0.99304782652E+02 -0.26551980647E+03  0.40093268680E+02  0.28630347130E+03  0.00000000000E+00 0.  1.
         11    1    5    5    0    0  0.51046087304E+02  0.11325435485E+03 -0.40606726603E+02  0.13069490490E+03  0.00000000000E+00 0.  1.
        -11    1    5    5    0    0  0.17725048698E+03  0.30003484049E+03  0.31779634278E+02  0.34992654343E+03  0.00000000000E+00 0. -1.
          2    1    6    6  503    0 -0.22734983828E+01 -0.24556842268E+02  0.62889212434E+02  0.67551908468E+02  0.00000000000E+00 0. -1.
         -2    1    6    6    0  503 -0.97550003286E+02  0.38903138037E+02  0.68725045864E+03  0.69522848776E+03  0.00000000000E+00 0.  1.
<mgrwt>
<rscale>  0 0.15302314E+04</rscale>
<asrwt>0</asrwt>
<pdfrwt beam="1">  1        2 0.18763890E+00 0.15302314E+04</pdfrwt>
<pdfrwt beam="2">  1       -2 0.73842205E-01 0.15302314E+04</pdfrwt>
<totfact> 0.29377248E+01</totfact>
</mgrwt>
</event>
<event>
12    2  0.3518828E-008  0.2078980E+04  0.7818608E-02  0.8570560E-01
          1   -1    0    0  501    0  0.00000000000E+00  0.00000000000E+00  0.10317840400E+04  0.10317840400E+04  0.00000000000E+00 0. -1.
         -1   -1    0    0    0  501 -0.00000000000E+00 -0.00000000000E+00 -0.10472533483E+04  0.10472533483E+04  0.00000000000E+00 0.  1.
         23    2    1    2    0    0 -0.41432288402E+03  0.68670875571E+03 -0.23004713901E+03  0.83938454266E+03  0.91718901485E+02 0.  0.
        254    2    1    2    0    0  0.41432288402E+03 -0.68670875571E+03  0.21457783071E+03  0.12396528457E+04  0.92057762568E+03 0.  0.
         23    2    4    4    0    0  0.49625016409E+03 -0.86596192978E+03  0.20287555026E+03  0.10224064530E+04  0.89454888499E+02 0.  0.
         23    2    4    4    0    0 -0.81927280067E+02  0.17925317406E+03  0.11702280448E+02  0.21724639265E+03  0.90638138323E+02 0.  0.
          1    1    3    3  502    0 -0.57648675757E+01  0.33754157580E+02  0.37390564588E+01  0.34446442419E+02  0.00000000000E+00 0. -1.
         -1    1    3    3    0  502 -0.40855801644E+03  0.65295459813E+03 -0.23378619547E+03  0.80493810024E+03  0.00000000000E+00 0.  1.
         11    1    5    5    0    0  0.21686410266E+03 -0.30239576822E+03  0.96835487116E+02  0.38451313531E+03  0.00000000000E+00 0. -1.
        -11    1    5    5    0    0  0.27938606142E+03 -0.56356616156E+03  0.10604006315E+03  0.63789331770E+03  0.00000000000E+00 0.  1.
          4    1    6    6  503    0 -0.88615123701E+02  0.16069947679E+03 -0.14915805634E+02  0.18411801445E+03  0.00000000000E+00 0. -1.
         -4    1    6    6    0  503  0.66878436338E+01  0.18553697279E+02  0.26618086082E+02  0.33128378195E+02  0.00000000000E+00 0.  1.
<mgrwt>
<rscale>  0 0.20789798E+04</rscale>
<asrwt>0</asrwt>
<pdfrwt beam="1">  1        1 0.15873601E+00 0.20789798E+04</pdfrwt>
<pdfrwt beam="2">  1       -1 0.16111590E+00 0.20789798E+04</pdfrwt>
<totfact> 0.37747254E+00</totfact>
</mgrwt>
</event>
<event>
12    2  0.3518828E-008  0.1281552E+04  0.7818608E-02  0.9044324E-01
          1   -1    0    0  501    0  0.00000000000E+00  0.00000000000E+00  0.85972068407E+03  0.85972068407E+03  0.00000000000E+00 0. -1.
         -1   -1    0    0    0  501 -0.00000000000E+00 -0.00000000000E+00 -0.47758978680E+03  0.47758978680E+03  0.00000000000E+00 0.  1.
         23    2    1    2    0    0  0.48516347124E+02  0.12822091021E+03  0.39325659978E+03  0.42547011318E+03  0.87061048625E+02 0.  0.
        254    2    1    2    0    0 -0.48516347124E+02 -0.12822091021E+03 -0.11125702509E+02  0.91184035769E+03  0.90140702177E+03 0.  0.
         23    2    4    4    0    0  0.62370346433E+02 -0.36959617555E+03  0.30256952422E+03  0.49029607338E+03  0.91381231602E+02 0.  0.
         23    2    4    4    0    0 -0.11088669356E+03  0.24137526533E+03 -0.31369522673E+03  0.42154428431E+03  0.93471978925E+02 0.  0.
          4    1    3    3  502    0  0.61694194741E+02  0.69399393252E+02  0.16443739930E+03  0.18884413610E+03  0.00000000000E+00 0. -1.
         -4    1    3    3    0  502 -0.13177847617E+02  0.58821516962E+02  0.22881920048E+03  0.23662597709E+03  0.00000000000E+00 0.  1.
         11    1    5    5    0    0  0.54165065917E+02 -0.36211247691E+03  0.26733052976E+03  0.45334855514E+03  0.00000000000E+00 0.  1.
        -11    1    5    5    0    0  0.82052805166E+01 -0.74836986326E+01  0.35238994460E+02  0.36947518240E+02  0.00000000000E+00 0. -1.
          3    1    6    6  503    0 -0.60222614430E+02  0.65722403327E+02 -0.15801765355E+03  0.18142705537E+03  0.00000000000E+00 0. -1.
         -3    1    6    6    0  503 -0.50664079127E+02  0.17565286201E+03 -0.15567757318E+03  0.24011722894E+03  0.00000000000E+00 0.  1.
<mgrwt>
<rscale>  0 0.12815519E+04</rscale>
<asrwt>0</asrwt>
<pdfrwt beam="1">  1        1 0.13226472E+00 0.12815519E+04</pdfrwt>
<pdfrwt beam="2">  1       -1 0.73475352E-01 0.12815519E+04</pdfrwt>
<totfact> 0.36098959E+01</totfact>
</mgrwt>
</event>
<event>
12    2  0.3518828E-008  0.2240574E+04  0.7818608E-02  0.8501728E-01
          1   -1    0    0  501    0  0.00000000000E+00  0.00000000000E+00  0.91281987789E+03  0.91281987789E+03  0.00000000000E+00 0. -1.
         -1   -1    0    0    0  501 -0.00000000000E+00 -0.00000000000E+00 -0.13749077402E+04  0.13749077402E+04  0.00000000000E+00 0.  1.
         23    2    1    2    0    0 -0.15971428672E+03 -0.78142218356E+03  0.31069857148E+03  0.86090821631E+03  0.92195836464E+02 0.  0.
        254    2    1    2    0    0  0.15971428672E+03  0.78142218356E+03 -0.77278643377E+03  0.14268194018E+04  0.89581552268E+03 0.  0.
         23    2    4    4    0    0  0.42239214758E+03  0.56895662162E+03 -0.80411882812E+03  0.10756973903E+04  0.91602522124E+02 0.  0.
         23    2    4    4    0    0 -0.26267786086E+03  0.21246556194E+03  0.31332394345E+02  0.35112201149E+03  0.90353054313E+02 0.  0.
          2    1    3    3  502    0 -0.14115003290E+03 -0.73887110756E+03  0.27015818279E+03  0.79927422647E+03  0.00000000000E+00 0. -1.
         -2    1    3    3    0  502 -0.18564253825E+02 -0.42551075992E+02  0.40540388694E+02  0.61633989840E+02  0.00000000000E+00 0.  1.
         11    1    5    5    0    0  0.19313702540E+03  0.23937477729E+03 -0.28386112237E+03  0.41854430038E+03  0.00000000000E+00 0. -1.
        -11    1    5    5    0    0  0.22925512219E+03  0.32958184433E+03 -0.52025770575E+03  0.65715308989E+03  0.00000000000E+00 0.  1.
          4    1    6    6  503    0 -0.65535243314E+02  0.56149421880E+02 -0.31382438765E+02  0.91828553057E+02  0.00000000000E+00 0. -1.
         -4    1    6    6    0  503 -0.19714261755E+03  0.15631614006E+03  0.62714833111E+02  0.25929345844E+03  0.00000000000E+00 0.  1.
<mgrwt>
<rscale>  0 0.22405741E+04</rscale>
<asrwt>0</asrwt>
<pdfrwt beam="1">  1        1 0.14043383E+00 0.22405741E+04</pdfrwt>
<pdfrwt beam="2">  1       -1 0.21152427E+00 0.22405741E+04</pdfrwt>
<totfact> 0.20256147E+00</totfact>
</mgrwt>
</event>
<event>
12    2  0.3518828E-008  0.1898664E+04  0.7818608E-02  0.8655522E-01
         -2   -1    0    0    0  501 -0.00000000000E+00  0.00000000000E+00  0.37312654037E+03  0.37312654037E+03  0.00000000000E+00 0.  1.
          2   -1    0    0  501    0  0.00000000000E+00 -0.00000000000E+00 -0.24153503691E+04  0.24153503691E+04  0.00000000000E+00 0. -1.
         23    2    1    2    0    0  0.69628912768E+03  0.31516478240E+03 -0.64007237595E+03  0.10017715404E+04  0.98519964319E+02 0.  0.
        254    2    1    2    0    0 -0.69628912768E+03 -0.31516478240E+03 -0.14021514528E+04  0.17867053690E+04  0.80133637746E+03 0.  0.
         23    2    4    4    0    0 -0.44709838514E+03  0.12643517505E+03 -0.10816909911E+04  0.11804895001E+04  0.87276801781E+02 0.  0.
         23    2    4    4    0    0 -0.24919074255E+03 -0.44159995745E+03 -0.32046046167E+03  0.60621586893E+03  0.87728123594E+02 0.  0.
          4    1    3    3  502    0  0.29422392420E+03  0.13738149254E+03 -0.20958387205E+03  0.38648000141E+03  0.00000000000E+00 0. -1.
         -4    1    3    3    0  502  0.40206520348E+03  0.17778328986E+03 -0.43048850390E+03  0.61529153903E+03  0.00000000000E+00 0.  1.
         11    1    5    5    0    0 -0.35110933690E+03  0.13287959726E+03 -0.82643680477E+03  0.90770730200E+03  0.00000000000E+00 0. -1.
        -11    1    5    5    0    0 -0.95989048240E+02 -0.64444222095E+01 -0.25525418635E+03  0.27278219812E+03  0.00000000000E+00 0.  1.
          1    1    6    6  503    0 -0.18950446485E+03 -0.39701122700E+03 -0.27941547176E+03  0.52115531507E+03  0.00000000000E+00 0. -1.
         -1    1    6    6    0  503 -0.59686277696E+02 -0.44588730445E+02 -0.41044989904E+02  0.85060553866E+02  0.00000000000E+00 0.  1.
<mgrwt>
<rscale>  0 0.18986641E+04</rscale>
<asrwt>0</asrwt>
<pdfrwt beam="1">  1        2 0.37159235E+00 0.18986641E+04</pdfrwt>
<pdfrwt beam="2">  1       -2 0.57404085E-01 0.18986641E+04</pdfrwt>
<totfact> 0.10379981E+01</totfact>
</mgrwt>
</event>
<event>
12    2  0.3518828E-008  0.1150171E+04  0.7818608E-02  0.9157626E-01
          1   -1    0    0  501    0  0.00000000000E+00  0.00000000000E+00  0.22225858789E+03  0.22225858789E+03  0.00000000000E+00 0. -1.
         -1   -1    0    0    0  501 -0.00000000000E+00 -0.00000000000E+00 -0.14880103696E+04  0.14880103696E+04  0.00000000000E+00 0.  1.
         23    2    1    2    0    0  0.24227141435E+02  0.63914368390E+02 -0.53939852727E+03  0.55134950821E+03  0.91452217640E+02 0.  0.
        254    2    1    2    0    0 -0.24227141435E+02 -0.63914368390E+02 -0.72635325448E+03  0.11589194493E+04  0.90046279150E+03 0.  0.
         23    2    4    4    0    0 -0.25357713809E+03 -0.17042668232E+03 -0.81577224809E+03  0.87593848135E+03  0.91854468305E+02 0.  0.
         23    2    4    4    0    0  0.22934999666E+03  0.10651231393E+03  0.89418993608E+02  0.28298096798E+03  0.90200764055E+02 0.  0.
          2    1    3    3  502    0  0.49039308828E+02  0.16461475336E+02 -0.37240788844E+03  0.37598333654E+03  0.00000000000E+00 0. -1.
         -2    1    3    3    0  502 -0.24812167393E+02  0.47452893054E+02 -0.16699063883E+03  0.17536617167E+03  0.00000000000E+00 0.  1.
         11    1    5    5    0    0 -0.24169148055E+03 -0.17693060949E+03 -0.72935477357E+03  0.78846534361E+03  0.00000000000E+00 0. -1.
        -11    1    5    5    0    0 -0.11885657545E+02  0.65039271709E+01 -0.86417474516E+02  0.87473137738E+02  0.00000000000E+00 0.  1.
          1    1    6    6  503    0  0.16727209817E+03  0.80877587372E+02  0.20793180948E+02  0.18695853910E+03  0.00000000000E+00 0. -1.
         -1    1    6    6    0  503  0.62077898482E+02  0.25634726559E+02  0.68625812661E+02  0.96022428885E+02  0.00000000000E+00 0.  1.
<mgrwt>
<rscale>  0 0.11501706E+04</rscale>
<asrwt>0</asrwt>
<pdfrwt beam="1">  1        1 0.34193630E-01 0.11501706E+04</pdfrwt>
<pdfrwt beam="2">  1       -1 0.22892467E+00 0.11501706E+04</pdfrwt>
<totfact> 0.12376264E+01</totfact>
</mgrwt>
</event>
<event>
12    2  0.3518828E-008  0.1186070E+04  0.7818608E-02  0.9125138E-01
          2   -1    0    0  501    0  0.00000000000E+00  0.00000000000E+00  0.34018605522E+04  0.34018605522E+04  0.00000000000E+00 0. -1.
         -2   -1    0    0    0  501 -0.00000000000E+00 -0.00000000000E+00 -0.10338173422E+03  0.10338173422E+03  0.00000000000E+00 0.  1.
         23    2    1    2    0    0  0.27348687064E+02  0.18056262790E+03  0.11386610386E+04  0.11568480190E+04  0.91638229349E+02 0.  0.
        254    2    1    2    0    0 -0.27348687064E+02 -0.18056262790E+03  0.21598177794E+04  0.23483942674E+04  0.90376544616E+03 0.  0.
         23    2    4    4    0    0 -0.23990039357E+03 -0.45815820838E+03  0.15880034984E+04  0.16722875532E+04  0.85611955087E+02 0.  0.
         23    2    4    4    0    0  0.21255170651E+03  0.27759558048E+03  0.57181428102E+03  0.67610671424E+03  0.88944830195E+02 0.  0.
          4    1    3    3  502    0 -0.18542859547E+02  0.10597715366E+03  0.45213516502E+03  0.46475929489E+03  0.00000000000E+00 0. -1.
         -4    1    3    3    0  502  0.45891546610E+02  0.74585474241E+02  0.68652587353E+03  0.69208872411E+03  0.00000000000E+00 0.  1.
         11    1    5    5    0    0 -0.21972287673E+03 -0.38886344964E+03  0.12717239782E+04  0.13478778883E+04  0.00000000000E+00 0. -1.
        -11    1    5    5    0    0 -0.20177516846E+02 -0.69294758733E+02  0.31627952018E+03  0.32440966487E+03  0.00000000000E+00 0.  1.
          3    1    6    6  503    0  0.11375636601E+03  0.13339638407E+03  0.36783921816E+03  0.40748103822E+03  0.00000000000E+00 0. -1.
         -3    1    6    6    0  503  0.98795340499E+02  0.14419919640E+03  0.20397506286E+03  0.26862567602E+03  0.00000000000E+00 0.  1.
<mgrwt>
<rscale>  0 0.11860695E+04</rscale>
<asrwt>0</asrwt>
<pdfrwt beam="1">  1        2 0.52336307E+00 0.11860695E+04</pdfrwt>
<pdfrwt beam="2">  1       -2 0.15904885E-01 0.11860695E+04</pdfrwt>
<totfact> 0.30568012E+01</totfact>
</mgrwt>
</event>
<event>
12    2  0.3518828E-008  0.1222593E+04  0.7818608E-02  0.9093308E-01
         -1   -1    0    0    0  501 -0.00000000000E+00  0.00000000000E+00  0.14937141956E+03  0.14937141956E+03  0.00000000000E+00 0.  1.
          1   -1    0    0  501    0  0.00000000000E+00 -0.00000000000E+00 -0.25017052417E+04  0.25017052417E+04  0.00000000000E+00 0. -1.
         23    2    1    2    0    0  0.10658005665E+03 -0.16443123019E+02 -0.95728846301E+01  0.14159859556E+03  0.91262464224E+02 0.  0.
        254    2    1    2    0    0 -0.10658005665E+03  0.16443123019E+02 -0.23427609376E+04  0.25094780657E+04  0.89292870215E+03 0.  0.
         23    2    4    4    0    0  0.36844034837E+03  0.29378013638E+02 -0.13871169594E+04  0.14383645320E+04  0.90485963954E+02 0.  0.
         23    2    4    4    0    0 -0.47502040502E+03 -0.12934890619E+02 -0.95564397812E+03  0.10711135338E+04  0.90648181126E+02 0.  0.
          3    1    3    3  502    0  0.28447081369E+01  0.23539169150E+02 -0.18490164928E+02  0.30067774239E+02  0.00000000000E+00 0. -1.
         -3    1    3    3    0  502  0.10373534851E+03 -0.39982292169E+02  0.89172802976E+01  0.11153082133E+03  0.00000000000E+00 0.  1.
         11    1    5    5    0    0  0.35417691728E+03  0.23339268597E+02 -0.13702026031E+04  0.14154296817E+04  0.00000000000E+00 0.  1.
        -11    1    5    5    0    0  0.14263431089E+02  0.60387450412E+01 -0.16914356332E+02  0.22934850299E+02  0.00000000000E+00 0. -1.
          3    1    6    6  503    0 -0.13059445884E+03 -0.42215308131E+02 -0.30094101259E+03  0.33076054477E+03  0.00000000000E+00 0. -1.
         -3    1    6    6    0  503 -0.34442594618E+03  0.29280417512E+02 -0.65470296553E+03  0.74035298900E+03  0.00000000000E+00 0.  1.
<mgrwt>
<rscale>  0 0.12225928E+04</rscale>
<asrwt>0</asrwt>
<pdfrwt beam="1">  1        1 0.38487773E+00 0.12225928E+04</pdfrwt>
<pdfrwt beam="2">  1       -1 0.22980218E-01 0.12225928E+04</pdfrwt>
<totfact> 0.21725130E+01</totfact>
</mgrwt>
</event>
<event>
12    2  0.3518828E-008  0.2431788E+04  0.7818608E-02  0.8427698E-01
         -1   -1    0    0    0  501 -0.00000000000E+00  0.00000000000E+00  0.12156047571E+04  0.12156047571E+04  0.00000000000E+00 0.  1.
          1   -1    0    0  501    0  0.00000000000E+00 -0.00000000000E+00 -0.12161830989E+04  0.12161830989E+04  0.00000000000E+00 0. -1.
         23    2    1    2    0    0 -0.29073959335E+03  0.99739086796E+03 -0.12201807570E+03  0.10496809541E+04  0.87313458611E+02 0.  0.
        254    2    1    2    0    0  0.29073959335E+03 -0.99739086796E+03  0.12143973396E+03  0.13821069018E+04  0.90341232253E+03 0.  0.
         23    2    4    4    0    0 -0.29640376025E+03 -0.15945133507E+03 -0.13633036635E+01  0.34744235357E+03  0.86223042808E+02 0.  0.
         23    2    4    4    0    0  0.58714335360E+03 -0.83793953289E+03  0.12280303762E+03  0.10346645483E+04  0.92575174523E+02 0.  0.
          1    1    3    3  502    0 -0.10321759890E+03  0.27427349146E+03 -0.67048946460E+02  0.30062498576E+03  0.00000000000E+00 0. -1.
         -1    1    3    3    0  502 -0.18752199445E+03  0.72311737651E+03 -0.54969129236E+02  0.74905596839E+03  0.00000000000E+00 0.  1.
         11    1    5    5    0    0 -0.26000420051E+03 -0.12362799685E+03  0.26759396871E+02  0.28914033134E+03  0.00000000000E+00 0.  1.
        -11    1    5    5    0    0 -0.36399559743E+02 -0.35823338218E+02 -0.28122700535E+02  0.58302022228E+02  0.00000000000E+00 0. -1.
          2    1    6    6  503    0  0.30867352315E+03 -0.37848004962E+03  0.28777942392E+02  0.48923885968E+03  0.00000000000E+00 0. -1.
         -2    1    6    6    0  503  0.27846983045E+03 -0.45945948327E+03  0.94025095227E+02  0.54542568859E+03  0.00000000000E+00 0.  1.
<mgrwt>
<rscale>  0 0.24317878E+04</rscale>
<asrwt>0</asrwt>
<pdfrwt beam="1">  1        1 0.18710509E+00 0.24317878E+04</pdfrwt>
<pdfrwt beam="2">  1       -1 0.18701611E+00 0.24317878E+04</pdfrwt>
<totfact> 0.17235918E+00</totfact>
</mgrwt>
</event>
<event>
12    2  0.3518828E-008  0.1767626E+04  0.7818608E-02  0.8723707E-01
          2   -1    0    0  501    0  0.00000000000E+00  0.00000000000E+00  0.11116840080E+04  0.11116840080E+04  0.00000000000E+00 0. -1.
         -2   -1    0    0    0  501 -0.00000000000E+00 -0.00000000000E+00 -0.70265095483E+03  0.70265095483E+03  0.00000000000E+00 0.  1.
         23    2    1    2    0    0 -0.38737269680E+03 -0.37877417307E+03 -0.12798826906E+03  0.56408460238E+03  0.91010775224E+02 0.  0.
        254    2    1    2    0    0  0.38737269680E+03  0.37877417307E+03  0.53702132225E+03  0.12502503605E+04  0.99055872261E+03 0.  0.
         23    2    4    4    0    0  0.37173237441E+03 -0.78195505938E+02  0.66184274273E+03  0.76763467248E+03  0.83232679578E+02 0.  0.
         23    2    4    4    0    0  0.15640322393E+02  0.45696967901E+03 -0.12482142048E+03  0.48261568801E+03  0.90948381428E+02 0.  0.
          4    1    3    3  502    0 -0.17788848868E+03 -0.18101478937E+03 -0.13711480658E+02  0.25416269017E+03  0.00000000000E+00 0. -1.
         -4    1    3    3    0  502 -0.20948420812E+03 -0.19775938370E+03 -0.11427678840E+03  0.30992191220E+03  0.00000000000E+00 0.  1.
         11    1    5    5    0    0  0.33581329829E+02  0.14691555107E+02  0.44582105824E+02  0.57715783493E+02  0.00000000000E+00 0. -1.
        -11    1    5    5    0    0  0.33815104458E+03 -0.92887061045E+02  0.61726063691E+03  0.70991888898E+03  0.00000000000E+00 0.  1.
          1    1    6    6  503    0  0.50539786373E+01  0.46995698303E+01 -0.15842766768E+02  0.17280680413E+02  0.00000000000E+00 0. -1.
         -1    1    6    6    0  503  0.10586343755E+02  0.45227010918E+03 -0.10897865371E+03  0.46533500760E+03  0.00000000000E+00 0.  1.
<mgrwt>
<rscale>  0 0.17676265E+04</rscale>
<asrwt>0</asrwt>
<pdfrwt beam="1">  1        2 0.17102831E+00 0.17676265E+04</pdfrwt>
<pdfrwt beam="2">  1       -2 0.10810015E+00 0.17676265E+04</pdfrwt>
<totfact> 0.13901326E+01</totfact>
</mgrwt>
</event>
<event>
12    2  0.3518828E-008  0.2066128E+04  0.7818608E-02  0.8576313E-01
          2   -1    0    0  501    0  0.00000000000E+00  0.00000000000E+00  0.10157797547E+04  0.10157797547E+04  0.00000000000E+00 0. -1.
         -2   -1    0    0    0  501 -0.00000000000E+00 -0.00000000000E+00 -0.10506418608E+04  0.10506418608E+04  0.00000000000E+00 0.  1.
         23    2    1    2    0    0  0.86716118692E+01 -0.65555811924E+03  0.50199431228E+03  0.83086321754E+03  0.92215791201E+02 0.  0.
        254    2    1    2    0    0 -0.86716118692E+01  0.65555811924E+03 -0.53685641837E+03  0.12355583979E+04  0.89919858545E+03 0.  0.
         23    2    4    4    0    0  0.27808762712E+03 -0.91758247459E+02 -0.13149238863E+03  0.33361903224E+03  0.90879624073E+02 0.  0.
         23    2    4    4    0    0 -0.28675923899E+03  0.74731636669E+03 -0.40536402974E+03  0.90193936564E+03  0.91989182003E+02 0.  0.
          1    1    3    3  502    0 -0.46172564187E+01 -0.54292508455E+03  0.45386264873E+03  0.70765830060E+03  0.00000000000E+00 0. -1.
         -1    1    3    3    0  502  0.13288868288E+02 -0.11263303468E+03  0.48131663556E+02  0.12320491694E+03  0.00000000000E+00 0.  1.
         11    1    5    5    0    0  0.25556440230E+03 -0.10859305866E+03 -0.11205810884E+03  0.29943719854E+03  0.00000000000E+00 0.  1.
        -11    1    5    5    0    0  0.22523224814E+02  0.16834811197E+02 -0.19434279786E+02  0.34181833697E+02  0.00000000000E+00 0. -1.
          1    1    6    6  503    0 -0.21700680991E+03  0.44088335818E+03 -0.24252760468E+03  0.54798697986E+03  0.00000000000E+00 0. -1.
         -1    1    6    6    0  503 -0.69752429078E+02  0.30643300851E+03 -0.16283642506E+03  0.35395238577E+03  0.00000000000E+00 0.  1.
<mgrwt>
<rscale>  0 0.20661275E+04</rscale>
<asrwt>0</asrwt>
<pdfrwt beam="1">  1        2 0.15627381E+00 0.20661275E+04</pdfrwt>
<pdfrwt beam="2">  1       -2 0.16163721E+00 0.20661275E+04</pdfrwt>
<totfact> 0.55702947E+00</totfact>
</mgrwt>
</event>
<event>
12    2  0.3518828E-008  0.1449688E+04  0.7818608E-02  0.8918617E-01
          2   -1    0    0  501    0  0.00000000000E+00  0.00000000000E+00  0.14986115989E+04  0.14986115989E+04  0.00000000000E+00 0.  1.
         -2   -1    0    0    0  501 -0.00000000000E+00 -0.00000000000E+00 -0.35059061023E+03  0.35059061023E+03  0.00000000000E+00 0. -1.
         23    2    1    2    0    0  0.25362950966E+03  0.26016304086E+03  0.68587960669E+02  0.38115821310E+03  0.92544794910E+02 0.  0.
        254    2    1    2    0    0 -0.25362950966E+03 -0.26016304086E+03  0.10794330279E+04  0.14680439960E+04  0.92626388051E+03 0.  0.
         23    2    4    4    0    0 -0.20846841697E+03 -0.10408648504E+03  0.12111779428E+04  0.12368212228E+04  0.92095877695E+02 0.  0.
         23    2    4    4    0    0 -0.45161092686E+02 -0.15607655582E+03 -0.13174491489E+03  0.23122277320E+03  0.98528334399E+02 0.  0.
          3    1    3    3  502    0  0.52582377827E+02  0.73586622254E+02  0.56437244755E+02  0.10660703555E+03  0.00000000000E+00 0.  1.
         -3    1    3    3    0  502  0.20104713183E+03  0.18657641860E+03  0.12150715914E+02  0.27455117755E+03  0.00000000000E+00 0. -1.
         11    1    5    5    0    0 -0.67295673775E+02  0.73104218821E+01  0.25211881098E+03  0.26104797418E+03  0.00000000000E+00 0. -1.
        -11    1    5    5    0    0 -0.14117274320E+03 -0.11139690692E+03  0.95905913186E+03  0.97577324860E+03  0.00000000000E+00 0.  1.
          1    1    6    6  503    0 -0.53230792684E+02 -0.43116504165E+02 -0.18250622026E+02  0.70891716198E+02  0.00000000000E+00 0. -1.
         -1    1    6    6    0  503  0.80696999981E+01 -0.11296005165E+03 -0.11349429286E+03  0.16033105700E+03  0.00000000000E+00 0.  1.
<mgrwt>
<rscale>  0 0.14496885E+04</rscale>
<asrwt>0</asrwt>
<pdfrwt beam="1">  1        2 0.23055563E+00 0.14496885E+04</pdfrwt>
<pdfrwt beam="2">  1       -2 0.53937018E-01 0.14496885E+04</pdfrwt>
<totfact> 0.39921566E+01</totfact>
</mgrwt>
</event>
<event>
12    2  0.3518828E-008  0.1743269E+04  0.7818608E-02  0.8737064E-01
          1   -1    0    0  501    0  0.00000000000E+00  0.00000000000E+00  0.34520001524E+04  0.34520001524E+04  0.00000000000E+00 0. -1.
         -1   -1    0    0    0  501 -0.00000000000E+00 -0.00000000000E+00 -0.22008881644E+03  0.22008881644E+03  0.00000000000E+00 0.  1.
         23    2    1    2    0    0 -0.13436137966E+03  0.40978103425E+03  0.21676800637E+04  0.22137663615E+04  0.12629793523E+03 0.  0.
        254    2    1    2    0    0  0.13436137966E+03 -0.40978103425E+03  0.10642312723E+04  0.14583226073E+04  0.89896782466E+03 0.  0.
         23    2    4    4    0    0  0.44767659565E+03 -0.35574200132E+03  0.36659455827E+03  0.68557119148E+03  0.93003132392E+02 0.  0.
         23    2    4    4    0    0 -0.31331521599E+03 -0.54039032934E+02  0.69763671400E+03  0.77275141585E+03  0.96752903427E+02 0.  0.
          2    1    3    3  502    0 -0.13549454897E+03  0.29287467202E+03  0.13655565931E+04  0.14031675435E+04  0.00000000000E+00 0. -1.
         -2    1    3    3    0  502  0.11331693043E+01  0.11690636223E+03  0.80212347059E+03  0.81059881796E+03  0.00000000000E+00 0.  1.
         11    1    5    5    0    0  0.66348732614E+02 -0.24842310482E+02  0.21566638736E+02  0.74056833688E+02  0.00000000000E+00 0. -1.
        -11    1    5    5    0    0  0.38132786304E+03 -0.33089969084E+03  0.34502791953E+03  0.61151435779E+03  0.00000000000E+00 0.  1.
          4    1    6    6  503    0 -0.27707695132E+03 -0.76196595664E+02  0.63588559888E+03  0.69780230224E+03  0.00000000000E+00 0. -1.
         -4    1    6    6    0  503 -0.36238264670E+02  0.22157562730E+02  0.61751115120E+02  0.74949113611E+02  0.00000000000E+00 0.  1.
<mgrwt>
<rscale>  0 0.17432689E+04</rscale>
<asrwt>0</asrwt>
<pdfrwt beam="1">  1        1 0.53107691E+00 0.17432689E+04</pdfrwt>
<pdfrwt beam="2">  1       -1 0.33859821E-01 0.17432689E+04</pdfrwt>
<totfact> 0.21427443E+00</totfact>
</mgrwt>
</event>
<event>
12    2  0.3518828E-008  0.2854923E+04  0.7818608E-02  0.8286417E-01
         -1   -1    0    0    0  501 -0.00000000000E+00  0.00000000000E+00  0.84113397391E+03  0.84113397391E+03  0.00000000000E+00 0.  1.
          1   -1    0    0  501    0  0.00000000000E+00 -0.00000000000E+00 -0.24224995574E+04  0.24224995574E+04  0.00000000000E+00 0. -1.
         23    2    1    2    0    0  0.51798814801E+03 -0.87391608920E+03  0.18706446959E+03  0.10368568283E+04  0.89654415606E+02 0.  0.
        254    2    1    2    0    0 -0.51798814801E+03  0.87391608920E+03 -0.17684300531E+04  0.22267767029E+04  0.89395110592E+03 0.  0.
         23    2    4    4    0    0 -0.73196165964E+03  0.71252492682E+03 -0.11140602248E+04  0.15142358046E+04  0.91215375480E+02 0.  0.
         23    2    4    4    0    0  0.21397351163E+03  0.16139116238E+03 -0.65436982820E+03  0.71254089837E+03  0.87652089613E+02 0.  0.
          4    1    3    3  502    0  0.12191135304E+03 -0.25555858398E+03  0.83883545780E+02  0.29531172869E+03  0.00000000000E+00 0. -1.
         -4    1    3    3    0  502  0.39607679497E+03 -0.61835750522E+03  0.10318092381E+03  0.74154509965E+03  0.00000000000E+00 0.  1.
         11    1    5    5    0    0 -0.54788668215E+03  0.47621622462E+03 -0.77898088977E+03  0.10647877421E+04  0.00000000000E+00 0.  1.
        -11    1    5    5    0    0 -0.18407497750E+03  0.23630870220E+03 -0.33507933508E+03  0.44944806249E+03  0.00000000000E+00 0. -1.
          1    1    6    6  503    0  0.33744248040E+02  0.42748552286E+02 -0.64347704918E+02  0.84301483537E+02  0.00000000000E+00 0. -1.
         -1    1    6    6    0  503  0.18022926359E+03  0.11864261010E+03 -0.59002212328E+03  0.62823941483E+03  0.00000000000E+00 0.  1.
<mgrwt>
<rscale>  0 0.28549232E+04</rscale>
<asrwt>0</asrwt>
<pdfrwt beam="1">  1        1 0.37269225E+00 0.28549232E+04</pdfrwt>
<pdfrwt beam="2">  1       -1 0.12940522E+00 0.28549232E+04</pdfrwt>
<totfact> 0.67742250E-01</totfact>
</mgrwt>
</event>
<event>
12    2  0.3518828E-008  0.2034744E+04  0.7818608E-02  0.8590547E-01
          2   -1    0    0  501    0  0.00000000000E+00  0.00000000000E+00  0.19854067179E+04  0.19854067179E+04  0.00000000000E+00 0. -1.
         -2   -1    0    0    0  501 -0.00000000000E+00 -0.00000000000E+00 -0.52132672486E+03  0.52132672486E+03  0.00000000000E+00 0.  1.
         23    2    1    2    0    0 -0.13067842250E+03  0.20939769166E+03 -0.36715805352E+03  0.45194723147E+03  0.92341866939E+02 0.  0.
        254    2    1    2    0    0  0.13067842250E+03 -0.20939769166E+03  0.18312380466E+04  0.20547862113E+04  0.89877102066E+03 0.  0.
         23    2    4    4    0    0 -0.24760820420E+03 -0.41423515595E+03  0.91442415711E+03  0.10380752121E+04  0.92347278020E+02 0.  0.
         23    2    4    4    0    0  0.37828662670E+03  0.20483746429E+03  0.91681388945E+03  0.10167109991E+04  0.89968823369E+02 0.  0.
          1    1    3    3  502    0 -0.18280325296E+02  0.20495469075E+02 -0.44362633865E+01  0.27819327425E+02  0.00000000000E+00 0. -1.
         -1    1    3    3    0  502 -0.11239809720E+03  0.18890222258E+03 -0.36272179013E+03  0.42412790404E+03  0.00000000000E+00 0.  1.
         11    1    5    5    0    0 -0.19649845604E+03 -0.32955362269E+03  0.79697173257E+03  0.88452313479E+03  0.00000000000E+00 0. -1.
        -11    1    5    5    0    0 -0.51109748157E+02 -0.84681533256E+02  0.11745242453E+03  0.15355207736E+03  0.00000000000E+00 0.  1.
          3    1    6    6  503    0  0.43544703521E+02  0.50971840685E+02  0.96889458786E+02  0.11782120765E+03  0.00000000000E+00 0. -1.
         -3    1    6    6    0  503  0.33474192318E+03  0.15386562361E+03  0.81992443067E+03  0.89888979150E+03  0.00000000000E+00 0.  1.
<mgrwt>
<rscale>  0 0.20347438E+04</rscale>
<asrwt>0</asrwt>
<pdfrwt beam="1">  1        2 0.30544718E+00 0.20347438E+04</pdfrwt>
<pdfrwt beam="2">  1       -2 0.80204112E-01 0.20347438E+04</pdfrwt>
<totfact> 0.86670364E+00</totfact>
</mgrwt>
</event>
<event>
12    2  0.3518828E-008  0.1987339E+04  0.7818608E-02  0.8612563E-01
         -1   -1    0    0    0  501 -0.00000000000E+00  0.00000000000E+00  0.70268308546E+03  0.70268308546E+03  0.00000000000E+00 0.  1.
          1   -1    0    0  501    0  0.00000000000E+00 -0.00000000000E+00 -0.14051560449E+04  0.14051560449E+04  0.00000000000E+00 0. -1.
         23    2    1    2    0    0  0.56785664781E+01 -0.62487478256E+03  0.22759003591E+03  0.67028825042E+03  0.83596496350E+02 0.  0.
        254    2    1    2    0    0 -0.56785664781E+01  0.62487478256E+03 -0.93006299536E+03  0.14375508800E+04  0.90057460385E+03 0.  0.
         23    2    4    4    0    0 -0.18134014559E+03 -0.14007235025E+03 -0.44973836723E+03  0.51279886135E+03  0.90518293954E+02 0.  0.
         23    2    4    4    0    0  0.17566157912E+03  0.76494713281E+03 -0.48032462814E+03  0.92475201860E+03  0.91942596961E+02 0.  0.
          1    1    3    3  502    0  0.35332707671E+02 -0.13212185792E+03  0.45631108632E+02  0.14417622427E+03  0.00000000000E+00 0. -1.
         -1    1    3    3    0  502 -0.29654141193E+02 -0.49275292464E+03  0.18195892728E+03  0.52611202614E+03  0.00000000000E+00 0.  1.
         11    1    5    5    0    0 -0.77157854539E+02 -0.11412558317E+03 -0.22693061267E+03  0.26547219481E+03  0.00000000000E+00 0. -1.
        -11    1    5    5    0    0 -0.10418229105E+03 -0.25946767074E+02 -0.22280775456E+03  0.24732666654E+03  0.00000000000E+00 0.  1.
          1    1    6    6  503    0  0.96914562827E+01  0.79863170875E+02 -0.82973262856E+02  0.11557081265E+03  0.00000000000E+00 0. -1.
         -1    1    6    6    0  503  0.16597012283E+03  0.68508396193E+03 -0.39735136528E+03  0.80918120595E+03  0.00000000000E+00 0.  1.
<mgrwt>
<rscale>  0 0.19873393E+04</rscale>
<asrwt>0</asrwt>
<pdfrwt beam="1">  1        1 0.21617785E+00 0.19873393E+04</pdfrwt>
<pdfrwt beam="2">  1       -1 0.10810509E+00 0.19873393E+04</pdfrwt>
<totfact> 0.56260857E+00</totfact>
</mgrwt>
</event>
<event>
12    2  0.3518828E-008  0.1998662E+04  0.7818608E-02  0.8607246E-01
         -2   -1    0    0    0  501 -0.00000000000E+00  0.00000000000E+00  0.91715518707E+03  0.91715518707E+03  0.00000000000E+00 0.  1.
          2   -1    0    0  501    0  0.00000000000E+00 -0.00000000000E+00 -0.10888696140E+04  0.10888696140E+04  0.00000000000E+00 0. -1.
         23    2    1    2    0    0 -0.57061732357E+03 -0.16382807539E+03 -0.59558741194E+03  0.84605064167E+03  0.92916923978E+02 0.  0.
        254    2    1    2    0    0  0.57061732357E+03  0.16382807539E+03  0.42387298503E+03  0.11599741594E+04  0.90190241976E+03 0.  0.
         23    2    4    4    0    0  0.24275596943E+03 -0.72035546616E+02  0.63906890151E+03  0.69330243220E+03  0.90219847815E+02 0.  0.
         23    2    4    4    0    0  0.32786135414E+03  0.23586362200E+03 -0.21519591649E+03  0.46667172719E+03  0.91370141531E+02 0.  0.
          4    1    3    3  502    0 -0.46507435782E+03 -0.16798774936E+03 -0.47373504238E+03  0.68479115986E+03  0.00000000000E+00 0. -1.
         -4    1    3    3    0  502 -0.10554296575E+03  0.41596739762E+01 -0.12185236956E+03  0.16125948181E+03  0.00000000000E+00 0.  1.
         11    1    5    5    0    0 -0.20230510147E+01 -0.13762329406E+02  0.15208140808E+02  0.20610240001E+02  0.00000000000E+00 0. -1.
        -11    1    5    5    0    0  0.24477902045E+03 -0.58273217210E+02  0.62386076071E+03  0.67269219220E+03  0.00000000000E+00 0.  1.
          2    1    6    6  503    0  0.96776601676E+02  0.89956449008E+02 -0.27028322763E+02  0.13486438960E+03  0.00000000000E+00 0. -1.
         -2    1    6    6    0  503  0.23108475246E+03  0.14590717300E+03 -0.18816759373E+03  0.33180733759E+03  0.00000000000E+00 0.  1.
<mgrwt>
<rscale>  0 0.19986620E+04</rscale>
<asrwt>0</asrwt>
<pdfrwt beam="1">  1        2 0.16751840E+00 0.19986620E+04</pdfrwt>
<pdfrwt beam="2">  1       -2 0.14110080E+00 0.19986620E+04</pdfrwt>
<totfact> 0.72378008E+00</totfact>
</mgrwt>
</event>
<event>
12    2  0.3518828E-008  0.1394833E+04  0.7818608E-02  0.8957567E-01
          2   -1    0    0  501    0  0.00000000000E+00  0.00000000000E+00  0.16346956437E+04  0.16346956437E+04  0.00000000000E+00 0. -1.
         -2   -1    0    0    0  501 -0.00000000000E+00 -0.00000000000E+00 -0.29754155680E+03  0.29754155680E+03  0.00000000000E+00 0.  1.
         23    2    1    2    0    0  0.19507973877E+03  0.32801919816E+03  0.54804257899E+03  0.67393974717E+03  0.90506439529E+02 0.  0.
        254    2    1    2    0    0 -0.19507973877E+03 -0.32801919816E+03  0.78911150788E+03  0.12582974533E+04  0.90275290654E+03 0.  0.
         23    2    4    4    0    0 -0.44784544106E+02 -0.45910125289E+03  0.33886104275E+02  0.47163036593E+03  0.92235124580E+02 0.  0.
         23    2    4    4    0    0 -0.15029519466E+03  0.13108205473E+03  0.75522540360E+03  0.78666708736E+03  0.93319587890E+02 0.  0.
          3    1    3    3  502    0  0.20047292139E+02  0.55477078924E+02  0.14723806927E+03  0.15861478257E+03  0.00000000000E+00 0. -1.
         -3    1    3    3    0  502  0.17503244663E+03  0.27254211924E+03  0.40080450972E+03  0.51532496460E+03  0.00000000000E+00 0.  1.
         11    1    5    5    0    0  0.10017955957E+02 -0.26891590292E+03 -0.84266512248E+01  0.26923434168E+03  0.00000000000E+00 0. -1.
        -11    1    5    5    0    0 -0.54802500063E+02 -0.19018534997E+03  0.42312755500E+02  0.20239602425E+03  0.00000000000E+00 0.  1.
          2    1    6    6  503    0 -0.93939308307E+02  0.13334477072E+03  0.53328541914E+03  0.55767262779E+03  0.00000000000E+00 0. -1.
         -2    1    6    6    0  503 -0.56355886354E+02 -0.22627159873E+01  0.22193998447E+03  0.22899445957E+03  0.00000000000E+00 0.  1.
<mgrwt>
<rscale>  0 0.13948332E+04</rscale>
<asrwt>0</asrwt>
<pdfrwt beam="1">  1        2 0.25149163E+00 0.13948332E+04</pdfrwt>
<pdfrwt beam="2">  1       -2 0.45775625E-01 0.13948332E+04</pdfrwt>
<totfact> 0.46981301E+01</totfact>
</mgrwt>
</event>
<event>
12    2  0.3518828E-008  0.2794309E+04  0.7818608E-02  0.8305037E-01
          2   -1    0    0  501    0  0.00000000000E+00  0.00000000000E+00  0.20767389985E+04  0.20767389985E+04  0.00000000000E+00 0. -1.
         -2   -1    0    0    0  501 -0.00000000000E+00 -0.00000000000E+00 -0.93995496110E+03  0.93995496110E+03  0.00000000000E+00 0.  1.
         23    2    1    2    0    0 -0.98710579474E+03 -0.14954138481E+03 -0.30724402986E+03  0.10494651882E+04  0.10118207097E+03 0.  0.
        254    2    1    2    0    0  0.98710579474E+03  0.14954138481E+03  0.14440280672E+04  0.19672287714E+04  0.88771138575E+03 0.  0.
         23    2    4    4    0    0  0.15804219239E+03  0.50505510989E+02  0.99545386774E+03  0.10142084994E+04  0.10080841356E+03 0.  0.
         23    2    4    4    0    0  0.82906360235E+03  0.99035873819E+02  0.44857419949E+03  0.95302027202E+03  0.99369338280E+02 0.  0.
          1    1    3    3  502    0 -0.28881464040E+03 -0.27500125073E+01 -0.66397485619E+02  0.29636140973E+03  0.00000000000E+00 0. -1.
         -1    1    3    3    0  502 -0.69829115433E+03 -0.14679137230E+03 -0.24084654424E+03  0.75310377842E+03  0.00000000000E+00 0.  1.
         11    1    5    5    0    0  0.10117413460E+03  0.65284673797E+02  0.45841023293E+03  0.47396016267E+03  0.00000000000E+00 0. -1.
        -11    1    5    5    0    0  0.56868057792E+02 -0.14779162808E+02  0.53704363481E+03  0.54024833674E+03  0.00000000000E+00 0.  1.
          1    1    6    6  503    0  0.16562655249E+02  0.12846027882E+02  0.25224760896E+02  0.32796806910E+02  0.00000000000E+00 0. -1.
         -1    1    6    6    0  503  0.81250094710E+03  0.86189845938E+02  0.42334943860E+03  0.92022346511E+03  0.00000000000E+00 0.  1.
<mgrwt>
<rscale>  0 0.27943093E+04</rscale>
<asrwt>0</asrwt>
<pdfrwt beam="1">  1        2 0.31949831E+00 0.27943093E+04</pdfrwt>
<pdfrwt beam="2">  1       -2 0.14460846E+00 0.27943093E+04</pdfrwt>
<totfact> 0.17394559E+00</totfact>
</mgrwt>
</event>
<event>
12    2  0.3518828E-008  0.1298208E+04  0.7818608E-02  0.9030988E-01
         -2   -1    0    0    0  501 -0.00000000000E+00  0.00000000000E+00  0.23041741250E+03  0.23041741250E+03  0.00000000000E+00 0.  1.
          2   -1    0    0  501    0  0.00000000000E+00 -0.00000000000E+00 -0.18285766313E+04  0.18285766313E+04  0.00000000000E+00 0. -1.
         23    2    1    2    0    0 -0.15461530632E+03  0.44135295756E+02  0.35920711994E+02  0.18698174338E+03  0.88419780167E+02 0.  0.
        254    2    1    2    0    0  0.15461530632E+03 -0.44135295756E+02 -0.16340799308E+04  0.18720123005E+04  0.89908787972E+03 0.  0.
         23    2    4    4    0    0 -0.33748468151E+03  0.10296068042E+03 -0.90873133212E+03  0.97861327796E+03  0.85991289346E+02 0.  0.
         23    2    4    4    0    0  0.49209998784E+03 -0.14709597617E+03 -0.72534859870E+03  0.89339902250E+03  0.90728162847E+02 0.  0.
          1    1    3    3  502    0 -0.29657066769E+02  0.36472983304E+02 -0.18439892744E+02  0.50496037120E+02  0.00000000000E+00 0. -1.
         -1    1    3    3    0  502 -0.12495823956E+03  0.76623124523E+01  0.54360604738E+02  0.13648570626E+03  0.00000000000E+00 0.  1.
         11    1    5    5    0    0  0.31624049506E+01 -0.26510045249E+01 -0.29738617603E+02  0.30023557534E+02  0.00000000000E+00 0.  1.
        -11    1    5    5    0    0 -0.34064708646E+03  0.10561168494E+03 -0.87899271452E+03  0.94858972042E+03  0.00000000000E+00 0. -1.
          3    1    6    6  503    0  0.21459070217E+03 -0.10974151483E+03 -0.31550568036E+03  0.39703426033E+03  0.00000000000E+00 0. -1.
         -3    1    6    6    0  503  0.27750928567E+03 -0.37354461346E+02 -0.40984291834E+03  0.49636476217E+03  0.00000000000E+00 0.  1.
<mgrwt>
<rscale>  0 0.12982078E+04</rscale>
<asrwt>0</asrwt>
<pdfrwt beam="1">  1        2 0.28131950E+00 0.12982078E+04</pdfrwt>
<pdfrwt beam="2">  1       -2 0.35448831E-01 0.12982078E+04</pdfrwt>
<totfact> 0.60979554E+01</totfact>
</mgrwt>
</event>
<event>
12    2  0.3518828E-008  0.3340568E+04  0.7818608E-02  0.8152649E-01
         -1   -1    0    0    0  501 -0.00000000000E+00  0.00000000000E+00  0.76919377901E+03  0.76919377901E+03  0.00000000000E+00 0.  1.
          1   -1    0    0  501    0  0.00000000000E+00 -0.00000000000E+00 -0.36269777180E+04  0.36269777180E+04  0.00000000000E+00 0. -1.
         23    2    1    2    0    0 -0.77271580217E+03  0.13014959327E+04 -0.92230579112E+03  0.17747043071E+04  0.89140515629E+02 0.  0.
        254    2    1    2    0    0  0.77271580217E+03 -0.13014959327E+04 -0.19354781479E+04  0.26214671899E+04  0.91380150649E+03 0.  0.
         23    2    4    4    0    0  0.13352434814E+03  0.10811690297E+02  0.36485542060E+02  0.16634302391E+03  0.91614205410E+02 0.  0.
         23    2    4    4    0    0  0.63919145403E+03 -0.13123076230E+04 -0.19719636899E+04  0.24551241660E+04  0.90977271321E+02 0.  0.
          1    1    3    3  502    0 -0.56853136691E+03  0.96664597833E+03 -0.72798908588E+03  0.13370117695E+04  0.00000000000E+00 0. -1.
         -1    1    3    3    0  502 -0.20418443525E+03  0.33484995435E+03 -0.19431670525E+03  0.43769253760E+03  0.00000000000E+00 0.  1.
         11    1    5    5    0    0  0.57800786853E+00 -0.68612107190E+01  0.31383716953E+02  0.32130172664E+02  0.00000000000E+00 0. -1.
        -11    1    5    5    0    0  0.13294634027E+03  0.17672901016E+02  0.51018251067E+01  0.13421285125E+03  0.00000000000E+00 0.  1.
          1    1    6    6  503    0  0.41786944579E+03 -0.77676377903E+03 -0.12347789246E+04  0.15174504390E+04  0.00000000000E+00 0. -1.
         -1    1    6    6    0  503  0.22132200823E+03 -0.53554384395E+03 -0.73718476536E+03  0.93767372705E+03  0.00000000000E+00 0.  1.
<mgrwt>
<rscale>  0 0.33405680E+04</rscale>
<asrwt>0</asrwt>
<pdfrwt beam="1">  1        1 0.55799658E+00 0.33405680E+04</pdfrwt>
<pdfrwt beam="2">  1       -1 0.11833750E+00 0.33405680E+04</pdfrwt>
<totfact> 0.10462757E-01</totfact>
</mgrwt>
</event>
<event>
12    2  0.3518828E-008  0.1741941E+04  0.7818608E-02  0.8737799E-01
          2   -1    0    0  501    0  0.00000000000E+00  0.00000000000E+00  0.63764380933E+03  0.63764380933E+03  0.00000000000E+00 0. -1.
         -2   -1    0    0    0  501 -0.00000000000E+00 -0.00000000000E+00 -0.11896754756E+04  0.11896754756E+04  0.00000000000E+00 0.  1.
         23    2    1    2    0    0  0.33471698186E+03  0.11210120984E+03  0.34819033587E+03  0.50339389043E+03  0.86987123938E+02 0.  0.
        254    2    1    2    0    0 -0.33471698186E+03 -0.11210120984E+03 -0.90022200218E+03  0.13239253945E+04  0.90431004522E+03 0.  0.
         23    2    4    4    0    0 -0.46085044103E+03  0.18468801618E+03 -0.84450612447E+03  0.98395598463E+03  0.92119450170E+02 0.  0.
         23    2    4    4    0    0  0.12613345917E+03 -0.29678922602E+03 -0.55715877711E+02  0.33996940991E+03  0.92094768785E+02 0.  0.
          4    1    3    3  502    0  0.33607906223E+03  0.11828010932E+03  0.33635532233E+03  0.48997369643E+03  0.00000000000E+00 0. -1.
         -4    1    3    3    0  502 -0.13620803669E+01 -0.61788994708E+01  0.11835013538E+02  0.13420194001E+02  0.00000000000E+00 0.  1.
         11    1    5    5    0    0 -0.29547598471E+02  0.38781936913E+02 -0.10014269585E+03  0.11138069284E+03  0.00000000000E+00 0. -1.
        -11    1    5    5    0    0 -0.43130284256E+03  0.14590607927E+03 -0.74436342862E+03  0.87257529179E+03  0.00000000000E+00 0.  1.
          3    1    6    6  503    0 -0.55899917059E+01 -0.20242531186E+02 -0.24193279703E+02  0.32036274111E+02  0.00000000000E+00 0. -1.
         -3    1    6    6    0  503  0.13172345087E+03 -0.27654669484E+03 -0.31522598008E+02  0.30793313580E+03  0.00000000000E+00 0.  1.
<mgrwt>
<rscale>  0 0.17419405E+04</rscale>
<asrwt>0</asrwt>
<pdfrwt beam="1">  1        2 0.98099049E-01 0.17419405E+04</pdfrwt>
<pdfrwt beam="2">  1       -2 0.18302699E+00 0.17419405E+04</pdfrwt>
<totfact> 0.75407682E+00</totfact>
</mgrwt>
</event>
<event>
12    2  0.3518828E-008  0.1543478E+04  0.7818608E-02  0.8856044E-01
         -2   -1    0    0    0  501 -0.00000000000E+00  0.00000000000E+00  0.23986023752E+03  0.23986023752E+03  0.00000000000E+00 0.  1.
          2   -1    0    0  501    0  0.00000000000E+00 -0.00000000000E+00 -0.24830351479E+04  0.24830351479E+04  0.00000000000E+00 0. -1.
         23    2    1    2    0    0  0.19757549136E+03  0.13888614797E+03 -0.15115475748E+04  0.15333952018E+04  0.90550192765E+02 0.  0.
        254    2    1    2    0    0 -0.19757549136E+03 -0.13888614797E+03 -0.73162733564E+03  0.11895001836E+04  0.90625972636E+03 0.  0.
         23    2    4    4    0    0  0.34446736584E+03  0.75283742808E+01 -0.19033485856E+03  0.40422846160E+03  0.91971997003E+02 0.  0.
         23    2    4    4    0    0 -0.54204285720E+03 -0.14641452225E+03 -0.54129247708E+03  0.78527172199E+03  0.91686750646E+02 0.  0.
          1    1    3    3  502    0  0.79791122348E+02  0.96179134911E+02 -0.94042296823E+03  0.94868983781E+03  0.00000000000E+00 0. -1.
         -1    1    3    3    0  502  0.11778436901E+03  0.42707013058E+02 -0.57112460652E+03  0.58470536403E+03  0.00000000000E+00 0.  1.
         11    1    5    5    0    0  0.27360479475E+03 -0.29563936612E+02 -0.16220090680E+03  0.31944130013E+03  0.00000000000E+00 0.  1.
        -11    1    5    5    0    0  0.70862571090E+02  0.37092310893E+02 -0.28133951764E+02  0.84787161473E+02  0.00000000000E+00 0. -1.
          4    1    6    6  503    0 -0.29099236379E+03 -0.12107336340E+03 -0.32787829230E+03  0.45479609680E+03  0.00000000000E+00 0. -1.
         -4    1    6    6    0  503 -0.25105049342E+03 -0.25341158848E+02 -0.21341418478E+03  0.33047562518E+03  0.00000000000E+00 0.  1.
<mgrwt>
<rscale>  0 0.15434784E+04</rscale>
<asrwt>0</asrwt>
<pdfrwt beam="1">  1        2 0.38200541E+00 0.15434784E+04</pdfrwt>
<pdfrwt beam="2">  1       -2 0.36901574E-01 0.15434784E+04</pdfrwt>
<totfact> 0.23784285E+01</totfact>
</mgrwt>
</event>
<event>
12    2  0.3518828E-008  0.2431116E+04  0.7818608E-02  0.8427945E-01
          2   -1    0    0  501    0  0.00000000000E+00  0.00000000000E+00  0.41372064341E+04  0.41372064341E+04  0.00000000000E+00 0. -1.
         -2   -1    0    0    0  501 -0.00000000000E+00 -0.00000000000E+00 -0.35714457701E+03  0.35714457701E+03  0.00000000000E+00 0.  1.
         23    2    1    2    0    0  0.66190111925E+03 -0.61250000805E+03  0.65560229749E+03  0.11183656166E+04  0.87509590389E+02 0.  0.
        254    2    1    2    0    0 -0.66190111925E+03  0.61250000805E+03  0.31244595596E+04  0.33759853945E+04  0.90651006214E+03 0.  0.
         23    2    4    4    0    0 -0.88941257535E+02  0.39312291124E+03  0.37632040828E+03  0.55879001590E+03  0.90404986278E+02 0.  0.
         23    2    4    4    0    0 -0.57295986172E+03  0.21937709681E+03  0.27481391513E+04  0.28171953786E+04  0.88947694985E+02 0.  0.
          3    1    3    3  502    0  0.18853579625E+03 -0.19098425047E+03  0.14904397386E+03  0.30697693161E+03  0.00000000000E+00 0. -1.
         -3    1    3    3    0  502  0.47336532300E+03 -0.42151575757E+03  0.50655832363E+03  0.81138868500E+03  0.00000000000E+00 0.  1.
         11    1    5    5    0    0 -0.10056767003E+03  0.34422709281E+03  0.35362751738E+03  0.50364528065E+03  0.00000000000E+00 0.  1.
        -11    1    5    5    0    0  0.11626412494E+02  0.48895818434E+02  0.22692890909E+02  0.55144735249E+02  0.00000000000E+00 0. -1.
          2    1    6    6  503    0 -0.49936912332E+03  0.19370650790E+03  0.25139728729E+04  0.25703990620E+04  0.00000000000E+00 0.  1.
         -2    1    6    6    0  503 -0.73590738395E+02  0.25670588905E+02  0.23416627848E+03  0.24679631660E+03  0.00000000000E+00 0. -1.
<mgrwt>
<rscale>  0 0.24311157E+04</rscale>
<asrwt>0</asrwt>
<pdfrwt beam="1">  1        2 0.63649327E+00 0.24311157E+04</pdfrwt>
<pdfrwt beam="2">  1       -2 0.54945322E-01 0.24311157E+04</pdfrwt>
<totfact> 0.73934809E-01</totfact>
</mgrwt>
</event>
<event>
12    2  0.3518828E-008  0.1518278E+04  0.7818608E-02  0.8872388E-01
         -1   -1    0    0    0  501 -0.00000000000E+00  0.00000000000E+00  0.57565543558E+03  0.57565543558E+03  0.00000000000E+00 0.  1.
          1   -1    0    0  501    0  0.00000000000E+00 -0.00000000000E+00 -0.10011060657E+04  0.10011060657E+04  0.00000000000E+00 0. -1.
         23    2    1    2    0    0  0.23049970504E+03  0.36094039280E+03  0.89306665549E+02  0.44678453782E+03  0.90734015399E+02 0.  0.
        254    2    1    2    0    0 -0.23049970504E+03 -0.36094039280E+03 -0.51475729566E+03  0.11299769634E+04  0.91020040832E+03 0.  0.
         23    2    4    4    0    0  0.20482334322E+03  0.11609214570E+03 -0.39216621537E+03  0.46634897193E+03  0.90868228338E+02 0.  0.
         23    2    4    4    0    0 -0.43532304826E+03 -0.47703253850E+03 -0.12259108029E+03  0.66362799151E+03  0.91144605009E+02 0.  0.
          3    1    3    3  502    0  0.12578633417E+03  0.19949905414E+03  0.29336251174E+01  0.23586157089E+03  0.00000000000E+00 0. -1.
         -3    1    3    3    0  502  0.10471337087E+03  0.16144133866E+03  0.86373040432E+02  0.21092296694E+03  0.00000000000E+00 0.  1.
         11    1    5    5    0    0  0.15168040609E+03  0.12317178827E+03 -0.27341602453E+03  0.33605737231E+03  0.00000000000E+00 0.  1.
        -11    1    5    5    0    0  0.53142937130E+02 -0.70796425682E+01 -0.11875019084E+03  0.13029159962E+03  0.00000000000E+00 0. -1.
          1    1    6    6  503    0 -0.80761528217E+02 -0.14480844209E+03 -0.42693656372E+02  0.17121523774E+03  0.00000000000E+00 0. -1.
         -1    1    6    6    0  503 -0.35456152004E+03 -0.33222409641E+03 -0.79897423915E+02  0.49241275377E+03  0.00000000000E+00 0.  1.
<mgrwt>
<rscale>  0 0.15182782E+04</rscale>
<asrwt>0</asrwt>
<pdfrwt beam="1">  1        1 0.15401632E+00 0.15182782E+04</pdfrwt>
<pdfrwt beam="2">  1       -1 0.88562376E-01 0.15182782E+04</pdfrwt>
<totfact> 0.18260604E+01</totfact>
</mgrwt>
</event>
<event>
12    2  0.3518828E-008  0.3469851E+04  0.7818608E-02  0.8120972E-01
         -2   -1    0    0    0  501 -0.00000000000E+00  0.00000000000E+00  0.10718635742E+04  0.10718635742E+04  0.00000000000E+00 0.  1.
          2   -1    0    0  501    0  0.00000000000E+00 -0.00000000000E+00 -0.28081627378E+04  0.28081627378E+04  0.00000000000E+00 0. -1.
         23    2    1    2    0    0  0.10519169765E+04  0.26667755478E+03  0.53058564075E+03  0.12117040967E+04  0.95181154091E+02 0.  0.
        254    2    1    2    0    0 -0.10519169765E+04 -0.26667755478E+03 -0.22668848043E+04  0.26683222153E+04  0.89639861927E+03 0.  0.
         23    2    4    4    0    0 -0.56002958422E+03  0.16620972853E+03 -0.47612448597E+03  0.75926259729E+03  0.92338271814E+02 0.  0.
         23    2    4    4    0    0 -0.49188739228E+03 -0.43288728331E+03 -0.17907603184E+04  0.19090596180E+04  0.91331814863E+02 0.  0.
          2    1    3    3  502    0  0.28666071943E+03  0.41142482028E+02  0.17391051162E+03  0.33780458544E+03  0.00000000000E+00 0. -1.
         -2    1    3    3    0  502  0.76525625707E+03  0.22553507276E+03  0.35667512913E+03  0.87389951125E+03  0.00000000000E+00 0.  1.
         11    1    5    5    0    0 -0.25198782144E+03  0.11114338792E+03 -0.18435438524E+03  0.33141703968E+03  0.00000000000E+00 0. -1.
        -11    1    5    5    0    0 -0.30804176278E+03  0.55066340602E+02 -0.29177010074E+03  0.42784555761E+03  0.00000000000E+00 0.  1.
          4    1    6    6  503    0 -0.49033824698E+03 -0.43378354363E+03 -0.17913041278E+04  0.19071890933E+04  0.00000000000E+00 0. -1.
         -4    1    6    6    0  503 -0.15491453027E+01  0.89626032339E+00  0.54380949196E+00  0.18705246589E+01  0.00000000000E+00 0.  1.
<mgrwt>
<rscale>  0 0.34698515E+04</rscale>
<asrwt>0</asrwt>
<pdfrwt beam="1">  1        2 0.43202503E+00 0.34698515E+04</pdfrwt>
<pdfrwt beam="2">  1       -2 0.16490209E+00 0.34698515E+04</pdfrwt>
<totfact> 0.43652319E-01</totfact>
</mgrwt>
</event>
<event>
12    2  0.3518828E-008  0.1286136E+04  0.7818608E-02  0.9040633E-01
         -2   -1    0    0    0  501 -0.00000000000E+00  0.00000000000E+00  0.73298181017E+03  0.73298181017E+03  0.00000000000E+00 0. -1.
          2   -1    0    0  501    0  0.00000000000E+00 -0.00000000000E+00 -0.56418350981E+03  0.56418350981E+03  0.00000000000E+00 0.  1.
         23    2    1    2    0    0 -0.32169133586E+03  0.89793401992E+02 -0.41074004940E+02  0.34926091313E+03  0.93530427930E+02 0.  0.
        254    2    1    2    0    0  0.32169133586E+03 -0.89793401992E+02  0.20987230530E+03  0.94790440685E+03  0.86193283346E+03 0.  0.
         23    2    4    4    0    0  0.51514914662E+03  0.17531096046E+03  0.24733826526E+03  0.60496597351E+03  0.93247174295E+02 0.  0.
         23    2    4    4    0    0 -0.19345781076E+03 -0.26510436245E+03 -0.37465959966E+02  0.34293843334E+03  0.92178215274E+02 0.  0.
          1    1    3    3  502    0 -0.14186798585E+03  0.30120638032E+02 -0.63788388978E+02  0.15843843225E+03  0.00000000000E+00 0. -1.
         -1    1    3    3    0  502 -0.17982335001E+03  0.59672763959E+02  0.22714384037E+02  0.19082248088E+03  0.00000000000E+00 0.  1.
         11    1    5    5    0    0  0.33855336282E+03  0.16109401494E+03  0.16834888306E+03  0.41098784356E+03  0.00000000000E+00 0. -1.
        -11    1    5    5    0    0  0.17659578381E+03  0.14216945520E+02  0.78989382207E+02  0.19397812995E+03  0.00000000000E+00 0.  1.
          3    1    6    6  503    0 -0.18590494549E+03 -0.23234975167E+03 -0.58529378803E+02  0.30327008431E+03  0.00000000000E+00 0. -1.
         -3    1    6    6    0  503 -0.75528652731E+01 -0.32754610788E+02  0.21063418837E+02  0.39668349030E+02  0.00000000000E+00 0.  1.
<mgrwt>
<rscale>  0 0.12861357E+04</rscale>
<asrwt>0</asrwt>
<pdfrwt beam="1">  1        2 0.86797462E-01 0.12861357E+04</pdfrwt>
<pdfrwt beam="2">  1       -2 0.11276643E+00 0.12861357E+04</pdfrwt>
<totfact> 0.32409157E+01</totfact>
</mgrwt>
</event>
<event>
12    2  0.3518828E-008  0.1646097E+04  0.7818608E-02  0.8792719E-01
          2   -1    0    0  501    0  0.00000000000E+00  0.00000000000E+00  0.17486286276E+04  0.17486286276E+04  0.00000000000E+00 0. -1.
         -2   -1    0    0    0  501 -0.00000000000E+00 -0.00000000000E+00 -0.38739421511E+03  0.38739421511E+03  0.00000000000E+00 0.  1.
         23    2    1    2    0    0 -0.15143184579E+03  0.26302563668E+03 -0.15283239758E+03  0.35158827075E+03  0.90235696425E+02 0.  0.
        254    2    1    2    0    0  0.15143184579E+03 -0.26302563668E+03  0.15140668101E+04  0.17844345720E+04  0.89425630933E+03 0.  0.
         23    2    4    4    0    0  0.11622949531E+03 -0.42782402705E+03  0.15261967031E+04  0.15918290129E+04  0.90002978438E+02 0.  0.
         23    2    4    4    0    0  0.35202350486E+02  0.16479839037E+03 -0.12129893040E+02  0.19260555903E+03  0.92477305953E+02 0.  0.
          2    1    3    3  502    0 -0.12375259650E+03  0.24776337996E+03 -0.10918016934E+03  0.29769398208E+03  0.00000000000E+00 0. -1.
         -2    1    3    3    0  502 -0.27679249292E+02  0.15262256725E+02 -0.43652228236E+02  0.53894288674E+02  0.00000000000E+00 0.  1.
         11    1    5    5    0    0  0.69547414533E+02 -0.36171309955E+03  0.11726945008E+04  0.12291808661E+04  0.00000000000E+00 0.  1.
        -11    1    5    5    0    0  0.46682080774E+02 -0.66110927504E+02  0.35350220229E+03  0.36264814687E+03  0.00000000000E+00 0. -1.
          4    1    6    6  503    0  0.29358085251E+02  0.59745379255E+02  0.37355686244E+02  0.76333837888E+02  0.00000000000E+00 0. -1.
         -4    1    6    6    0  503  0.58442652343E+01  0.10505301111E+03 -0.49485579284E+02  0.11627172114E+03  0.00000000000E+00 0.  1.
<mgrwt>
<rscale>  0 0.16460967E+04</rscale>
<asrwt>0</asrwt>
<pdfrwt beam="1">  1        2 0.26901979E+00 0.16460967E+04</pdfrwt>
<pdfrwt beam="2">  1       -2 0.59599111E-01 0.16460967E+04</pdfrwt>
<totfact> 0.23128208E+01</totfact>
</mgrwt>
</event>
<event>
12    2  0.3518828E-008  0.2287407E+04  0.7818608E-02  0.8482903E-01
         -1   -1    0    0    0  501 -0.00000000000E+00  0.00000000000E+00  0.82127578814E+03  0.82127578814E+03  0.00000000000E+00 0.  1.
          1   -1    0    0  501    0  0.00000000000E+00 -0.00000000000E+00 -0.15927142478E+04  0.15927142478E+04  0.00000000000E+00 0. -1.
         23    2    1    2    0    0 -0.94998213212E+03 -0.14491674039E+03 -0.42176111757E+03  0.10533221224E+04  0.90211640924E+02 0.  0.
        254    2    1    2    0    0  0.94998213212E+03  0.14491674039E+03 -0.34967734214E+03  0.13606679136E+04  0.89759457139E+03 0.  0.
         23    2    4    4    0    0  0.32642995088E+03  0.48592187664E+03 -0.96201365937E+02  0.60066029912E+03  0.94135588913E+02 0.  0.
         23    2    4    4    0    0  0.62355218124E+03 -0.34100513624E+03 -0.25347597620E+03  0.76000761452E+03  0.90882770333E+02 0.  0.
          3    1    3    3  502    0 -0.68259112049E+03 -0.97507785755E+02 -0.25801881057E+03  0.73621471913E+03  0.00000000000E+00 0. -1.
         -3    1    3    3    0  502 -0.26739101163E+03 -0.47408954640E+02 -0.16374230700E+03  0.31710740323E+03  0.00000000000E+00 0.  1.
         11    1    5    5    0    0  0.77234293861E+02  0.10958061515E+03  0.17480399843E+02  0.13519841620E+03  0.00000000000E+00 0.  1.
        -11    1    5    5    0    0  0.24919565702E+03  0.37634126149E+03 -0.11368176578E+03  0.46546188291E+03  0.00000000000E+00 0. -1.
          3    1    6    6  503    0  0.38859244908E+03 -0.19555198395E+03 -0.11033352860E+03  0.44879634295E+03  0.00000000000E+00 0. -1.
         -3    1    6    6    0  503  0.23495973216E+03 -0.14545315229E+03 -0.14314244761E+03  0.31121127157E+03  0.00000000000E+00 0.  1.
<mgrwt>
<rscale>  0 0.22874070E+04</rscale>
<asrwt>0</asrwt>
<pdfrwt beam="1">  1        1 0.24503296E+00 0.22874070E+04</pdfrwt>
<pdfrwt beam="2">  1       -1 0.12635012E+00 0.22874070E+04</pdfrwt>
<totfact> 0.27827580E+00</totfact>
</mgrwt>
</event>
<event>
12    2  0.3518828E-008  0.2480987E+04  0.7818608E-02  0.8409790E-01
         -2   -1    0    0    0  501 -0.00000000000E+00  0.00000000000E+00  0.74736461221E+03  0.74736461221E+03  0.00000000000E+00 0.  1.
          2   -1    0    0  501    0  0.00000000000E+00 -0.00000000000E+00 -0.20590005464E+04  0.20590005464E+04  0.00000000000E+00 0. -1.
         23    2    1    2    0    0  0.21949923929E+03  0.95508893993E+03 -0.37636660251E+02  0.98489810261E+03  0.90735632977E+02 0.  0.
        254    2    1    2    0    0 -0.21949923929E+03 -0.95508893993E+03 -0.12739992740E+04  0.18214670560E+04  0.85690914740E+03 0.  0.
         23    2    4    4    0    0  0.60049362872E+02 -0.53457636615E+03 -0.11803786028E+04  0.13001562054E+04  0.87947116086E+02 0.  0.
         23    2    4    4    0    0 -0.27954860217E+03 -0.42051257378E+03 -0.93620671181E+02  0.52131085065E+03  0.89565212323E+02 0.  0.
          3    1    3    3  502    0  0.17784303452E+03  0.60308449425E+03 -0.44921385094E+02  0.63036258056E+03  0.00000000000E+00 0. -1.
         -3    1    3    3    0  502  0.41656204772E+02  0.35200444568E+03  0.72847248430E+01  0.35453552205E+03  0.00000000000E+00 0.  1.
         11    1    5    5    0    0  0.51503658171E+02 -0.42320173648E+03 -0.10115675194E+04  0.10977345685E+04  0.00000000000E+00 0. -1.
        -11    1    5    5    0    0  0.85457047010E+01 -0.11137462967E+03 -0.16881108340E+03  0.20242163689E+03  0.00000000000E+00 0.  1.
          3    1    6    6  503    0 -0.25963548999E+03 -0.38357484005E+03 -0.11032869642E+03  0.47614353596E+03  0.00000000000E+00 0. -1.
         -3    1    6    6    0  503 -0.19913112179E+02 -0.36937733730E+02  0.16708025237E+02  0.45167314699E+02  0.00000000000E+00 0.  1.
<mgrwt>
<rscale>  0 0.24809870E+04</rscale>
<asrwt>0</asrwt>
<pdfrwt beam="1">  1        2 0.31676931E+00 0.24809870E+04</pdfrwt>
<pdfrwt beam="2">  1       -2 0.11497917E+00 0.24809870E+04</pdfrwt>
<totfact> 0.32638295E+00</totfact>
</mgrwt>
</event>
<event>
12    2  0.3518828E-008  0.2040985E+04  0.7818608E-02  0.8587695E-01
         -1   -1    0    0    0  501 -0.00000000000E+00  0.00000000000E+00  0.52751222998E+03  0.52751222998E+03  0.00000000000E+00 0.  1.
          1   -1    0    0  501    0  0.00000000000E+00 -0.00000000000E+00 -0.19741814283E+04  0.19741814283E+04  0.00000000000E+00 0. -1.
         23    2    1    2    0    0  0.80305034554E+03  0.12713414420E+03 -0.55296857027E+03  0.98744625723E+03  0.90680334813E+02 0.  0.
        254    2    1    2    0    0 -0.80305034554E+03 -0.12713414420E+03 -0.89370062800E+03  0.15142474010E+04  0.91279320268E+03 0.  0.
         23    2    4    4    0    0 -0.22149355831E+03  0.34731372057E+03 -0.13456272616E+03  0.44297966222E+03  0.91856611068E+02 0.  0.
         23    2    4    4    0    0 -0.58155678723E+03 -0.47444786478E+03 -0.75913790184E+03  0.10712677388E+04  0.89527319806E+02 0.  0.
          3    1    3    3  502    0  0.39395328252E+03  0.89097390566E+02 -0.22965255333E+03  0.46462654796E+03  0.00000000000E+00 0. -1.
         -3    1    3    3    0  502  0.40909706302E+03  0.38036753636E+02 -0.32331601694E+03  0.52281970927E+03  0.00000000000E+00 0.  1.
         11    1    5    5    0    0 -0.17297658371E+03  0.32258276214E+03 -0.10394686084E+03  0.38050688143E+03  0.00000000000E+00 0. -1.
        -11    1    5    5    0    0 -0.48516974600E+02  0.24730958436E+02 -0.30615865329E+02  0.62472780788E+02  0.00000000000E+00 0.  1.
          3    1    6    6  503    0 -0.45332333380E+03 -0.32449328685E+03 -0.53525822068E+03  0.77285140938E+03  0.00000000000E+00 0. -1.
         -3    1    6    6    0  503 -0.12823345343E+03 -0.14995457793E+03 -0.22387968116E+03  0.29841632941E+03  0.00000000000E+00 0.  1.
<mgrwt>
<rscale>  0 0.20409849E+04</rscale>
<asrwt>0</asrwt>
<pdfrwt beam="1">  1        1 0.30372022E+00 0.20409849E+04</pdfrwt>
<pdfrwt beam="2">  1       -1 0.81155727E-01 0.20409849E+04</pdfrwt>
<totfact> 0.43384030E+00</totfact>
</mgrwt>
</event>
<event>
12    2  0.3518828E-008  0.1657044E+04  0.7818608E-02  0.8786250E-01
         -1   -1    0    0    0  501 -0.00000000000E+00  0.00000000000E+00  0.51619209270E+03  0.51619209270E+03  0.00000000000E+00 0.  1.
          1   -1    0    0  501    0  0.00000000000E+00 -0.00000000000E+00 -0.13298315597E+04  0.13298315597E+04  0.00000000000E+00 0. -1.
         23    2    1    2    0    0  0.23177932260E+03  0.42228784570E+03  0.70005719968E+02  0.49542353078E+03  0.92168297177E+02 0.  0.
        254    2    1    2    0    0 -0.23177932260E+03 -0.42228784570E+03 -0.88364518694E+03  0.13506001216E+04  0.90069039800E+03 0.  0.
         23    2    4    4    0    0  0.12275406224E+03 -0.33679685420E+03 -0.90170559317E+03  0.97457383150E+03  0.90666948178E+02 0.  0.
         23    2    4    4    0    0 -0.35453338484E+03 -0.85490991501E+02  0.18060406229E+02  0.37602629010E+03  0.89816267891E+02 0.  0.
          4    1    3    3  502    0  0.62787430292E+02  0.63765647062E+02  0.39738547483E+02  0.97915633603E+02  0.00000000000E+00 0. -1.
         -4    1    3    3    0  502  0.16899189231E+03  0.35852219864E+03  0.30267172486E+02  0.39750789717E+03  0.00000000000E+00 0.  1.
         11    1    5    5    0    0  0.96182603712E+02 -0.31824215512E+03 -0.85803138547E+03  0.92018857905E+03  0.00000000000E+00 0. -1.
        -11    1    5    5    0    0  0.26571458528E+02 -0.18554699077E+02 -0.43674207700E+02  0.54385252453E+02  0.00000000000E+00 0.  1.
          4    1    6    6  503    0 -0.12540410766E+03 -0.52088857149E+02  0.44671612940E+02  0.14295101350E+03  0.00000000000E+00 0.  1.
         -4    1    6    6    0  503 -0.22912927718E+03 -0.33402134352E+02 -0.26611206711E+02  0.23307527660E+03  0.00000000000E+00 0. -1.
<mgrwt>
<rscale>  0 0.16570438E+04</rscale>
<asrwt>0</asrwt>
<pdfrwt beam="1">  1        1 0.20458947E+00 0.16570438E+04</pdfrwt>
<pdfrwt beam="2">  1       -1 0.79414168E-01 0.16570438E+04</pdfrwt>
<totfact> 0.13033863E+01</totfact>
</mgrwt>
</event>
<event>
12    2  0.3518828E-008  0.1928347E+04  0.7818608E-02  0.8640873E-01
         -2   -1    0    0    0  501 -0.00000000000E+00  0.00000000000E+00  0.48881171799E+03  0.48881171799E+03  0.00000000000E+00 0.  1.
          2   -1    0    0  501    0  0.00000000000E+00 -0.00000000000E+00 -0.19018177622E+04  0.19018177622E+04  0.00000000000E+00 0. -1.
         23    2    1    2    0    0 -0.10718282379E+03 -0.62219170167E+03 -0.10622183559E+04  0.12388112963E+04  0.87948399993E+02 0.  0.
        254    2    1    2    0    0  0.10718282379E+03  0.62219170167E+03 -0.35078768833E+03  0.11518181838E+04  0.89723043584E+03 0.  0.
         23    2    4    4    0    0  0.21903657256E+03 -0.26786917816E+02  0.18114289811E+03  0.30029768593E+03  0.93120306893E+02 0.  0.
         23    2    4    4    0    0 -0.11185374877E+03  0.64897861948E+03 -0.53193058644E+03  0.85152049790E+03  0.91937478216E+02 0.  0.
          2    1    3    3  502    0 -0.11449088791E+03 -0.52947719511E+03 -0.86264054014E+03  0.10186279817E+04  0.00000000000E+00 0. -1.
         -2    1    3    3    0  502  0.73080641238E+01 -0.92714506560E+02 -0.19957781572E+03  0.22018331466E+03  0.00000000000E+00 0.  1.
         11    1    5    5    0    0  0.13555722162E+03 -0.30087225072E+02  0.55766232279E+02  0.14963580490E+03  0.00000000000E+00 0. -1.
        -11    1    5    5    0    0  0.83479350944E+02  0.33003072559E+01  0.12537666583E+03  0.15066188104E+03  0.00000000000E+00 0.  1.
          4    1    6    6  503    0 -0.12629736543E+02  0.12489153869E+03 -0.59196879186E+02  0.13878644454E+03  0.00000000000E+00 0. -1.
         -4    1    6    6    0  503 -0.99224012229E+02  0.52408708079E+03 -0.47273370725E+03  0.71273405336E+03  0.00000000000E+00 0.  1.
<mgrwt>
<rscale>  0 0.19283473E+04</rscale>
<asrwt>0</asrwt>
<pdfrwt beam="1">  1        2 0.29258735E+00 0.19283473E+04</pdfrwt>
<pdfrwt beam="2">  1       -2 0.75201803E-01 0.19283473E+04</pdfrwt>
<totfact> 0.11235763E+01</totfact>
</mgrwt>
</event>
<event>
12    2  0.3518828E-008  0.1654016E+04  0.7818608E-02  0.8788034E-01
         -1   -1    0    0    0  501 -0.00000000000E+00  0.00000000000E+00  0.58373253819E+03  0.58373253819E+03  0.00000000000E+00 0.  1.
          1   -1    0    0  501    0  0.00000000000E+00 -0.00000000000E+00 -0.11716712184E+04  0.11716712184E+04  0.00000000000E+00 0. -1.
         23    2    1    2    0    0  0.53790393792E+03  0.15274747373E+03 -0.30164895680E+02  0.56678209584E+03  0.87519061211E+02 0.  0.
        254    2    1    2    0    0 -0.53790393792E+03 -0.15274747373E+03 -0.55777378458E+03  0.11886216608E+04  0.88827778346E+03 0.  0.
         23    2    4    4    0    0 -0.47478009814E+03  0.29868476373E+03 -0.41001257929E+03  0.70077804856E+03  0.91382867648E+02 0.  0.
         23    2    4    4    0    0 -0.63123839781E+02 -0.45143223745E+03 -0.14776120529E+03  0.48784361223E+03  0.91555076576E+02 0.  0.
          3    1    3    3  502    0  0.16829638946E+03  0.71264657611E+02  0.24406258732E+02  0.18438544301E+03  0.00000000000E+00 0.  1.
         -3    1    3    3    0  502  0.36960754846E+03  0.81482816115E+02 -0.54571154413E+02  0.38239665283E+03  0.00000000000E+00 0. -1.
         11    1    5    5    0    0 -0.16234764367E+03  0.12490729428E+03 -0.10173583324E+03  0.22871110453E+03  0.00000000000E+00 0.  1.
        -11    1    5    5    0    0 -0.31243245447E+03  0.17377746944E+03 -0.30827674606E+03  0.47206694403E+03  0.00000000000E+00 0. -1.
          4    1    6    6  503    0 -0.16442621861E+02 -0.25160896507E+02  0.88299121751E+01  0.31327270480E+02  0.00000000000E+00 0.  1.
         -4    1    6    6    0  503 -0.46681217920E+02 -0.42627134094E+03 -0.15659111746E+03  0.45651634175E+03  0.00000000000E+00 0. -1.
<mgrwt>
<rscale>  0 0.16540165E+04</rscale>
<asrwt>0</asrwt>
<pdfrwt beam="1">  1        1 0.18025711E+00 0.16540165E+04</pdfrwt>
<pdfrwt beam="2">  1       -1 0.89805006E-01 0.16540165E+04</pdfrwt>
<totfact> 0.12999647E+01</totfact>
</mgrwt>
</event>
<event>
12    2  0.3518828E-008  0.2948522E+04  0.7818608E-02  0.8258585E-01
         -3   -1    0    0    0  501 -0.00000000000E+00  0.00000000000E+00  0.11073655231E+04  0.11073655231E+04  0.00000000000E+00 0.  1.
          3   -1    0    0  501    0  0.00000000000E+00 -0.00000000000E+00 -0.19627174859E+04  0.19627174859E+04  0.00000000000E+00 0. -1.
         23    2    1    2    0    0  0.13037396524E+04 -0.20645446726E+03 -0.41108832398E+03  0.13856619612E+04  0.93300226574E+02 0.  0.
        254    2    1    2    0    0 -0.13037396524E+04  0.20645446726E+03 -0.44426363877E+03  0.16844210478E+04  0.94738775448E+03 0.  0.
         23    2    4    4    0    0 -0.13567274141E+04  0.27946750429E+03 -0.57616702893E+03  0.15033766906E+04  0.96755705837E+02 0.  0.
         23    2    4    4    0    0  0.52987761707E+02 -0.73013037026E+02  0.13190339017E+03  0.18104435718E+03  0.85087886700E+02 0.  0.
          1    1    3    3  502    0  0.40607486152E+02 -0.16723084516E+02 -0.26131640813E+00  0.43916941761E+02  0.00000000000E+00 0. -1.
         -1    1    3    3    0  502  0.12631321662E+04 -0.18973138275E+03 -0.41082700757E+03  0.13417450194E+04  0.00000000000E+00 0.  1.
         11    1    5    5    0    0 -0.61666065082E+03  0.11361380097E+03 -0.31105275919E+03  0.69995162192E+03  0.00000000000E+00 0.  1.
        -11    1    5    5    0    0 -0.74006676328E+03  0.16585370332E+03 -0.26511426974E+03  0.80342506871E+03  0.00000000000E+00 0. -1.
          1    1    6    6  503    0  0.52469250408E+02 -0.17706313077E+02  0.25162844617E+02  0.60825196344E+02  0.00000000000E+00 0. -1.
         -1    1    6    6    0  503  0.51851129942E+00 -0.55306723950E+02  0.10674054555E+03  0.12021916084E+03  0.00000000000E+00 0.  1.
<mgrwt>
<rscale>  0 0.29485221E+04</rscale>
<asrwt>0</asrwt>
<pdfrwt beam="1">  1        3 0.30195653E+00 0.29485221E+04</pdfrwt>
<pdfrwt beam="2">  1       -3 0.17036393E+00 0.29485221E+04</pdfrwt>
<totfact> 0.19359266E-02</totfact>
</mgrwt>
</event>
<event>
12    2  0.3518828E-008  0.1412306E+04  0.7818608E-02  0.8944959E-01
         -3   -1    0    0    0  501 -0.00000000000E+00  0.00000000000E+00  0.21584036977E+04  0.21584036977E+04  0.00000000000E+00 0.  1.
          3   -1    0    0  501    0  0.00000000000E+00 -0.00000000000E+00 -0.23102807882E+03  0.23102807882E+03  0.00000000000E+00 0. -1.
         23    2    1    2    0    0  0.11815148700E+03 -0.25931248566E+03  0.10680161218E+04  0.11092492078E+04  0.92588494839E+02 0.  0.
        254    2    1    2    0    0 -0.11815148700E+03  0.25931248566E+03  0.85935949700E+03  0.12801825687E+04  0.90507785576E+03 0.  0.
         23    2    4    4    0    0  0.32223524713E+03  0.10924147948E+03  0.69533105149E+03  0.77962499271E+03  0.92523525418E+02 0.  0.
         23    2    4    4    0    0 -0.44038673412E+03  0.15007100617E+03  0.16402844551E+03  0.50055757598E+03  0.84798428333E+02 0.  0.
          4    1    3    3  502    0 -0.55531753065E+01 -0.47809196254E+02  0.10425592713E+03  0.11482967972E+03  0.00000000000E+00 0. -1.
         -4    1    3    3    0  502  0.12370466230E+03 -0.21150328940E+03  0.96376019471E+03  0.99441952807E+03  0.00000000000E+00 0.  1.
         11    1    5    5    0    0  0.35717844419E+02  0.45497023930E+02  0.14039092883E+03  0.15183990415E+03  0.00000000000E+00 0. -1.
        -11    1    5    5    0    0  0.28651740271E+03  0.63744455555E+02  0.55494012266E+03  0.62778508855E+03  0.00000000000E+00 0.  1.
          2    1    6    6  503    0 -0.16365878683E+03  0.21509964724E+02  0.83463422355E+02  0.18496761868E+03  0.00000000000E+00 0. -1.
         -2    1    6    6    0  503 -0.27672794729E+03  0.12856104145E+03  0.80565023156E+02  0.31558995730E+03  0.00000000000E+00 0.  1.
<mgrwt>
<rscale>  0 0.14123057E+04</rscale>
<asrwt>0</asrwt>
<pdfrwt beam="1">  1        3 0.35542783E-01 0.14123057E+04</pdfrwt>
<pdfrwt beam="2">  1       -3 0.33206209E+00 0.14123057E+04</pdfrwt>
<totfact> 0.50657077E-01</totfact>
</mgrwt>
</event>
<event>
12    2  0.3518828E-008  0.2100118E+04  0.7818608E-02  0.8561191E-01
          2   -1    0    0  501    0  0.00000000000E+00  0.00000000000E+00  0.32720590518E+04  0.32720590518E+04  0.00000000000E+00 0.  1.
         -2   -1    0    0    0  501 -0.00000000000E+00 -0.00000000000E+00 -0.33698161615E+03  0.33698161615E+03  0.00000000000E+00 0. -1.
         23    2    1    2    0    0 -0.14414547210E+03 -0.77938645531E+03  0.64483722947E+03  0.10263262903E+04  0.96485427521E+02 0.  0.
        254    2    1    2    0    0  0.14414547210E+03  0.77938645531E+03  0.22902402062E+04  0.25827143777E+04  0.89274419116E+03 0.  0.
         23    2    4    4    0    0 -0.68626292044E+02  0.41793088862E+03  0.25547718645E+03  0.50301344228E+03  0.91532151178E+02 0.  0.
         23    2    4    4    0    0  0.21277176414E+03  0.36145556669E+03  0.20347630197E+04  0.20797009354E+04  0.94728474892E+02 0.  0.
          2    1    3    3  502    0 -0.15230856931E+03 -0.64827980628E+03  0.51739742912E+03  0.84330582066E+03  0.00000000000E+00 0.  1.
         -2    1    3    3    0  502  0.81630972157E+01 -0.13110664904E+03  0.12743980035E+03  0.18302046960E+03  0.00000000000E+00 0. -1.
         11    1    5    5    0    0  0.42416862327E+01 -0.13040057337E+01  0.11921564518E+02  0.12720693126E+02  0.00000000000E+00 0.  1.
        -11    1    5    5    0    0 -0.72867978277E+02  0.41923489435E+03  0.24355562193E+03  0.49029274916E+03  0.00000000000E+00 0. -1.
          1    1    6    6  503    0  0.16265343176E+03  0.29855359867E+03  0.17918603180E+04  0.18238294299E+04  0.00000000000E+00 0. -1.
         -1    1    6    6    0  503  0.50118332380E+02  0.62901968029E+02  0.24290270171E+03  0.25587150549E+03  0.00000000000E+00 0.  1.
<mgrwt>
<rscale>  0 0.21001179E+04</rscale>
<asrwt>0</asrwt>
<pdfrwt beam="1">  1        2 0.50339368E+00 0.21001179E+04</pdfrwt>
<pdfrwt beam="2">  1       -2 0.51843328E-01 0.21001179E+04</pdfrwt>
<totfact> 0.37760204E+00</totfact>
</mgrwt>
</event>
<event>
12    2  0.3518828E-008  0.2025913E+04  0.7818608E-02  0.8594601E-01
          2   -1    0    0  501    0  0.00000000000E+00  0.00000000000E+00  0.27653353207E+04  0.27653353207E+04  0.00000000000E+00 0.  1.
         -2   -1    0    0    0  501 -0.00000000000E+00 -0.00000000000E+00 -0.37105102186E+03  0.37105102186E+03  0.00000000000E+00 0. -1.
         23    2    1    2    0    0 -0.90541030576E+02 -0.71629761181E+03  0.39566544485E+03  0.82840435730E+03  0.91775203896E+02 0.  0.
        254    2    1    2    0    0  0.90541030576E+02  0.71629761181E+03  0.19986188540E+04  0.23079819853E+04  0.90056847259E+03 0.  0.
         23    2    4    4    0    0  0.32928215636E+02  0.88172067400E+03  0.12441819761E+04  0.15282959635E+04  0.95833960039E+02 0.  0.
         23    2    4    4    0    0  0.57612814940E+02 -0.16542306219E+03  0.75443687789E+03  0.77968602181E+03  0.89728835567E+02 0.  0.
          1    1    3    3  502    0 -0.99127178187E+02 -0.65276922339E+03  0.33600917759E+03  0.74083468054E+03  0.00000000000E+00 0. -1.
         -1    1    3    3    0  502  0.85861476113E+01 -0.63528388417E+02  0.59656267253E+02  0.87569676762E+02  0.00000000000E+00 0.  1.
         11    1    5    5    0    0 -0.34016722850E+02  0.32284129937E+03  0.46022253369E+03  0.56319483531E+03  0.00000000000E+00 0. -1.
        -11    1    5    5    0    0  0.66944938486E+02  0.55887937463E+03  0.78395944245E+03  0.96510112816E+03  0.00000000000E+00 0.  1.
          4    1    6    6  503    0  0.26681407118E+02  0.18012880241E+01  0.10519647539E+03  0.10854234455E+03  0.00000000000E+00 0. -1.
         -4    1    6    6    0  503  0.30931407822E+02 -0.16722435021E+03  0.64924040250E+03  0.67114367726E+03  0.00000000000E+00 0.  1.
<mgrwt>
<rscale>  0 0.20259126E+04</rscale>
<asrwt>0</asrwt>
<pdfrwt beam="1">  1        2 0.42543619E+00 0.20259126E+04</pdfrwt>
<pdfrwt beam="2">  1       -2 0.57084774E-01 0.20259126E+04</pdfrwt>
<totfact> 0.64794481E+00</totfact>
</mgrwt>
</event>
<event>
12    2  0.3518828E-008  0.1899000E+04  0.7818608E-02  0.8655354E-01
          1   -1    0    0  501    0  0.00000000000E+00  0.00000000000E+00  0.69397226270E+03  0.69397226270E+03  0.00000000000E+00 0. -1.
         -1   -1    0    0    0  501 -0.00000000000E+00 -0.00000000000E+00 -0.12991152114E+04  0.12991152114E+04  0.00000000000E+00 0.  1.
         23    2    1    2    0    0 -0.55587308722E+03  0.40822206874E+03  0.22188842300E+02  0.69608494103E+03  0.91661081735E+02 0.  0.
        254    2    1    2    0    0  0.55587308722E+03 -0.40822206874E+03 -0.62733179099E+03  0.12970025331E+04  0.90168189971E+03 0.  0.
         23    2    4    4    0    0  0.79381069654E+03 -0.35546720171E+03 -0.47666209583E+03  0.99673946774E+03  0.98946750898E+02 0.  0.
         23    2    4    4    0    0 -0.23793760932E+03 -0.52754867033E+02 -0.15066969517E+03  0.30026306532E+03  0.89772876918E+02 0.  0.
          1    1    3    3  502    0 -0.40456116786E+03  0.30236855069E+03  0.56638246752E+02  0.50823652956E+03  0.00000000000E+00 0. -1.
         -1    1    3    3    0  502 -0.15131191936E+03  0.10585351806E+03 -0.34449404452E+02  0.18784841147E+03  0.00000000000E+00 0.  1.
         11    1    5    5    0    0  0.19575670497E+03 -0.43038172274E+02 -0.10029009208E+03  0.22412290017E+03  0.00000000000E+00 0.  1.
        -11    1    5    5    0    0  0.59805399157E+03 -0.31242902944E+03 -0.37637200374E+03  0.77261656756E+03  0.00000000000E+00 0. -1.
          1    1    6    6  503    0 -0.23680132331E+03 -0.33369747370E+02 -0.13120885255E+03  0.27277127735E+03  0.00000000000E+00 0. -1.
         -1    1    6    6    0  503 -0.11362860079E+01 -0.19385119663E+02 -0.19460842620E+02  0.27491787969E+02  0.00000000000E+00 0.  1.
<mgrwt>
<rscale>  0 0.18989997E+04</rscale>
<asrwt>0</asrwt>
<pdfrwt beam="1">  1        1 0.10676496E+00 0.18989997E+04</pdfrwt>
<pdfrwt beam="2">  1       -1 0.19986388E+00 0.18989997E+04</pdfrwt>
<totfact> 0.38953219E+00</totfact>
</mgrwt>
</event>
<event>
12    2  0.3518828E-008  0.1798386E+04  0.7818608E-02  0.8707158E-01
         -2   -1    0    0    0  501 -0.00000000000E+00  0.00000000000E+00  0.26291882884E+03  0.26291882884E+03  0.00000000000E+00 0.  1.
          2   -1    0    0  501    0  0.00000000000E+00 -0.00000000000E+00 -0.30752765507E+04  0.30752765507E+04  0.00000000000E+00 0. -1.
         23    2    1    2    0    0  0.48794368223E+03 -0.15804180131E+03 -0.26015660685E+03  0.58249605618E+03  0.92487552621E+02 0.  0.
        254    2    1    2    0    0 -0.48794368223E+03  0.15804180131E+03 -0.25522011151E+04  0.27556993234E+04  0.90392587160E+03 0.  0.
         23    2    4    4    0    0 -0.56768096771E+02 -0.28798184600E+03 -0.34871390466E+03  0.46474333790E+03  0.90712856754E+02 0.  0.
         23    2    4    4    0    0 -0.43117558546E+03  0.44602364731E+03 -0.22034872104E+04  0.22909559855E+04  0.90961319793E+02 0.  0.
          2    1    3    3  502    0  0.45331169728E+03 -0.12727213748E+03 -0.21430864300E+03  0.51731797410E+03  0.00000000000E+00 0.  1.
         -2    1    3    3    0  502  0.34631984951E+02 -0.30769663828E+02 -0.45847963852E+02  0.65178082076E+02  0.00000000000E+00 0. -1.
         11    1    5    5    0    0 -0.51734718695E+02 -0.25705024256E+03 -0.25430979433E+03  0.36527356846E+03  0.00000000000E+00 0.  1.
        -11    1    5    5    0    0 -0.50333780764E+01 -0.30931603438E+02 -0.94404110323E+02  0.99469769438E+02  0.00000000000E+00 0. -1.
          1    1    6    6  503    0 -0.37578378725E+01 -0.44550941276E+01 -0.15727154639E+02  0.16772376164E+02  0.00000000000E+00 0. -1.
         -1    1    6    6    0  503 -0.42741774758E+03  0.45047874144E+03 -0.21877600558E+04  0.22741836093E+04  0.00000000000E+00 0.  1.
<mgrwt>
<rscale>  0 0.17983861E+04</rscale>
<asrwt>0</asrwt>
<pdfrwt beam="1">  1        2 0.47311945E+00 0.17983861E+04</pdfrwt>
<pdfrwt beam="2">  1       -2 0.40449052E-01 0.17983861E+04</pdfrwt>
<totfact> 0.85632123E+00</totfact>
</mgrwt>
</event>
<event>
12    2  0.3518828E-008  0.1610350E+04  0.7818608E-02  0.8814215E-01
         -2   -1    0    0    0  501 -0.00000000000E+00  0.00000000000E+00  0.29322205570E+03  0.29322205570E+03  0.00000000000E+00 0.  1.
          2   -1    0    0  501    0  0.00000000000E+00 -0.00000000000E+00 -0.22109755823E+04  0.22109755823E+04  0.00000000000E+00 0. -1.
         23    2    1    2    0    0 -0.19147881934E+03  0.23559027104E+03 -0.13959074020E+04  0.14333605669E+04  0.11746542411E+03 0.  0.
        254    2    1    2    0    0  0.19147881934E+03 -0.23559027104E+03 -0.52184612465E+03  0.10708370711E+04  0.88442169861E+03 0.  0.
         23    2    4    4    0    0 -0.31437188701E+03  0.64666628554E+02 -0.11749970772E+03  0.35107267037E+03  0.80214602010E+02 0.  0.
         23    2    4    4    0    0  0.50585070635E+03 -0.30025689960E+03 -0.40434641693E+03  0.71976440074E+03  0.92334310094E+02 0.  0.
          1    1    3    3  502    0 -0.16019329706E+03  0.24293741388E+03 -0.11963849158E+04  0.12312665618E+04  0.00000000000E+00 0. -1.
         -1    1    3    3    0  502 -0.31285522279E+02 -0.73471428416E+01 -0.19952248617E+03  0.20209400511E+03  0.00000000000E+00 0.  1.
         11    1    5    5    0    0 -0.24503437807E+03  0.19462609324E+02 -0.69727672980E+02  0.25550457525E+03  0.00000000000E+00 0.  1.
        -11    1    5    5    0    0 -0.69337508942E+02  0.45204019229E+02 -0.47772034739E+02  0.95568095115E+02  0.00000000000E+00 0. -1.
          1    1    6    6  503    0  0.21576108157E+03 -0.18147434163E+03 -0.18659977549E+03  0.33809060502E+03  0.00000000000E+00 0. -1.
         -1    1    6    6    0  503  0.29008962478E+03 -0.11878255797E+03 -0.21774664144E+03  0.38167379572E+03  0.00000000000E+00 0.  1.
<mgrwt>
<rscale>  0 0.16103500E+04</rscale>
<asrwt>0</asrwt>
<pdfrwt beam="1">  1        2 0.34015010E+00 0.16103500E+04</pdfrwt>
<pdfrwt beam="2">  1       -2 0.45111084E-01 0.16103500E+04</pdfrwt>
<totfact> 0.22749295E+01</totfact>
</mgrwt>
</event>
<event>
12    2  0.3518828E-008  0.1979373E+04  0.7818608E-02  0.8616326E-01
          1   -1    0    0  501    0  0.00000000000E+00  0.00000000000E+00  0.13366272956E+04  0.13366272956E+04  0.00000000000E+00 0. -1.
         -1   -1    0    0    0  501 -0.00000000000E+00 -0.00000000000E+00 -0.73279885703E+03  0.73279885703E+03  0.00000000000E+00 0.  1.
         23    2    1    2    0    0  0.20969527116E+03  0.75708460755E+03  0.29323364749E+03  0.84351296720E+03  0.91536572378E+02 0.  0.
        254    2    1    2    0    0 -0.20969527116E+03 -0.75708460755E+03  0.31059479111E+03  0.12259131854E+04  0.88839450935E+03 0.  0.
         23    2    4    4    0    0 -0.32239350449E+03 -0.46765645475E+03  0.57135115304E+03  0.81068941921E+03  0.90194583724E+02 0.  0.
         23    2    4    4    0    0  0.11269823333E+03 -0.28942815281E+03 -0.26075636193E+03  0.41522376624E+03  0.89147901429E+02 0.  0.
          4    1    3    3  502    0  0.20047201995E+03  0.71637756398E+03  0.29827698049E+03  0.80147052475E+03  0.00000000000E+00 0. -1.
         -4    1    3    3    0  502  0.92232512098E+01  0.40707043573E+02 -0.50433330079E+01  0.42042442450E+02  0.00000000000E+00 0.  1.
         11    1    5    5    0    0 -0.26048742484E+03 -0.40708557591E+03  0.52040605732E+03  0.71020759579E+03  0.00000000000E+00 0.  1.
        -11    1    5    5    0    0 -0.61906079650E+02 -0.60570878835E+02  0.50945095717E+02  0.10048182342E+03  0.00000000000E+00 0. -1.
          4    1    6    6  503    0  0.40557766330E+02 -0.44143135366E+02 -0.17821318579E+02  0.62539173367E+02  0.00000000000E+00 0. -1.
         -4    1    6    6    0  503  0.72140466997E+02 -0.24528501744E+03 -0.24293504335E+03  0.35268459287E+03  0.00000000000E+00 0.  1.
<mgrwt>
<rscale>  0 0.19793726E+04</rscale>
<asrwt>0</asrwt>
<pdfrwt beam="1">  1        1 0.20563497E+00 0.19793726E+04</pdfrwt>
<pdfrwt beam="2">  1       -1 0.11273829E+00 0.19793726E+04</pdfrwt>
<totfact> 0.56980638E+00</totfact>
</mgrwt>
</event>
<event>
12    2  0.3518828E-008  0.2186765E+04  0.7818608E-02  0.8523957E-01
          2   -1    0    0  501    0  0.00000000000E+00  0.00000000000E+00  0.16208750011E+04  0.16208750011E+04  0.00000000000E+00 0. -1.
         -2   -1    0    0    0  501 -0.00000000000E+00 -0.00000000000E+00 -0.73755582577E+03  0.73755582577E+03  0.00000000000E+00 0.  1.
         23    2    1    2    0    0 -0.38179884910E+02  0.69383768774E+03 -0.25717088339E+03  0.74707123796E+03  0.95447005091E+02 0.  0.
        254    2    1    2    0    0  0.38179884910E+02 -0.69383768774E+03  0.11404900587E+04  0.16113595889E+04  0.90160618352E+03 0.  0.
         23    2    4    4    0    0 -0.80999893071E+02 -0.74734203645E+03  0.40495859022E+03  0.85868080411E+03  0.90885430219E+02 0.  0.
         23    2    4    4    0    0  0.11917977798E+03  0.53504348711E+02  0.73553146850E+03  0.75267878479E+03  0.91936266585E+02 0.  0.
          1    1    3    3  502    0  0.31016503892E+02  0.15026174319E+03 -0.53940359247E+02  0.16263510487E+03  0.00000000000E+00 0. -1.
         -1    1    3    3    0  502 -0.69196388801E+02  0.54357594456E+03 -0.20323052414E+03  0.58443613309E+03  0.00000000000E+00 0.  1.
         11    1    5    5    0    0 -0.30169358026E+02 -0.36910994789E+03  0.24980092130E+03  0.44671338023E+03  0.00000000000E+00 0. -1.
        -11    1    5    5    0    0 -0.50830535045E+02 -0.37823208857E+03  0.15515766892E+03  0.41196742388E+03  0.00000000000E+00 0.  1.
          2    1    6    6  503    0  0.49380854146E+01 -0.22105362873E+02  0.11396010132E+03  0.11618922690E+03  0.00000000000E+00 0. -1.
         -2    1    6    6    0  503  0.11424169257E+03  0.75609711583E+02  0.62157136718E+03  0.63648955789E+03  0.00000000000E+00 0.  1.
<mgrwt>
<rscale>  0 0.21867655E+04</rscale>
<asrwt>0</asrwt>
<pdfrwt beam="1">  1        2 0.24936538E+00 0.21867655E+04</pdfrwt>
<pdfrwt beam="2">  1       -2 0.11347013E+00 0.21867655E+04</pdfrwt>
<totfact> 0.60526816E+00</totfact>
</mgrwt>
</event>
<event>
12    2  0.3518828E-008  0.1473273E+04  0.7818608E-02  0.8902423E-01
          2   -1    0    0  501    0  0.00000000000E+00  0.00000000000E+00  0.23464914500E+04  0.23464914500E+04  0.00000000000E+00 0.  1.
         -2   -1    0    0    0  501 -0.00000000000E+00 -0.00000000000E+00 -0.23125296641E+03  0.23125296641E+03  0.00000000000E+00 0. -1.
         23    2    1    2    0    0  0.35234978096E+03 -0.11477441644E+03  0.10247585311E+04  0.10931096457E+04  0.86227115617E+02 0.  0.
        254    2    1    2    0    0 -0.35234978096E+03  0.11477441644E+03  0.10904799524E+04  0.14846347707E+04  0.93684061665E+03 0.  0.
         23    2    4    4    0    0  0.15130501164E+03 -0.24411364385E+03  0.65976316932E+03  0.72510904503E+03  0.89504245308E+02 0.  0.
         23    2    4    4    0    0 -0.50365479259E+03  0.35888806030E+03  0.43071678309E+03  0.75952572569E+03  0.94305836664E+02 0.  0.
          4    1    3    3  502    0  0.52226373179E+02 -0.46076429101E+02  0.24689368556E+03  0.25652899123E+03  0.00000000000E+00 0. -1.
         -4    1    3    3    0  502  0.30012340778E+03 -0.68697987343E+02  0.77786484559E+03  0.83658065443E+03  0.00000000000E+00 0.  1.
         11    1    5    5    0    0  0.45845714768E+02 -0.32017366430E+02  0.70251524475E+02  0.89789854699E+02  0.00000000000E+00 0.  1.
        -11    1    5    5    0    0  0.10545929687E+03 -0.21209627742E+03  0.58951164485E+03  0.63531919033E+03  0.00000000000E+00 0. -1.
          1    1    6    6  503    0 -0.31627744491E+03  0.26641998812E+03  0.24973275531E+03  0.48309158687E+03  0.00000000000E+00 0. -1.
         -1    1    6    6    0  503 -0.18737734768E+03  0.92468072178E+02  0.18098402777E+03  0.27643413882E+03  0.00000000000E+00 0.  1.
<mgrwt>
<rscale>  0 0.14732727E+04</rscale>
<asrwt>0</asrwt>
<pdfrwt beam="1">  1        2 0.36099867E+00 0.14732727E+04</pdfrwt>
<pdfrwt beam="2">  1       -2 0.35577381E-01 0.14732727E+04</pdfrwt>
<totfact> 0.30720152E+01</totfact>
</mgrwt>
</event>
<event>
12    2  0.3518828E-008  0.1721085E+04  0.7818608E-02  0.8749429E-01
          2   -1    0    0  501    0  0.00000000000E+00  0.00000000000E+00  0.18384493157E+04  0.18384493157E+04  0.00000000000E+00 0. -1.
         -2   -1    0    0    0  501 -0.00000000000E+00 -0.00000000000E+00 -0.40280325341E+03  0.40280325341E+03  0.00000000000E+00 0.  1.
         23    2    1    2    0    0 -0.15920155296E+03  0.46675500647E+03  0.13083867373E+02  0.50166554657E+03  0.91059115433E+02 0.  0.
        254    2    1    2    0    0  0.15920155296E+03 -0.46675500647E+03  0.14225621949E+04  0.17395870225E+04  0.87136355216E+03 0.  0.
         23    2    4    4    0    0 -0.22477473343E+03 -0.23447574894E+02  0.95013393717E+03  0.98091835332E+03  0.91503266380E+02 0.  0.
         23    2    4    4    0    0  0.38397628638E+03 -0.44330743158E+03  0.47242825770E+03  0.75866866918E+03  0.91817337811E+02 0.  0.
          1    1    3    3  502    0 -0.28710797355E+02  0.21451495986E+03  0.21909686726E+02  0.21753393359E+03  0.00000000000E+00 0. -1.
         -1    1    3    3    0  502 -0.13049075560E+03  0.25224004661E+03 -0.88258193533E+01  0.28413161299E+03  0.00000000000E+00 0.  1.
         11    1    5    5    0    0 -0.19730693081E+03  0.69413057664E+01  0.85205311169E+03  0.87462718447E+03  0.00000000000E+00 0. -1.
        -11    1    5    5    0    0 -0.27467802615E+02 -0.30388880660E+02  0.98080825473E+02  0.10629116884E+03  0.00000000000E+00 0.  1.
          4    1    6    6  503    0  0.26700714931E+03 -0.34893335714E+03  0.38867632870E+03  0.58661451908E+03  0.00000000000E+00 0. -1.
         -4    1    6    6    0  503  0.11696913708E+03 -0.94374074436E+02  0.83751929005E+02  0.17205415010E+03  0.00000000000E+00 0.  1.
<mgrwt>
<rscale>  0 0.17210850E+04</rscale>
<asrwt>0</asrwt>
<pdfrwt beam="1">  1        2 0.28283835E+00 0.17210850E+04</pdfrwt>
<pdfrwt beam="2">  1       -2 0.61969732E-01 0.17210850E+04</pdfrwt>
<totfact> 0.18870321E+01</totfact>
</mgrwt>
</event>
<event>
12    2  0.3518828E-008  0.1932138E+04  0.7818608E-02  0.8639023E-01
          2   -1    0    0  501    0  0.00000000000E+00  0.00000000000E+00  0.59417537245E+03  0.59417537245E+03  0.00000000000E+00 0. -1.
         -2   -1    0    0    0  501 -0.00000000000E+00 -0.00000000000E+00 -0.15707300557E+04  0.15707300557E+04  0.00000000000E+00 0.  1.
         23    2    1    2    0    0 -0.18375147769E+03 -0.46915851119E+03  0.23793510501E+03  0.56421757098E+03  0.88623016391E+02 0.  0.
        254    2    1    2    0    0  0.18375147769E+03  0.46915851119E+03 -0.12144897882E+04  0.16006878571E+04  0.91287559730E+03 0.  0.
         23    2    4    4    0    0 -0.15727693748E+03  0.10362493093E+03 -0.10442084384E+04  0.10650741065E+04  0.92398204686E+02 0.  0.
         23    2    4    4    0    0  0.34102841517E+03  0.36553358026E+03 -0.17028134985E+03  0.53561375063E+03  0.89281428706E+02 0.  0.
          4    1    3    3  502    0 -0.99134047467E+02 -0.14065591596E+03  0.71177228279E+02  0.18621988048E+03  0.00000000000E+00 0.  1.
         -4    1    3    3    0  502 -0.84617430218E+02 -0.32850259523E+03  0.16675787673E+03  0.37799769049E+03  0.00000000000E+00 0. -1.
         11    1    5    5    0    0 -0.15060215887E+03  0.81848940116E+02 -0.72223923760E+03  0.74230032708E+03  0.00000000000E+00 0. -1.
        -11    1    5    5    0    0 -0.66747786126E+01  0.21775990811E+02 -0.32196920077E+03  0.32277377943E+03  0.00000000000E+00 0.  1.
          3    1    6    6  503    0  0.32467071350E+03  0.33056040205E+03 -0.13325264156E+03  0.48211774297E+03  0.00000000000E+00 0. -1.
         -3    1    6    6    0  503  0.16357701663E+02  0.34973178213E+02 -0.37028708283E+02  0.53496007656E+02  0.00000000000E+00 0.  1.
<mgrwt>
<rscale>  0 0.19321378E+04</rscale>
<asrwt>0</asrwt>
<pdfrwt beam="1">  1        2 0.91411596E-01 0.19321378E+04</pdfrwt>
<pdfrwt beam="2">  1       -2 0.24165078E+00 0.19321378E+04</pdfrwt>
<totfact> 0.33908739E+00</totfact>
</mgrwt>
</event>
<event>
12    2  0.3518828E-008  0.1928803E+04  0.7818608E-02  0.8640651E-01
          1   -1    0    0  501    0  0.00000000000E+00  0.00000000000E+00  0.14088392834E+04  0.14088392834E+04  0.00000000000E+00 0. -1.
         -1   -1    0    0    0  501 -0.00000000000E+00 -0.00000000000E+00 -0.66016758067E+03  0.66016758067E+03  0.00000000000E+00 0.  1.
         23    2    1    2    0    0 -0.53461477715E+03 -0.35381075506E+03 -0.11436544536E+03  0.65784390996E+03  0.93188757015E+02 0.  0.
        254    2    1    2    0    0  0.53461477715E+03  0.35381075506E+03  0.86303714806E+03  0.14111629541E+04  0.91408574744E+03 0.  0.
         23    2    4    4    0    0  0.52224431872E+03 -0.49362003995E+02  0.84263192476E+03  0.99677472399E+03  0.91408718853E+02 0.  0.
         23    2    4    4    0    0  0.12370458426E+02  0.40317275906E+03  0.20405223301E+02  0.41438823008E+03  0.92735808632E+02 0.  0.
          4    1    3    3  502    0 -0.17462505723E+03 -0.15249567274E+03 -0.83865209681E+01  0.23198960009E+03  0.00000000000E+00 0. -1.
         -4    1    3    3    0  502 -0.35998971991E+03 -0.20131508233E+03 -0.10597892440E+03  0.42585430987E+03  0.00000000000E+00 0.  1.
         11    1    5    5    0    0  0.19470295408E+03 -0.60855087165E+02  0.29795420078E+03  0.36109456895E+03  0.00000000000E+00 0. -1.
        -11    1    5    5    0    0  0.32754136464E+03  0.11493083170E+02  0.54467772398E+03  0.63568015504E+03  0.00000000000E+00 0.  1.
          2    1    6    6  503    0 -0.43196559309E+00  0.39309903941E+03  0.67911277359E+01  0.39315793365E+03  0.00000000000E+00 0.  1.
         -2    1    6    6    0  503  0.12802424019E+02  0.10073719650E+02  0.13614095565E+02  0.21230296428E+02  0.00000000000E+00 0. -1.
<mgrwt>
<rscale>  0 0.19288028E+04</rscale>
<asrwt>0</asrwt>
<pdfrwt beam="1">  1        1 0.21674450E+00 0.19288028E+04</pdfrwt>
<pdfrwt beam="2">  1       -1 0.10156424E+00 0.19288028E+04</pdfrwt>
<totfact> 0.65010244E+00</totfact>
</mgrwt>
</event>
<event>
12    2  0.3518828E-008  0.1456761E+04  0.7818608E-02  0.8913727E-01
          1   -1    0    0  501    0  0.00000000000E+00  0.00000000000E+00  0.10647285185E+04  0.10647285185E+04  0.00000000000E+00 0. -1.
         -1   -1    0    0    0  501 -0.00000000000E+00 -0.00000000000E+00 -0.49828478999E+03  0.49828478999E+03  0.00000000000E+00 0.  1.
         23    2    1    2    0    0 -0.22876432649E+03 -0.26775457156E+03 -0.11782054519E+03  0.38258576853E+03  0.92003052944E+02 0.  0.
        254    2    1    2    0    0  0.22876432649E+03  0.26775457156E+03  0.68426427372E+03  0.11804275400E+04  0.89507874132E+03 0.  0.
         23    2    4    4    0    0  0.47653602469E+03  0.42558663868E+03  0.52904696226E+03  0.83474545341E+03  0.93266895880E+02 0.  0.
         23    2    4    4    0    0 -0.24777169820E+03 -0.15783206711E+03  0.15521731147E+03  0.34568208656E+03  0.95403958780E+02 0.  0.
          1    1    3    3  502    0 -0.12929700731E+02 -0.17253832281E+01  0.10523740239E+02  0.16760167567E+02  0.00000000000E+00 0. -1.
         -1    1    3    3    0  502 -0.21583462576E+03 -0.26602918833E+03 -0.12834428543E+03  0.36582560097E+03  0.00000000000E+00 0.  1.
         11    1    5    5    0    0  0.34193862249E+03  0.33425516573E+03  0.34824252076E+03  0.59154153754E+03  0.00000000000E+00 0.  1.
        -11    1    5    5    0    0  0.13459740221E+03  0.91331472941E+02  0.18080444150E+03  0.24320391587E+03  0.00000000000E+00 0. -1.
          3    1    6    6  503    0 -0.23517319889E+03 -0.17085308883E+03  0.14431489126E+03  0.32453659158E+03  0.00000000000E+00 0. -1.
         -3    1    6    6    0  503 -0.12598499317E+02  0.13021021715E+02  0.10902420208E+02  0.21145494980E+02  0.00000000000E+00 0.  1.
<mgrwt>
<rscale>  0 0.14567608E+04</rscale>
<asrwt>0</asrwt>
<pdfrwt beam="1">  1        1 0.16380439E+00 0.14567608E+04</pdfrwt>
<pdfrwt beam="2">  1       -1 0.76659199E-01 0.14567608E+04</pdfrwt>
<totfact> 0.22355058E+01</totfact>
</mgrwt>
</event>
<event>
12    2  0.3518828E-008  0.1433240E+04  0.7818608E-02  0.8930103E-01
         -1   -1    0    0    0  501 -0.00000000000E+00  0.00000000000E+00  0.18605361658E+04  0.18605361658E+04  0.00000000000E+00 0.  1.
          1   -1    0    0  501    0  0.00000000000E+00 -0.00000000000E+00 -0.27601938159E+03  0.27601938159E+03  0.00000000000E+00 0. -1.
         23    2    1    2    0    0 -0.32004811124E+03 -0.19220075821E+03  0.18966631770E+03  0.42849929469E+03  0.90919791646E+02 0.  0.
        254    2    1    2    0    0  0.32004811124E+03  0.19220075821E+03  0.13948504665E+04  0.17080562527E+04  0.91240145413E+03 0.  0.
         23    2    4    4    0    0 -0.22232984937E+03 -0.15275325311E+03  0.70411110310E+03  0.76008630021E+03  0.95888581175E+02 0.  0.
         23    2    4    4    0    0  0.54237796061E+03  0.34495401133E+03  0.69073936340E+03  0.94796995248E+03  0.91427788874E+02 0.  0.
          1    1    3    3  502    0 -0.31283672427E+03 -0.16341020501E+03  0.18488339612E+03  0.39843642067E+03  0.00000000000E+00 0. -1.
         -1    1    3    3    0  502 -0.72113869723E+01 -0.28790553200E+02  0.47829215809E+01  0.30062874023E+02  0.00000000000E+00 0.  1.
         11    1    5    5    0    0 -0.55533634564E+02 -0.20629978368E+02  0.27260370639E+03  0.27896659534E+03  0.00000000000E+00 0. -1.
        -11    1    5    5    0    0 -0.16679621480E+03 -0.13212327474E+03  0.43150739671E+03  0.48111970488E+03  0.00000000000E+00 0.  1.
          1    1    6    6  503    0  0.84375715785E+02  0.21522536941E+02  0.11590185395E+03  0.14496799909E+03  0.00000000000E+00 0. -1.
         -1    1    6    6    0  503  0.45800224482E+03  0.32343147439E+03  0.57483750945E+03  0.80300195339E+03  0.00000000000E+00 0.  1.
<mgrwt>
<rscale>  0 0.14332397E+04</rscale>
<asrwt>0</asrwt>
<pdfrwt beam="1">  1        1 0.42464521E-01 0.14332397E+04</pdfrwt>
<pdfrwt beam="2">  1       -1 0.28623633E+00 0.14332397E+04</pdfrwt>
<totfact> 0.38645701E+00</totfact>
</mgrwt>
</event>
<event>
12    2  0.3518828E-008  0.2278145E+04  0.7818608E-02  0.8486588E-01
          1   -1    0    0  501    0  0.00000000000E+00  0.00000000000E+00  0.33262628078E+04  0.33262628078E+04  0.00000000000E+00 0. -1.
         -1   -1    0    0    0  501 -0.00000000000E+00 -0.00000000000E+00 -0.39007332583E+03  0.39007332583E+03  0.00000000000E+00 0.  1.
         23    2    1    2    0    0  0.96797011426E+03  0.14815670248E+03  0.15827550882E+04  0.18633956315E+04  0.90625934336E+02 0.  0.
        254    2    1    2    0    0 -0.96797011426E+03 -0.14815670248E+03  0.13534343938E+04  0.18529405021E+04  0.80167780020E+03 0.  0.
         23    2    4    4    0    0  0.26878682494E+02  0.11208137649E+03 -0.57258370804E+01  0.14618065764E+03  0.89729041722E+02 0.  0.
         23    2    4    4    0    0 -0.99484879675E+03 -0.26023807897E+03  0.13591602309E+04  0.17067598444E+04  0.90910105304E+02 0.  0.
          4    1    3    3  502    0  0.40442689679E+03  0.53019768546E+02  0.74325234662E+03  0.84781853097E+03  0.00000000000E+00 0. -1.
         -4    1    3    3    0  502  0.56354321747E+03  0.95136933932E+02  0.83950274155E+03  0.10155771006E+04  0.00000000000E+00 0.  1.
         11    1    5    5    0    0 -0.25168835224E+02  0.55670869693E+02 -0.26605971478E+02  0.66637779954E+02  0.00000000000E+00 0. -1.
        -11    1    5    5    0    0  0.52047517717E+02  0.56410506799E+02  0.20880134398E+02  0.79542877685E+02  0.00000000000E+00 0.  1.
          2    1    6    6  503    0 -0.96416843145E+03 -0.23499505015E+03  0.12999465725E+04  0.16354523928E+04  0.00000000000E+00 0. -1.
         -2    1    6    6    0  503 -0.30680365305E+02 -0.25243028825E+02  0.59213658375E+02  0.71307451628E+02  0.00000000000E+00 0.  1.
<mgrwt>
<rscale>  0 0.22781452E+04</rscale>
<asrwt>0</asrwt>
<pdfrwt beam="1">  1        1 0.51173272E+00 0.22781452E+04</pdfrwt>
<pdfrwt beam="2">  1       -1 0.60011283E-01 0.22781452E+04</pdfrwt>
<totfact> 0.87077890E-01</totfact>
</mgrwt>
</event>
<event>
12    2  0.3518828E-008  0.1328652E+04  0.7818608E-02  0.9007147E-01
         -1   -1    0    0    0  501 -0.00000000000E+00  0.00000000000E+00  0.26705521189E+03  0.26705521189E+03  0.00000000000E+00 0.  1.
          1   -1    0    0  501    0  0.00000000000E+00 -0.00000000000E+00 -0.16525765456E+04  0.16525765456E+04  0.00000000000E+00 0. -1.
         23    2    1    2    0    0 -0.25760171113E+03 -0.85590588864E+02 -0.34047897498E+03  0.44520569304E+03  0.92724248354E+02 0.  0.
        254    2    1    2    0    0  0.25760171113E+03  0.85590588864E+02 -0.10450423587E+04  0.14744260644E+04  0.10040589114E+04 0.  0.
         23    2    4    4    0    0  0.40278634509E+03  0.34697735393E+03 -0.20219087216E+03  0.57581954153E+03  0.89760078471E+02 0.  0.
         23    2    4    4    0    0 -0.14518463397E+03 -0.26138676507E+03 -0.84285148654E+03  0.89860652289E+03  0.87712232515E+02 0.  0.
          3    1    3    3  502    0 -0.25802000755E+03 -0.79647986175E+02 -0.29734297220E+03  0.40166026579E+03  0.00000000000E+00 0. -1.
         -3    1    3    3    0  502  0.41829642029E+00 -0.59426026889E+01 -0.43136002778E+02  0.43545427248E+02  0.00000000000E+00 0.  1.
         11    1    5    5    0    0  0.30249410180E+03  0.24430657862E+03 -0.10592626237E+03  0.40299970104E+03  0.00000000000E+00 0. -1.
        -11    1    5    5    0    0  0.10029224329E+03  0.10267077531E+03 -0.96264609787E+02  0.17281984048E+03  0.00000000000E+00 0.  1.
          1    1    6    6  503    0 -0.97000442613E+02 -0.15472589333E+03 -0.62716126038E+03  0.65320780342E+03  0.00000000000E+00 0. -1.
         -1    1    6    6    0  503 -0.48184191354E+02 -0.10666087174E+03 -0.21569022616E+03  0.24539871947E+03  0.00000000000E+00 0.  1.
<mgrwt>
<rscale>  0 0.13286522E+04</rscale>
<asrwt>0</asrwt>
<pdfrwt beam="1">  1        1 0.25424254E+00 0.13286522E+04</pdfrwt>
<pdfrwt beam="2">  1       -1 0.41085418E-01 0.13286522E+04</pdfrwt>
<totfact> 0.29197176E+01</totfact>
</mgrwt>
</event>
<event>
12    2  0.3518828E-008  0.1184370E+04  0.7818608E-02  0.9126648E-01
          2   -1    0    0  501    0  0.00000000000E+00  0.00000000000E+00  0.42046324909E+03  0.42046324909E+03  0.00000000000E+00 0.  1.
         -2   -1    0    0    0  501 -0.00000000000E+00 -0.00000000000E+00 -0.83404041402E+03  0.83404041402E+03  0.00000000000E+00 0. -1.
         23    2    1    2    0    0 -0.32516352172E+02 -0.22148133410E+03  0.35868767140E+02  0.24425568886E+03  0.90900927238E+02 0.  0.
        254    2    1    2    0    0  0.32516352172E+02  0.22148133410E+03 -0.44944593207E+03  0.10102479742E+04  0.87663449002E+03 0.  0.
         23    2    4    4    0    0 -0.32870142541E+03  0.16852260343E+03 -0.50221170226E+03  0.63030924499E+03  0.92890556527E+02 0.  0.
         23    2    4    4    0    0  0.36121777758E+03  0.52958730668E+02  0.52765770196E+02  0.37993872925E+03  0.91029124378E+02 0.  0.
          4    1    3    3  502    0 -0.22573683915E+02 -0.22889083734E+02 -0.19816278908E+02  0.37764616633E+02  0.00000000000E+00 0. -1.
         -4    1    3    3    0  502 -0.99426682571E+01 -0.19859225037E+03  0.55685046048E+02  0.20649107223E+03  0.00000000000E+00 0.  1.
         11    1    5    5    0    0 -0.16483677756E+03  0.57101791038E+02 -0.30104563305E+03  0.34793713650E+03  0.00000000000E+00 0.  1.
        -11    1    5    5    0    0 -0.16386464785E+03  0.11142081239E+03 -0.20116606921E+03  0.28237210849E+03  0.00000000000E+00 0. -1.
          3    1    6    6  503    0  0.15940053329E+03  0.28460128653E+02  0.68963637199E+02  0.17599571640E+03  0.00000000000E+00 0.  1.
         -3    1    6    6    0  503  0.20181724430E+03  0.24498602016E+02 -0.16197867003E+02  0.20394301285E+03  0.00000000000E+00 0. -1.
<mgrwt>
<rscale>  0 0.11843705E+04</rscale>
<asrwt>0</asrwt>
<pdfrwt beam="1">  1        2 0.64686654E-01 0.11843705E+04</pdfrwt>
<pdfrwt beam="2">  1       -2 0.12831391E+00 0.11843705E+04</pdfrwt>
<totfact> 0.33299958E+01</totfact>
</mgrwt>
</event>
<event>
12    2  0.3518828E-008  0.2989015E+04  0.7818608E-02  0.8246875E-01
          2   -1    0    0  501    0  0.00000000000E+00  0.00000000000E+00  0.22597593719E+04  0.22597593719E+04  0.00000000000E+00 0. -1.
         -2   -1    0    0    0  501 -0.00000000000E+00 -0.00000000000E+00 -0.98840260672E+03  0.98840260672E+03  0.00000000000E+00 0.  1.
         23    2    1    2    0    0 -0.12396536141E+04 -0.48524792623E+03  0.28586022200E+03  0.13647420303E+04  0.92725992879E+02 0.  0.
        254    2    1    2    0    0  0.12396536141E+04  0.48524792623E+03  0.98549654319E+03  0.18834199483E+04  0.89658275259E+03 0.  0.
         23    2    4    4    0    0  0.74217542377E+03  0.58197942194E+03  0.23999805330E+03  0.97755662517E+03  0.92160092279E+02 0.  0.
         23    2    4    4    0    0  0.49747819036E+03 -0.96731495712E+02  0.74549848989E+03  0.90586332318E+03  0.89324295143E+02 0.  0.
          4    1    3    3  502    0 -0.40977164509E+03 -0.11478117857E+03  0.99205249258E+02  0.43695446165E+03  0.00000000000E+00 0. -1.
         -4    1    3    3    0  502 -0.82988196904E+03 -0.37046674766E+03  0.18665497274E+03  0.92778756863E+03  0.00000000000E+00 0.  1.
         11    1    5    5    0    0  0.93881589052E+02  0.40638207404E+02  0.38136223594E+02  0.10917686666E+03  0.00000000000E+00 0. -1.
        -11    1    5    5    0    0  0.64829383472E+03  0.54134121454E+03  0.20186182970E+03  0.86837975851E+03  0.00000000000E+00 0.  1.
          1    1    6    6  503    0  0.13896612516E+02 -0.19096117590E+02  0.49073378560E+02  0.54460756786E+02  0.00000000000E+00 0. -1.
         -1    1    6    6    0  503  0.48358157785E+03 -0.77635378122E+02  0.69642511133E+03  0.85140256639E+03  0.00000000000E+00 0.  1.
<mgrwt>
<rscale>  0 0.29890146E+04</rscale>
<asrwt>0</asrwt>
<pdfrwt beam="1">  1        2 0.34765529E+00 0.29890146E+04</pdfrwt>
<pdfrwt beam="2">  1       -2 0.15206194E+00 0.29890146E+04</pdfrwt>
<totfact> 0.11827641E+00</totfact>
</mgrwt>
</event>
<event>
12    2  0.3518828E-008  0.1576422E+04  0.7818608E-02  0.8835165E-01
          1   -1    0    0  501    0  0.00000000000E+00  0.00000000000E+00  0.20206097251E+04  0.20206097251E+04  0.00000000000E+00 0. -1.
         -1   -1    0    0    0  501 -0.00000000000E+00 -0.00000000000E+00 -0.30746994543E+03  0.30746994543E+03  0.00000000000E+00 0.  1.
         23    2    1    2    0    0 -0.14769910292E+03 -0.49178431648E+03  0.40543326543E+03  0.65954221162E+03  0.83384394509E+02 0.  0.
        254    2    1    2    0    0  0.14769910292E+03  0.49178431648E+03  0.13077065142E+04  0.16685374589E+04  0.90014114753E+03 0.  0.
         23    2    4    4    0    0 -0.13157537709E+03 -0.21650835408E+03  0.35580946694E+03  0.44620344197E+03  0.91154745498E+02 0.  0.
         23    2    4    4    0    0  0.27927448001E+03  0.70829267056E+03  0.95189704729E+03  0.12223340169E+04  0.91212487953E+02 0.  0.
          4    1    3    3  502    0 -0.13227841388E+02 -0.23622112870E+02  0.21316526779E+01  0.27157392131E+02  0.00000000000E+00 0. -1.
         -4    1    3    3    0  502 -0.13447126153E+03 -0.46816220361E+03  0.40330161276E+03  0.63238481949E+03  0.00000000000E+00 0.  1.
         11    1    5    5    0    0 -0.65735652992E+02 -0.86271251533E+02  0.82136032853E+02  0.13605231644E+03  0.00000000000E+00 0. -1.
        -11    1    5    5    0    0 -0.65839724095E+02 -0.13023710255E+03  0.27367343408E+03  0.31015112554E+03  0.00000000000E+00 0.  1.
          2    1    6    6  503    0  0.32485890289E+02  0.68340065866E+02  0.14301477757E+03  0.16179902433E+03  0.00000000000E+00 0. -1.
         -2    1    6    6    0  503  0.24678858972E+03  0.63995260469E+03  0.80888226972E+03  0.10605349926E+04  0.00000000000E+00 0.  1.
<mgrwt>
<rscale>  0 0.15764222E+04</rscale>
<asrwt>0</asrwt>
<pdfrwt beam="1">  1        1 0.31086303E+00 0.15764222E+04</pdfrwt>
<pdfrwt beam="2">  1       -1 0.47303070E-01 0.15764222E+04</pdfrwt>
<totfact> 0.12376186E+01</totfact>
</mgrwt>
</event>
<event>
12    2  0.3518828E-008  0.2850928E+04  0.7818608E-02  0.8287629E-01
          2   -1    0    0  501    0  0.00000000000E+00  0.00000000000E+00  0.25402287092E+04  0.25402287092E+04  0.00000000000E+00 0. -1.
         -2   -1    0    0    0  501 -0.00000000000E+00 -0.00000000000E+00 -0.79990750519E+03  0.79990750519E+03  0.00000000000E+00 0.  1.
         23    2    1    2    0    0  0.73573043027E+03  0.50470718261E+03 -0.29280409426E+03  0.94347227972E+03  0.91526492193E+02 0.  0.
        254    2    1    2    0    0 -0.73573043027E+03 -0.50470718261E+03  0.20331252983E+04  0.23966639347E+04  0.90242502794E+03 0.  0.
         23    2    4    4    0    0 -0.27350871266E+03 -0.56307568805E+02  0.40164429052E+02  0.30027161819E+03  0.10282171524E+03 0.  0.
         23    2    4    4    0    0 -0.46222171761E+03 -0.44839961380E+03  0.19929608692E+04  0.20963923165E+04  0.90865771665E+02 0.  0.
          3    1    3    3  502    0  0.36381268035E+03  0.28469687020E+03 -0.11402131211E+03  0.47582857617E+03  0.00000000000E+00 0. -1.
         -3    1    3    3    0  502  0.37191774992E+03  0.22001031241E+03 -0.17878278215E+03  0.46764370355E+03  0.00000000000E+00 0.  1.
         11    1    5    5    0    0 -0.26649277296E+03 -0.54568652696E+02  0.60517823579E+02  0.27867282406E+03  0.00000000000E+00 0. -1.
        -11    1    5    5    0    0 -0.70159396941E+01 -0.17389161089E+01 -0.20353394527E+02  0.21598794128E+02  0.00000000000E+00 0.  1.
          3    1    6    6  503    0 -0.41744788812E+03 -0.41932453275E+03  0.18894008556E+04  0.19798816622E+04  0.00000000000E+00 0. -1.
         -3    1    6    6    0  503 -0.44773829487E+02 -0.29075081051E+02  0.10356001357E+03  0.11651065425E+03  0.00000000000E+00 0.  1.
<mgrwt>
<rscale>  0 0.28509283E+04</rscale>
<asrwt>0</asrwt>
<pdfrwt beam="1">  1        2 0.39080441E+00 0.28509283E+04</pdfrwt>
<pdfrwt beam="2">  1       -2 0.12306269E+00 0.28509283E+04</pdfrwt>
<totfact> 0.14248955E+00</totfact>
</mgrwt>
</event>
<event>
12    2  0.3518828E-008  0.1811111E+04  0.7818608E-02  0.8700413E-01
          2   -1    0    0  501    0  0.00000000000E+00  0.00000000000E+00  0.13471909597E+04  0.13471909597E+04  0.00000000000E+00 0.  1.
         -2   -1    0    0    0  501 -0.00000000000E+00 -0.00000000000E+00 -0.60869702350E+03  0.60869702350E+03  0.00000000000E+00 0. -1.
         23    2    1    2    0    0  0.33861853594E+03 -0.22835162855E+03 -0.30492109504E+03  0.51751756070E+03  0.89669238265E+02 0.  0.
        254    2    1    2    0    0 -0.33861853594E+03  0.22835162855E+03  0.10434150312E+04  0.14383704224E+04  0.90188001734E+03 0.  0.
         23    2    4    4    0    0 -0.34463166869E+03  0.49783473201E+03  0.38904862334E+03  0.72477688443E+03  0.85628811854E+02 0.  0.
         23    2    4    4    0    0  0.60131327548E+01 -0.26948310346E+03  0.65436640786E+03  0.71359353801E+03  0.91449663436E+02 0.  0.
          3    1    3    3  502    0  0.25975537651E+03 -0.18397657100E+03 -0.27929369907E+03  0.42346806804E+03  0.00000000000E+00 0. -1.
         -3    1    3    3    0  502  0.78863159423E+02 -0.44375057550E+02 -0.25627395975E+02  0.94049492669E+02  0.00000000000E+00 0.  1.
         11    1    5    5    0    0 -0.31780318222E+03  0.45642983359E+03  0.32583640754E+03  0.64459011790E+03  0.00000000000E+00 0.  1.
        -11    1    5    5    0    0 -0.26828486469E+02  0.41404898424E+02  0.63212215801E+02  0.80186766527E+02  0.00000000000E+00 0. -1.
          3    1    6    6  503    0  0.35583901713E+02 -0.52023909942E+02  0.11215548080E+03  0.12865283961E+03  0.00000000000E+00 0. -1.
         -3    1    6    6    0  503 -0.29570768958E+02 -0.21745919352E+03  0.54221092706E+03  0.58494069840E+03  0.00000000000E+00 0.  1.
<mgrwt>
<rscale>  0 0.18111114E+04</rscale>
<asrwt>0</asrwt>
<pdfrwt beam="1">  1        2 0.20726015E+00 0.18111114E+04</pdfrwt>
<pdfrwt beam="2">  1       -2 0.93645697E-01 0.18111114E+04</pdfrwt>
<totfact> 0.14110444E+01</totfact>
</mgrwt>
</event>
<event>
12    2  0.3518828E-008  0.1295385E+04  0.7818608E-02  0.9033233E-01
          2   -1    0    0  501    0  0.00000000000E+00  0.00000000000E+00  0.35379252765E+04  0.35379252765E+04  0.00000000000E+00 0. -1.
         -2   -1    0    0    0  501 -0.00000000000E+00 -0.00000000000E+00 -0.11857396832E+03  0.11857396832E+03  0.00000000000E+00 0.  1.
         23    2    1    2    0    0  0.66389830504E+02  0.47204624240E+02  0.52100422377E+01  0.12439539958E+03  0.93867911191E+02 0.  0.
        254    2    1    2    0    0 -0.66389830504E+02 -0.47204624240E+02  0.34141412660E+04  0.35321038453E+04  0.90153264147E+03 0.  0.
         23    2    4    4    0    0 -0.26420550217E+03  0.32820219050E+03  0.11813879812E+04  0.12575974769E+04  0.91392706014E+02 0.  0.
         23    2    4    4    0    0  0.19781567166E+03 -0.37540681474E+03  0.22327532848E+04  0.22745063683E+04  0.90170240699E+02 0.  0.
          3    1    3    3  502    0 -0.21348065969E+02  0.92286641902E+01  0.15933531676E+02  0.28191942023E+02  0.00000000000E+00 0. -1.
         -3    1    3    3    0  502  0.87737896474E+02  0.37975960049E+02 -0.10723489438E+02  0.96203457552E+02  0.00000000000E+00 0.  1.
         11    1    5    5    0    0 -0.83041904063E+02  0.63909613367E+02  0.20938052102E+03  0.23413799157E+03  0.00000000000E+00 0.  1.
        -11    1    5    5    0    0 -0.18116359810E+03  0.26429257713E+03  0.97200746014E+03  0.10234594854E+04  0.00000000000E+00 0. -1.
          1    1    6    6  503    0  0.15827842345E+03 -0.30650970880E+03  0.15985559056E+04  0.16353535533E+04  0.00000000000E+00 0. -1.
         -1    1    6    6    0  503  0.39537248216E+02 -0.68897105945E+02  0.63419737915E+03  0.63915281500E+03  0.00000000000E+00 0.  1.
<mgrwt>
<rscale>  0 0.12953854E+04</rscale>
<asrwt>0</asrwt>
<pdfrwt beam="1">  1        2 0.54429612E+00 0.12953854E+04</pdfrwt>
<pdfrwt beam="2">  1       -2 0.18242152E-01 0.12953854E+04</pdfrwt>
<totfact> 0.19235054E+01</totfact>
</mgrwt>
</event>
<event>
12    2  0.3518828E-008  0.1624136E+04  0.7818608E-02  0.8805856E-01
         -1   -1    0    0    0  501 -0.00000000000E+00  0.00000000000E+00  0.55976185294E+03  0.55976185294E+03  0.00000000000E+00 0.  1.
          1   -1    0    0  501    0  0.00000000000E+00 -0.00000000000E+00 -0.11780988573E+04  0.11780988573E+04  0.00000000000E+00 0. -1.
         23    2    1    2    0    0 -0.11508352761E+03  0.12996498265E+03  0.35317577385E+03  0.40375073838E+03  0.90257500911E+02 0.  0.
        254    2    1    2    0    0  0.11508352761E+03 -0.12996498265E+03 -0.97151277821E+03  0.13341099719E+04  0.89770664683E+03 0.  0.
         23    2    4    4    0    0  0.32681481513E+03  0.21988153304E+03 -0.19021755759E+03  0.44688098101E+03  0.91455344363E+02 0.  0.
         23    2    4    4    0    0 -0.21173128752E+03 -0.34984651569E+03 -0.78129522062E+03  0.88722899086E+03  0.97623449030E+02 0.  0.
          3    1    3    3  502    0 -0.23518327445E+02  0.47748262919E+02  0.37989614028E+02  0.65392806268E+02  0.00000000000E+00 0. -1.
         -3    1    3    3    0  502 -0.91565200166E+02  0.82216719734E+02  0.31518615982E+03  0.33835793212E+03  0.00000000000E+00 0.  1.
         11    1    5    5    0    0  0.93671856801E+02  0.10509061071E+03 -0.38430383223E+02  0.14592925536E+03  0.00000000000E+00 0. -1.
        -11    1    5    5    0    0  0.23314295833E+03  0.11479092233E+03 -0.15178717437E+03  0.30095172565E+03  0.00000000000E+00 0.  1.
          4    1    6    6  503    0 -0.19458883463E+03 -0.30742069925E+03 -0.61315517202E+03  0.71297374837E+03  0.00000000000E+00 0. -1.
         -4    1    6    6    0  503 -0.17142452890E+02 -0.42425816445E+02 -0.16814004860E+03  0.17425524249E+03  0.00000000000E+00 0.  1.
<mgrwt>
<rscale>  0 0.16241364E+04</rscale>
<asrwt>0</asrwt>
<pdfrwt beam="1">  1        1 0.18124598E+00 0.16241364E+04</pdfrwt>
<pdfrwt beam="2">  1       -1 0.86117209E-01 0.16241364E+04</pdfrwt>
<totfact> 0.14132734E+01</totfact>
</mgrwt>
</event>
<event>
12    2  0.3518828E-008  0.2472952E+04  0.7818608E-02  0.8412686E-01
         -2   -1    0    0    0  501 -0.00000000000E+00  0.00000000000E+00  0.87683380877E+03  0.87683380877E+03  0.00000000000E+00 0.  1.
          2   -1    0    0  501    0  0.00000000000E+00 -0.00000000000E+00 -0.17436284308E+04  0.17436284308E+04  0.00000000000E+00 0. -1.
         23    2    1    2    0    0  0.81841071405E+03 -0.50390757401E+03 -0.88388359920E+03  0.13085724657E+04  0.85981049802E+02 0.  0.
        254    2    1    2    0    0 -0.81841071405E+03  0.50390757401E+03  0.17088977133E+02  0.13118897740E+04  0.89277309876E+03 0.  0.
         23    2    4    4    0    0 -0.81136249611E+02 -0.19235180812E+03 -0.15970536332E+03  0.27851808691E+03  0.92109785462E+02 0.  0.
         23    2    4    4    0    0 -0.73727446444E+03  0.69625938213E+03  0.17679434045E+03  0.10333716870E+04  0.90829739912E+02 0.  0.
          1    1    3    3  502    0  0.58595975298E+03 -0.34567334740E+03 -0.67421662383E+03  0.95781363066E+03  0.00000000000E+00 0. -1.
         -1    1    3    3    0  502  0.23245096106E+03 -0.15823422661E+03 -0.20966697537E+03  0.35075883500E+03  0.00000000000E+00 0.  1.
         11    1    5    5    0    0 -0.98517035708E+02 -0.15835600583E+03 -0.14942487139E+03  0.23897703466E+03  0.00000000000E+00 0. -1.
        -11    1    5    5    0    0  0.17380786098E+02 -0.33995802294E+02 -0.10280491930E+02  0.39541052254E+02  0.00000000000E+00 0.  1.
          1    1    6    6  503    0 -0.57155725767E+03  0.56233341942E+03  0.17304941828E+03  0.82026987910E+03  0.00000000000E+00 0. -1.
         -1    1    6    6    0  503 -0.16571720676E+03  0.13392596272E+03  0.37449221658E+01  0.21310180794E+03  0.00000000000E+00 0.  1.
<mgrwt>
<rscale>  0 0.24729516E+04</rscale>
<asrwt>0</asrwt>
<pdfrwt beam="1">  1        2 0.26825053E+00 0.24729516E+04</pdfrwt>
<pdfrwt beam="2">  1       -2 0.13489751E+00 0.24729516E+04</pdfrwt>
<totfact> 0.32771733E+00</totfact>
</mgrwt>
</event>
<event>
12    2  0.3518828E-008  0.1375453E+04  0.7818608E-02  0.8971781E-01
          2   -1    0    0  501    0  0.00000000000E+00  0.00000000000E+00  0.13457482602E+04  0.13457482602E+04  0.00000000000E+00 0. -1.
         -2   -1    0    0    0  501 -0.00000000000E+00 -0.00000000000E+00 -0.35145318974E+03  0.35145318974E+03  0.00000000000E+00 0.  1.
         23    2    1    2    0    0  0.17107220931E+03 -0.85594014752E+02 -0.12122420021E+03  0.24425752369E+03  0.91511720557E+02 0.  0.
        254    2    1    2    0    0 -0.17107220931E+03  0.85594014752E+02  0.11155192707E+04  0.14529439263E+04  0.91108219907E+03 0.  0.
         23    2    4    4    0    0 -0.40782307668E+03  0.86061623664E+01  0.11121281764E+04  0.11880473358E+04  0.90739536318E+02 0.  0.
         23    2    4    4    0    0  0.23675086737E+03  0.76987852386E+02  0.33910943352E+01  0.26489659052E+03  0.90446677837E+02 0.  0.
          1    1    3    3  502    0  0.24273208401E+01  0.77851130088E+01 -0.29818159123E+02  0.30913144202E+02  0.00000000000E+00 0. -1.
         -1    1    3    3    0  502  0.16864488847E+03 -0.93379127761E+02 -0.91406041090E+02  0.21334437948E+03  0.00000000000E+00 0.  1.
         11    1    5    5    0    0 -0.17966248224E+03 -0.41257117969E+02  0.49056695758E+03  0.52405791396E+03  0.00000000000E+00 0. -1.
        -11    1    5    5    0    0 -0.22816059445E+03  0.49863280336E+02  0.62156121878E+03  0.66398942181E+03  0.00000000000E+00 0.  1.
          3    1    6    6  503    0  0.19603963097E+03  0.85926927880E+02 -0.23443510793E+02  0.21532434150E+03  0.00000000000E+00 0. -1.
         -3    1    6    6    0  503  0.40711236400E+02 -0.89390754948E+01  0.26834605128E+02  0.49572249014E+02  0.00000000000E+00 0.  1.
<mgrwt>
<rscale>  0 0.13754527E+04</rscale>
<asrwt>0</asrwt>
<pdfrwt beam="1">  1        2 0.20703819E+00 0.13754527E+04</pdfrwt>
<pdfrwt beam="2">  1       -2 0.54069722E-01 0.13754527E+04</pdfrwt>
<totfact> 0.48828487E+01</totfact>
</mgrwt>
</event>
<event>
12    2  0.3518828E-008  0.1387047E+04  0.7818608E-02  0.8963248E-01
          3   -1    0    0  501    0  0.00000000000E+00  0.00000000000E+00  0.19432638980E+04  0.19432638980E+04  0.00000000000E+00 0. -1.
         -3   -1    0    0    0  501 -0.00000000000E+00 -0.00000000000E+00 -0.24750876350E+03  0.24750876350E+03  0.00000000000E+00 0.  1.
         23    2    1    2    0    0 -0.15009871546E+03 -0.31939105498E+03  0.77196589541E+03  0.85356214185E+03  0.89981753428E+02 0.  0.
        254    2    1    2    0    0  0.15009871546E+03  0.31939105498E+03  0.92378923909E+03  0.13372105196E+04  0.90011396234E+03 0.  0.
         23    2    4    4    0    0  0.49925406545E+03  0.15318672438E+03  0.70964497233E+03  0.88597341580E+03  0.92909161833E+02 0.  0.
         23    2    4    4    0    0 -0.34915534999E+03  0.16620433060E+03  0.21414426676E+03  0.45123710384E+03  0.90685274234E+02 0.  0.
          1    1    3    3  502    0 -0.53151825349E+02 -0.21435643352E+03  0.48820918237E+03  0.53583766467E+03  0.00000000000E+00 0. -1.
         -1    1    3    3    0  502 -0.96946890114E+02 -0.10503462147E+03  0.28375671303E+03  0.31772447718E+03  0.00000000000E+00 0.  1.
         11    1    5    5    0    0  0.31834582095E+03  0.11985857052E+03  0.52319098060E+03  0.62405043131E+03  0.00000000000E+00 0. -1.
        -11    1    5    5    0    0  0.18090824450E+03  0.33328153860E+02  0.18645399173E+03  0.26192298448E+03  0.00000000000E+00 0.  1.
          4    1    6    6  503    0 -0.16967513380E+03  0.33214806012E+02  0.78358848083E+02  0.18982355871E+03  0.00000000000E+00 0. -1.
         -4    1    6    6    0  503 -0.17948021618E+03  0.13298952459E+03  0.13578541868E+03  0.26141354513E+03  0.00000000000E+00 0.  1.
<mgrwt>
<rscale>  0 0.13870470E+04</rscale>
<asrwt>0</asrwt>
<pdfrwt beam="1">  1        3 0.29896367E+00 0.13870470E+04</pdfrwt>
<pdfrwt beam="2">  1       -3 0.38078273E-01 0.13870470E+04</pdfrwt>
<totfact> 0.68951836E-01</totfact>
</mgrwt>
</event>
<event>
12    2  0.3518828E-008  0.1617297E+04  0.7818608E-02  0.8809992E-01
          4   -1    0    0  501    0  0.00000000000E+00  0.00000000000E+00  0.19485322936E+04  0.19485322936E+04  0.00000000000E+00 0. -1.
         -4   -1    0    0    0  501 -0.00000000000E+00 -0.00000000000E+00 -0.33559215483E+03  0.33559215483E+03  0.00000000000E+00 0.  1.
         23    2    1    2    0    0 -0.43729101768E+01 -0.20744322250E+03 -0.16511631891E+03  0.27944226440E+03  0.88163299971E+02 0.  0.
        254    2    1    2    0    0  0.43729101768E+01  0.20744322250E+03  0.17780564577E+04  0.20046821840E+04  0.90233811810E+03 0.  0.
         23    2    4    4    0    0  0.27902542078E+03 -0.23641914673E+03  0.94667721660E+03  0.10187591096E+04  0.89012204692E+02 0.  0.
         23    2    4    4    0    0 -0.27465251060E+03  0.44386236922E+03  0.83137924106E+03  0.98592307441E+03  0.91679124168E+02 0.  0.
          3    1    3    3  502    0  0.25261349569E+02 -0.11161652639E+03 -0.45039838977E+02  0.12298362428E+03  0.00000000000E+00 0. -1.
         -3    1    3    3    0  502 -0.29634259746E+02 -0.95826696108E+02 -0.12007647993E+03  0.15645864013E+03  0.00000000000E+00 0.  1.
         11    1    5    5    0    0  0.69811435839E+02 -0.94451084755E+02  0.39112823297E+03  0.40838209879E+03  0.00000000000E+00 0. -1.
        -11    1    5    5    0    0  0.20921398494E+03 -0.14196806197E+03  0.55554898363E+03  0.61037701081E+03  0.00000000000E+00 0.  1.
          4    1    6    6  503    0 -0.23096683715E+03  0.36135847589E+03  0.61006373348E+03  0.74572339836E+03  0.00000000000E+00 0. -1.
         -4    1    6    6    0  503 -0.43685673452E+02  0.82503893336E+02  0.22131550758E+03  0.24019967605E+03  0.00000000000E+00 0.  1.
<mgrwt>
<rscale>  0 0.16172967E+04</rscale>
<asrwt>0</asrwt>
<pdfrwt beam="1">  1        4 0.29977419E+00 0.16172967E+04</pdfrwt>
<pdfrwt beam="2">  1       -4 0.51629563E-01 0.16172967E+04</pdfrwt>
<totfact> 0.21527953E-01</totfact>
</mgrwt>
</event>
<event>
12    2  0.3518828E-008  0.1480456E+04  0.7818608E-02  0.8897554E-01
          1   -1    0    0  501    0  0.00000000000E+00  0.00000000000E+00  0.57678350920E+03  0.57678350920E+03  0.00000000000E+00 0. -1.
         -1   -1    0    0    0  501 -0.00000000000E+00 -0.00000000000E+00 -0.94998815255E+03  0.94998815255E+03  0.00000000000E+00 0.  1.
         23    2    1    2    0    0  0.18512711244E+03  0.31083526411E+03 -0.41324034172E+03  0.55555598410E+03  0.83571898788E+02 0.  0.
        254    2    1    2    0    0 -0.18512711244E+03 -0.31083526411E+03  0.40035698359E+02  0.97121567765E+03  0.90042569166E+03 0.  0.
         23    2    4    4    0    0  0.28068798566E+03 -0.36085010913E+03  0.13287166154E+03  0.48480669907E+03  0.91564788346E+02 0.  0.
         23    2    4    4    0    0 -0.46581509810E+03  0.50014845020E+02 -0.92835963185E+02  0.48640897858E+03  0.92141131130E+02 0.  0.
          4    1    3    3  502    0  0.14348178047E+03  0.27495137620E+03 -0.30949782418E+03  0.43814858641E+03  0.00000000000E+00 0.  1.
         -4    1    3    3    0  502  0.41645331970E+02  0.35883887913E+02 -0.10374251754E+03  0.11740739769E+03  0.00000000000E+00 0. -1.
         11    1    5    5    0    0  0.19779867766E+03 -0.24914529662E+03  0.47617599259E+02  0.32165996249E+03  0.00000000000E+00 0.  1.
        -11    1    5    5    0    0  0.82889308007E+02 -0.11170481252E+03  0.85254062286E+02  0.16314673658E+03  0.00000000000E+00 0. -1.
          2    1    6    6  503    0 -0.43571231779E+03  0.26035546225E+02 -0.98616578379E+02  0.44749112067E+03  0.00000000000E+00 0. -1.
         -2    1    6    6    0  503 -0.30102780308E+02  0.23979298795E+02  0.57806151934E+01  0.38917857919E+02  0.00000000000E+00 0.  1.
<mgrwt>
<rscale>  0 0.14804560E+04</rscale>
<asrwt>0</asrwt>
<pdfrwt beam="1">  1        1 0.88735925E-01 0.14804560E+04</pdfrwt>
<pdfrwt beam="2">  1       -1 0.14615202E+00 0.14804560E+04</pdfrwt>
<totfact> 0.13141375E+01</totfact>
</mgrwt>
</event>
<event>
12    2  0.3518828E-008  0.1344874E+04  0.7818608E-02  0.8994718E-01
          2   -1    0    0  501    0  0.00000000000E+00  0.00000000000E+00  0.78366343346E+03  0.78366343346E+03  0.00000000000E+00 0. -1.
         -2   -1    0    0    0  501 -0.00000000000E+00 -0.00000000000E+00 -0.57699682002E+03  0.57699682002E+03  0.00000000000E+00 0.  1.
         23    2    1    2    0    0  0.34345531602E+02  0.15340318975E+03  0.38900646802E+03  0.42940779356E+03  0.91394019746E+02 0.  0.
        254    2    1    2    0    0 -0.34345531602E+02 -0.15340318975E+03 -0.18233985458E+03  0.93125245991E+03  0.89959500185E+03 0.  0.
         23    2    4    4    0    0 -0.42171577147E+03  0.92596230309E+02 -0.13268252824E+03  0.46075432471E+03  0.90948560538E+02 0.  0.
         23    2    4    4    0    0  0.38737023987E+03 -0.24599942006E+03 -0.49657326339E+02  0.47049813520E+03  0.91275559505E+02 0.  0.
          4    1    3    3  502    0 -0.26274828012E+02  0.47180634725E+02  0.74963828329E+02  0.92390229125E+02  0.00000000000E+00 0.  1.
         -4    1    3    3    0  502  0.60620359614E+02  0.10622255502E+03  0.31404263969E+03  0.33701756444E+03  0.00000000000E+00 0. -1.
         11    1    5    5    0    0 -0.10086802190E+03  0.45094650610E+02 -0.68857303171E+02  0.13018914530E+03  0.00000000000E+00 0.  1.
        -11    1    5    5    0    0 -0.32084774958E+03  0.47501579700E+02 -0.63825225071E+02  0.33056517941E+03  0.00000000000E+00 0. -1.
          1    1    6    6  503    0  0.31605255936E+03 -0.15907003208E+03 -0.54267255164E+02  0.35796288965E+03  0.00000000000E+00 0. -1.
         -1    1    6    6    0  503  0.71317680515E+02 -0.86929387979E+02  0.46099288244E+01  0.11253524556E+03  0.00000000000E+00 0.  1.
<mgrwt>
<rscale>  0 0.13448737E+04</rscale>
<asrwt>0</asrwt>
<pdfrwt beam="1">  1        2 0.12056360E+00 0.13448737E+04</pdfrwt>
<pdfrwt beam="2">  1       -2 0.88768742E-01 0.13448737E+04</pdfrwt>
<totfact> 0.37751756E+01</totfact>
</mgrwt>
</event>
<event>
12    2  0.3518828E-008  0.2654619E+04  0.7818608E-02  0.8349882E-01
         -1   -1    0    0    0  501 -0.00000000000E+00  0.00000000000E+00  0.77076585065E+03  0.77076585065E+03  0.00000000000E+00 0.  1.
          1   -1    0    0  501    0  0.00000000000E+00 -0.00000000000E+00 -0.22857140163E+04  0.22857140163E+04  0.00000000000E+00 0. -1.
         23    2    1    2    0    0 -0.13767564892E+03 -0.91821620163E+03  0.15336947381E+03  0.94573415289E+03  0.93889910023E+02 0.  0.
        254    2    1    2    0    0  0.13767564892E+03  0.91821620163E+03 -0.16683176395E+04  0.21107457141E+04  0.89993785680E+03 0.  0.
         23    2    4    4    0    0  0.38467087738E+03  0.73608028228E+03 -0.69658567883E+03  0.10877770887E+04  0.90782822232E+02 0.  0.
         23    2    4    4    0    0 -0.24699522846E+03  0.18213591935E+03 -0.97173196066E+03  0.10229686254E+04  0.89563771916E+02 0.  0.
          2    1    3    3  502    0 -0.33564509009E+02 -0.10414254416E+03  0.43334714678E+02  0.11768663163E+03  0.00000000000E+00 0. -1.
         -2    1    3    3    0  502 -0.10411113991E+03 -0.81407365747E+03  0.11003475913E+03  0.82804752125E+03  0.00000000000E+00 0.  1.
         11    1    5    5    0    0  0.62702371757E+02  0.12608730919E+03 -0.16519972019E+03  0.21707267104E+03  0.00000000000E+00 0. -1.
        -11    1    5    5    0    0  0.32196850563E+03  0.60999297309E+03 -0.53138595865E+03  0.87070441763E+03  0.00000000000E+00 0.  1.
          1    1    6    6  503    0 -0.19538067375E+03  0.17508107124E+03 -0.73064811373E+03  0.77632058795E+03  0.00000000000E+00 0. -1.
         -1    1    6    6    0  503 -0.51614554717E+02  0.70548481106E+01 -0.24108384692E+03  0.24664803747E+03  0.00000000000E+00 0.  1.
<mgrwt>
<rscale>  0 0.26546188E+04</rscale>
<asrwt>0</asrwt>
<pdfrwt beam="1">  1        1 0.35164831E+00 0.26546188E+04</pdfrwt>
<pdfrwt beam="2">  1       -1 0.11857936E+00 0.26546188E+04</pdfrwt>
<totfact> 0.10632608E+00</totfact>
</mgrwt>
</event>
<event>
12    2  0.3518828E-008  0.1957668E+04  0.7818608E-02  0.8626672E-01
          2   -1    0    0  501    0  0.00000000000E+00  0.00000000000E+00  0.10644689520E+04  0.10644689520E+04  0.00000000000E+00 0. -1.
         -2   -1    0    0    0  501 -0.00000000000E+00 -0.00000000000E+00 -0.90008786608E+03  0.90008786608E+03  0.00000000000E+00 0.  1.
         23    2    1    2    0    0  0.67841155343E+03 -0.20313954061E+03 -0.23429528532E+03  0.75169121689E+03  0.92938130194E+02 0.  0.
        254    2    1    2    0    0 -0.67841155343E+03  0.20313954061E+03  0.39867637127E+03  0.12128656012E+04  0.90032894480E+03 0.  0.
         23    2    4    4    0    0 -0.54220735301E+03 -0.16662044224E+03 -0.86889753487E+02  0.58089529500E+03  0.90212687904E+02 0.  0.
         23    2    4    4    0    0 -0.13620420042E+03  0.36975998285E+03  0.48556612476E+03  0.63197030622E+03  0.91312525455E+02 0.  0.
          1    1    3    3  502    0  0.68373730389E+02 -0.65262203674E+01  0.16460478677E+01  0.68704206808E+02  0.00000000000E+00 0. -1.
         -1    1    3    3    0  502  0.61003782304E+03 -0.19661332025E+03 -0.23594133319E+03  0.68298701009E+03  0.00000000000E+00 0.  1.
         11    1    5    5    0    0 -0.14485324642E+03 -0.26713234460E+02  0.13252892820E+02  0.14789083495E+03  0.00000000000E+00 0. -1.
        -11    1    5    5    0    0 -0.39735410659E+03 -0.13990720778E+03 -0.10014264631E+03  0.43300446005E+03  0.00000000000E+00 0.  1.
          2    1    6    6  503    0 -0.43079636188E+02  0.11702063778E+03  0.91585997485E+02  0.15471806506E+03  0.00000000000E+00 0. -1.
         -2    1    6    6    0  503 -0.93124564229E+02  0.25273934508E+03  0.39398012727E+03  0.47725224117E+03  0.00000000000E+00 0.  1.
<mgrwt>
<rscale>  0 0.19576676E+04</rscale>
<asrwt>0</asrwt>
<pdfrwt beam="1">  1        2 0.16376445E+00 0.19576676E+04</pdfrwt>
<pdfrwt beam="2">  1       -2 0.13847506E+00 0.19576676E+04</pdfrwt>
<totfact> 0.78969349E+00</totfact>
</mgrwt>
</event>
<event>
12    2  0.3518828E-008  0.1675883E+04  0.7818608E-02  0.8775240E-01
         -2   -1    0    0    0  501 -0.00000000000E+00  0.00000000000E+00  0.60500138974E+03  0.60500138974E+03  0.00000000000E+00 0.  1.
          2   -1    0    0  501    0  0.00000000000E+00 -0.00000000000E+00 -0.11605694275E+04  0.11605694275E+04  0.00000000000E+00 0. -1.
         23    2    1    2    0    0  0.29569332939E+03 -0.36174988366E+03  0.18460310826E+03  0.51054486523E+03  0.90995760627E+02 0.  0.
        254    2    1    2    0    0 -0.29569332939E+03  0.36174988366E+03 -0.74017114600E+03  0.12550259520E+04  0.89941052441E+03 0.  0.
         23    2    4    4    0    0  0.10570889876E+03 -0.93756557917E+02  0.11411281866E+03  0.20304573085E+03  0.90780890089E+02 0.  0.
         23    2    4    4    0    0 -0.40140222816E+03  0.45550644158E+03 -0.85428396465E+03  0.10519802211E+04  0.90837361821E+02 0.  0.
          3    1    3    3  502    0  0.24409434976E+03 -0.27329786274E+03  0.17944555990E+03  0.40801284579E+03  0.00000000000E+00 0.  1.
         -3    1    3    3    0  502  0.51598979633E+02 -0.88452020919E+02  0.51575483619E+01  0.10253201943E+03  0.00000000000E+00 0. -1.
         11    1    5    5    0    0  0.87833522802E+02 -0.67942124540E+02  0.32655897006E+02  0.11574656636E+03  0.00000000000E+00 0. -1.
        -11    1    5    5    0    0  0.17875375961E+02 -0.25814433377E+02  0.81456921651E+02  0.87299164493E+02  0.00000000000E+00 0.  1.
          4    1    6    6  503    0 -0.21320619251E+03  0.25353330736E+03 -0.38874491691E+03  0.51074321228E+03  0.00000000000E+00 0. -1.
         -4    1    6    6    0  503 -0.18819603564E+03  0.20197313422E+03 -0.46553904775E+03  0.54123700886E+03  0.00000000000E+00 0.  1.
<mgrwt>
<rscale>  0 0.16758832E+04</rscale>
<asrwt>0</asrwt>
<pdfrwt beam="1">  1        2 0.17854914E+00 0.16758832E+04</pdfrwt>
<pdfrwt beam="2">  1       -2 0.93077137E-01 0.16758832E+04</pdfrwt>
<totfact> 0.18646768E+01</totfact>
</mgrwt>
</event>
<event>
12    2  0.3518828E-008  0.2487090E+04  0.7818608E-02  0.8407599E-01
          2   -1    0    0  501    0  0.00000000000E+00  0.00000000000E+00  0.15025324236E+04  0.15025324236E+04  0.00000000000E+00 0. -1.
         -2   -1    0    0    0  501 -0.00000000000E+00 -0.00000000000E+00 -0.10291981910E+04  0.10291981910E+04  0.00000000000E+00 0.  1.
         23    2    1    2    0    0  0.37594994275E+03 -0.10065668772E+04  0.11950164987E+03  0.10855743119E+04  0.98365159277E+02 0.  0.
        254    2    1    2    0    0 -0.37594994275E+03  0.10065668772E+04  0.35383258270E+03  0.14461563026E+04  0.90091915133E+03 0.  0.
         23    2    4    4    0    0 -0.24977237176E+03 -0.90444191868E+02  0.15259779525E+03  0.32012498972E+03  0.92884511025E+02 0.  0.
         23    2    4    4    0    0 -0.12617757099E+03  0.10970110691E+04  0.20123478744E+03  0.11260313129E+04  0.89983402877E+02 0.  0.
          1    1    3    3  502    0  0.25650746206E+02 -0.93685292241E+02  0.38343420444E+02  0.10442754739E+03  0.00000000000E+00 0. -1.
         -1    1    3    3    0  502  0.35029919654E+03 -0.91288158501E+03  0.81158229422E+02  0.98114676453E+03  0.00000000000E+00 0.  1.
         11    1    5    5    0    0 -0.61706813083E+02 -0.34086002308E+02  0.89452050925E+02  0.11389142087E+03  0.00000000000E+00 0. -1.
        -11    1    5    5    0    0 -0.18806555868E+03 -0.56358189561E+02  0.63145744330E+02  0.20623356884E+03  0.00000000000E+00 0.  1.
          4    1    6    6  503    0 -0.47877898589E+02  0.15856609873E+03  0.17381733273E+02  0.16654616625E+03  0.00000000000E+00 0. -1.
         -4    1    6    6    0  503 -0.78299672396E+02  0.93844497039E+03  0.18385305417E+03  0.95948514666E+03  0.00000000000E+00 0.  1.
<mgrwt>
<rscale>  0 0.24870896E+04</rscale>
<asrwt>0</asrwt>
<pdfrwt beam="1">  1        2 0.23115883E+00 0.24870896E+04</pdfrwt>
<pdfrwt beam="2">  1       -2 0.15833818E+00 0.24870896E+04</pdfrwt>
<totfact> 0.29278526E+00</totfact>
</mgrwt>
</event>
<event>
12    2  0.3518828E-008  0.1978148E+04  0.7818608E-02  0.8616906E-01
          2   -1    0    0  501    0  0.00000000000E+00  0.00000000000E+00  0.28973760037E+04  0.28973760037E+04  0.00000000000E+00 0. -1.
         -2   -1    0    0    0  501 -0.00000000000E+00 -0.00000000000E+00 -0.33763924538E+03  0.33763924538E+03  0.00000000000E+00 0.  1.
         23    2    1    2    0    0  0.29621523813E+03  0.10405801919E+03  0.22087309640E+04  0.22325239749E+04  0.84257275402E+02 0.  0.
        254    2    1    2    0    0 -0.29621523813E+03 -0.10405801919E+03  0.35100579434E+03  0.10024912742E+04  0.88499273927E+03 0.  0.
         23    2    4    4    0    0 -0.42941250133E+03 -0.39184997784E+03  0.32019538279E+03  0.67037526844E+03  0.94532618386E+02 0.  0.
         23    2    4    4    0    0  0.13319726320E+03  0.28779195865E+03  0.30810411550E+02  0.33211600578E+03  0.93733864973E+02 0.  0.
          1    1    3    3  502    0  0.29617829623E+03  0.11027407712E+03  0.21034768386E+04  0.21270864500E+04  0.00000000000E+00 0. -1.
         -1    1    3    3    0  502  0.36941896159E-01 -0.62160579272E+01  0.10525412541E+03  0.10543752490E+03  0.00000000000E+00 0.  1.
         11    1    5    5    0    0 -0.38565000986E+03 -0.37604620145E+03  0.31386943701E+03  0.62341855861E+03  0.00000000000E+00 0. -1.
        -11    1    5    5    0    0 -0.43762491470E+02 -0.15803776391E+02  0.63259457834E+01  0.46956709828E+02  0.00000000000E+00 0.  1.
          1    1    6    6  503    0  0.13746256509E+03  0.20867742102E+03  0.37161008098E+02  0.25263246697E+03  0.00000000000E+00 0. -1.
         -1    1    6    6    0  503 -0.42653018835E+01  0.79114537628E+02 -0.63505965476E+01  0.79483538804E+02  0.00000000000E+00 0.  1.
<mgrwt>
<rscale>  0 0.19781485E+04</rscale>
<asrwt>0</asrwt>
<pdfrwt beam="1">  1        2 0.44575014E+00 0.19781485E+04</pdfrwt>
<pdfrwt beam="2">  1       -2 0.51944501E-01 0.19781485E+04</pdfrwt>
<totfact> 0.65811780E+00</totfact>
</mgrwt>
</event>
<event>
12    2  0.3518828E-008  0.1488363E+04  0.7818608E-02  0.8892228E-01
          4   -1    0    0  501    0  0.00000000000E+00  0.00000000000E+00  0.12873163378E+04  0.12873163378E+04  0.00000000000E+00 0. -1.
         -4   -1    0    0    0  501 -0.00000000000E+00 -0.00000000000E+00 -0.43020231540E+03  0.43020231540E+03  0.00000000000E+00 0.  1.
         23    2    1    2    0    0  0.58423903662E+02 -0.33441630368E+03  0.62981397103E+03  0.72353875263E+03  0.10768041494E+03 0.  0.
        254    2    1    2    0    0 -0.58423903662E+02  0.33441630368E+03  0.22730005139E+03  0.99397990060E+03  0.90613636542E+03 0.  0.
         23    2    4    4    0    0 -0.10835549135E+03 -0.24356845850E+03 -0.12575346001E+03  0.30869225661E+03  0.91708615209E+02 0.  0.
         23    2    4    4    0    0  0.49931587692E+02  0.57798476218E+03  0.35305351140E+03  0.68528764399E+03  0.91721449637E+02 0.  0.
          1    1    3    3  502    0  0.21529071248E+02 -0.28230749249E+03  0.56808650909E+03  0.63473089024E+03  0.00000000000E+00 0. -1.
         -1    1    3    3    0  502  0.36894832414E+02 -0.52108811198E+02  0.61727461942E+02  0.88807862383E+02  0.00000000000E+00 0.  1.
         11    1    5    5    0    0 -0.96177637830E+02 -0.10703632022E+03 -0.51780509414E+02  0.15293179205E+03  0.00000000000E+00 0. -1.
        -11    1    5    5    0    0 -0.12177853525E+02 -0.13653213828E+03 -0.73972950596E+02  0.15576046456E+03  0.00000000000E+00 0.  1.
          3    1    6    6  503    0  0.31833111739E+02  0.53287457840E+02  0.43755251383E+02  0.75943546070E+02  0.00000000000E+00 0. -1.
         -3    1    6    6    0  503  0.18098475953E+02  0.52469730434E+03  0.30929826001E+03  0.60934409792E+03  0.00000000000E+00 0.  1.
<mgrwt>
<rscale>  0 0.14883635E+04</rscale>
<asrwt>0</asrwt>
<pdfrwt beam="1">  1        4 0.19804867E+00 0.14883635E+04</pdfrwt>
<pdfrwt beam="2">  1       -4 0.66184972E-01 0.14883635E+04</pdfrwt>
<totfact> 0.55543373E-01</totfact>
</mgrwt>
</event>
<event>
12    2  0.3518828E-008  0.1691172E+04  0.7818608E-02  0.8766415E-01
         -1   -1    0    0    0  501 -0.00000000000E+00  0.00000000000E+00  0.89577878025E+03  0.89577878025E+03  0.00000000000E+00 0.  1.
          1   -1    0    0  501    0  0.00000000000E+00 -0.00000000000E+00 -0.79820586563E+03  0.79820586563E+03  0.00000000000E+00 0. -1.
         23    2    1    2    0    0  0.49452451278E+02 -0.14750957194E+03  0.62033266115E+03  0.64436938112E+03  0.78706226490E+02 0.  0.
        254    2    1    2    0    0 -0.49452451278E+02  0.14750957194E+03 -0.52275974652E+03  0.10496152648E+04  0.89677747110E+03 0.  0.
         23    2    4    4    0    0  0.40908455337E+03  0.10399998927E+01 -0.23008120518E+03  0.47844029360E+03  0.92825105200E+02 0.  0.
         23    2    4    4    0    0 -0.45853700465E+03  0.14646957205E+03 -0.29267854134E+03  0.57117497116E+03  0.94183857147E+02 0.  0.
          3    1    3    3  502    0  0.18625504551E+02  0.89257784798E+00  0.34164822491E+02  0.38922245706E+02  0.00000000000E+00 0. -1.
         -3    1    3    3    0  502  0.30826946727E+02 -0.14840214979E+03  0.58616783865E+03  0.60544713541E+03  0.00000000000E+00 0.  1.
         11    1    5    5    0    0  0.52240256638E+02 -0.11876043717E+02 -0.67270837220E+02  0.85996804408E+02  0.00000000000E+00 0. -1.
        -11    1    5    5    0    0  0.35684429673E+03  0.12916043610E+02 -0.16281036796E+03  0.39244348919E+03  0.00000000000E+00 0.  1.
          3    1    6    6  503    0 -0.32225287724E+03  0.89304728511E+02 -0.15268035999E+03  0.36760514653E+03  0.00000000000E+00 0. -1.
         -3    1    6    6    0  503 -0.13628412741E+03  0.57164843541E+02 -0.13999818135E+03  0.20356982463E+03  0.00000000000E+00 0.  1.
<mgrwt>
<rscale>  0 0.16911722E+04</rscale>
<asrwt>0</asrwt>
<pdfrwt beam="1">  1        1 0.12280090E+00 0.16911722E+04</pdfrwt>
<pdfrwt beam="2">  1       -1 0.13781212E+00 0.16911722E+04</pdfrwt>
<totfact> 0.92305989E+00</totfact>
</mgrwt>
</event>
<event>
12    2  0.3518828E-008  0.1337587E+04  0.7818608E-02  0.9000278E-01
          1   -1    0    0  501    0  0.00000000000E+00  0.00000000000E+00  0.14347211690E+04  0.14347211690E+04  0.00000000000E+00 0. -1.
         -1   -1    0    0    0  501 -0.00000000000E+00 -0.00000000000E+00 -0.31175728793E+03  0.31175728793E+03  0.00000000000E+00 0.  1.
         23    2    1    2    0    0 -0.40600983794E+02 -0.35168074531E+03  0.27136775895E+03  0.45484147628E+03  0.88952354898E+02 0.  0.
        254    2    1    2    0    0  0.40600983794E+02  0.35168074531E+03  0.85159612213E+03  0.12916369807E+04  0.90431319137E+03 0.  0.
         23    2    4    4    0    0 -0.17135417222E+03 -0.24472926081E+03  0.40151946119E+03  0.50965163278E+03  0.96292500481E+02 0.  0.
         23    2    4    4    0    0  0.21195515601E+03  0.59641000612E+03  0.45007666094E+03  0.78198534788E+03  0.91116409229E+02 0.  0.
          2    1    3    3  502    0 -0.56553894175E+02 -0.17149714216E+03  0.16721659453E+03  0.24611176771E+03  0.00000000000E+00 0. -1.
         -2    1    3    3    0  502  0.15952910381E+02 -0.18018360315E+03  0.10415116442E+03  0.20872970858E+03  0.00000000000E+00 0.  1.
         11    1    5    5    0    0 -0.30092161531E+02 -0.10170078861E+03  0.91042834816E+02  0.13977620098E+03  0.00000000000E+00 0.  1.
        -11    1    5    5    0    0 -0.14126201068E+03 -0.14302847219E+03  0.31047662637E+03  0.36987543180E+03  0.00000000000E+00 0. -1.
          4    1    6    6  503    0  0.21963912732E+03  0.56225821078E+03  0.43403217472E+03  0.74347802290E+03  0.00000000000E+00 0. -1.
         -4    1    6    6    0  503 -0.76839713090E+01  0.34151795334E+02  0.16044486221E+02  0.38507324988E+02  0.00000000000E+00 0.  1.
<mgrwt>
<rscale>  0 0.13375871E+04</rscale>
<asrwt>0</asrwt>
<pdfrwt beam="1">  1        1 0.22072633E+00 0.13375871E+04</pdfrwt>
<pdfrwt beam="2">  1       -1 0.47962660E-01 0.13375871E+04</pdfrwt>
<totfact> 0.30910035E+01</totfact>
</mgrwt>
</event>
<event>
12    2  0.3518828E-008  0.1618759E+04  0.7818608E-02  0.8809106E-01
          2   -1    0    0  501    0  0.00000000000E+00  0.00000000000E+00  0.21773258424E+04  0.21773258424E+04  0.00000000000E+00 0. -1.
         -2   -1    0    0    0  501 -0.00000000000E+00 -0.00000000000E+00 -0.30087143078E+03  0.30087143078E+03  0.00000000000E+00 0.  1.
         23    2    1    2    0    0  0.14841461277E+03  0.53015956624E+03  0.59064347096E+03  0.81266564819E+03  0.92030880635E+02 0.  0.
        254    2    1    2    0    0 -0.14841461277E+03 -0.53015956624E+03  0.12858109406E+04  0.16655316250E+04  0.90420669968E+03 0.  0.
         23    2    4    4    0    0  0.24973420621E+02  0.17803106704E+03  0.68586482072E+03  0.71643913512E+03  0.10274117706E+03 0.  0.
         23    2    4    4    0    0 -0.17338803339E+03 -0.70819063328E+03  0.59994611991E+03  0.94909248984E+03  0.96144808978E+02 0.  0.
          2    1    3    3  502    0  0.78067319086E+02  0.32985292395E+03  0.42360497974E+03  0.54252984859E+03  0.00000000000E+00 0. -1.
         -2    1    3    3    0  502  0.70347293682E+02  0.20030664230E+03  0.16703849122E+03  0.27013579960E+03  0.00000000000E+00 0.  1.
         11    1    5    5    0    0  0.29895840433E+02  0.18201662583E+02  0.51761746710E+02  0.62484719880E+02  0.00000000000E+00 0.  1.
        -11    1    5    5    0    0 -0.49224198119E+01  0.15982940445E+03  0.63410307401E+03  0.65395441524E+03  0.00000000000E+00 0. -1.
          3    1    6    6  503    0 -0.13979797643E+03 -0.63562518272E+03  0.49780041987E+03  0.81937055424E+03  0.00000000000E+00 0. -1.
         -3    1    6    6    0  503 -0.33590056955E+02 -0.72565450555E+02  0.10214570004E+03  0.12972193561E+03  0.00000000000E+00 0.  1.
<mgrwt>
<rscale>  0 0.16187590E+04</rscale>
<asrwt>0</asrwt>
<pdfrwt beam="1">  1        2 0.33497320E+00 0.16187590E+04</pdfrwt>
<pdfrwt beam="2">  1       -2 0.46287914E-01 0.16187590E+04</pdfrwt>
<totfact> 0.22547641E+01</totfact>
</mgrwt>
</event>
<event>
12    2  0.3518828E-008  0.1335808E+04  0.7818608E-02  0.9001641E-01
         -1   -1    0    0    0  501 -0.00000000000E+00  0.00000000000E+00  0.56332303054E+03  0.56332303054E+03  0.00000000000E+00 0.  1.
          1   -1    0    0  501    0  0.00000000000E+00 -0.00000000000E+00 -0.79190081216E+03  0.79190081216E+03  0.00000000000E+00 0. -1.
         23    2    1    2    0    0 -0.27131541143E+03  0.20524392276E+03  0.19907471521E+02  0.35291128928E+03  0.91722136750E+02 0.  0.
        254    2    1    2    0    0  0.27131541143E+03 -0.20524392276E+03 -0.24848525314E+03  0.10023125534E+04  0.90947699993E+03 0.  0.
         23    2    4    4    0    0  0.23127249116E+03  0.69789519245E+02 -0.53467609473E+03  0.59363801904E+03  0.90388213845E+02 0.  0.
         23    2    4    4    0    0  0.40042920267E+02 -0.27503344201E+03  0.28619084159E+03  0.40867453438E+03  0.88672699052E+02 0.  0.
          1    1    3    3  502    0 -0.65303040056E+02  0.45684521140E+02 -0.34285706347E+02  0.86758700844E+02  0.00000000000E+00 0. -1.
         -1    1    3    3    0  502 -0.20601237137E+03  0.15955940162E+03  0.54193177867E+02  0.26615258844E+03  0.00000000000E+00 0.  1.
         11    1    5    5    0    0  0.21192451898E+03  0.62876312421E+02 -0.39663015913E+03  0.45407148726E+03  0.00000000000E+00 0. -1.
        -11    1    5    5    0    0  0.19347972180E+02  0.69132068244E+01 -0.13804593560E+03  0.13956653178E+03  0.00000000000E+00 0.  1.
          1    1    6    6  503    0 -0.68500155190E+01 -0.21305347554E+03  0.22315451641E+03  0.30860434920E+03  0.00000000000E+00 0. -1.
         -1    1    6    6    0  503  0.46892935786E+02 -0.61979966471E+02  0.63036325176E+02  0.10007018518E+03  0.00000000000E+00 0.  1.
<mgrwt>
<rscale>  0 0.13358083E+04</rscale>
<asrwt>0</asrwt>
<pdfrwt beam="1">  1        1 0.12183089E+00 0.13358083E+04</pdfrwt>
<pdfrwt beam="2">  1       -1 0.86665081E-01 0.13358083E+04</pdfrwt>
<totfact> 0.28914433E+01</totfact>
</mgrwt>
</event>
<event>
12    2  0.3518828E-008  0.1149142E+04  0.7818608E-02  0.9158575E-01
         -1   -1    0    0    0  501 -0.00000000000E+00  0.00000000000E+00  0.17992209534E+03  0.17992209534E+03  0.00000000000E+00 0.  1.
          1   -1    0    0  501    0  0.00000000000E+00 -0.00000000000E+00 -0.18348610580E+04  0.18348610580E+04  0.00000000000E+00 0. -1.
         23    2    1    2    0    0  0.12790795086E+03 -0.76113543940E+02 -0.63473368268E+02  0.18582050237E+03  0.91360139871E+02 0.  0.
        254    2    1    2    0    0 -0.12790795086E+03  0.76113543940E+02 -0.15914655944E+04  0.18289626509E+04  0.88892515155E+03 0.  0.
         23    2    4    4    0    0 -0.16771320997E+03  0.13491887114E+03 -0.16721011251E+04  0.16883784260E+04  0.91480677608E+02 0.  0.
         23    2    4    4    0    0  0.39805259112E+02 -0.58805327199E+02  0.80635530698E+02  0.14058422494E+03  0.90660412154E+02 0.  0.
          3    1    3    3  502    0  0.28013104597E+01  0.38571835724E+01  0.16497169987E+02  0.17172123427E+02  0.00000000000E+00 0. -1.
         -3    1    3    3    0  502  0.12510664040E+03 -0.79970727512E+02 -0.79970538255E+02  0.16864837894E+03  0.00000000000E+00 0.  1.
         11    1    5    5    0    0 -0.84916804166E+02  0.74410665960E+02 -0.11982424269E+04  0.12035500507E+04  0.00000000000E+00 0.  1.
        -11    1    5    5    0    0 -0.82796405808E+02  0.60508205178E+02 -0.47385869817E+03  0.48482837535E+03  0.00000000000E+00 0. -1.
          3    1    6    6  503    0  0.65378929274E+02 -0.41305625605E+02  0.33736658491E+02  0.84372514635E+02  0.00000000000E+00 0. -1.
         -3    1    6    6    0  503 -0.25573670163E+02 -0.17499701594E+02  0.46898872207E+02  0.56211710308E+02  0.00000000000E+00 0.  1.
<mgrwt>
<rscale>  0 0.11491424E+04</rscale>
<asrwt>0</asrwt>
<pdfrwt beam="1">  1        1 0.28228633E+00 0.11491424E+04</pdfrwt>
<pdfrwt beam="2">  1       -1 0.27680321E-01 0.11491424E+04</pdfrwt>
<totfact> 0.45059713E+01</totfact>
</mgrwt>
</event>
<event>
12    2  0.3518828E-008  0.1412755E+04  0.7818608E-02  0.8944637E-01
          2   -1    0    0  501    0  0.00000000000E+00  0.00000000000E+00  0.16847973795E+04  0.16847973795E+04  0.00000000000E+00 0.  1.
         -2   -1    0    0    0  501 -0.00000000000E+00 -0.00000000000E+00 -0.29615994106E+03  0.29615994106E+03  0.00000000000E+00 0. -1.
         23    2    1    2    0    0 -0.15531773573E+03 -0.13209942609E+03 -0.84876097612E+02  0.24172019172E+03  0.98238697726E+02 0.  0.
        254    2    1    2    0    0  0.15531773573E+03  0.13209942609E+03  0.14735135360E+04  0.17392371288E+04  0.90118244101E+03 0.  0.
         23    2    4    4    0    0 -0.32978444520E+03  0.15151198820E+03  0.35215608049E+03  0.51396975336E+03  0.91854991614E+02 0.  0.
         23    2    4    4    0    0  0.48510218093E+03 -0.19412562111E+02  0.11213574555E+04  0.12252673754E+04  0.90203241316E+02 0.  0.
          1    1    3    3  502    0 -0.16534704495E+03 -0.10937903811E+03 -0.61389963366E+02  0.20753830213E+03  0.00000000000E+00 0. -1.
         -1    1    3    3    0  502  0.10029309218E+02 -0.22720387986E+02 -0.23486134245E+02  0.34181889582E+02  0.00000000000E+00 0.  1.
         11    1    5    5    0    0 -0.93942328250E+02  0.54714908651E+02  0.16548078038E+03  0.19799689629E+03  0.00000000000E+00 0. -1.
        -11    1    5    5    0    0 -0.23584211695E+03  0.96797079553E+02  0.18667530011E+03  0.31597285707E+03  0.00000000000E+00 0.  1.
          3    1    6    6  503    0  0.42732617900E+03  0.77441040868E+01  0.10135153318E+04  0.10999458906E+04  0.00000000000E+00 0.  1.
         -3    1    6    6    0  503  0.57776001934E+02 -0.27156666198E+02  0.10784212371E+03  0.12532148485E+03  0.00000000000E+00 0. -1.
<mgrwt>
<rscale>  0 0.14127555E+04</rscale>
<asrwt>0</asrwt>
<pdfrwt beam="1">  1        2 0.25919959E+00 0.14127555E+04</pdfrwt>
<pdfrwt beam="2">  1       -2 0.45563069E-01 0.14127555E+04</pdfrwt>
<totfact> 0.44411920E+01</totfact>
</mgrwt>
</event>
<event>
12    2  0.3518828E-008  0.1054293E+04  0.7818608E-02  0.9250923E-01
          2   -1    0    0  501    0  0.00000000000E+00  0.00000000000E+00  0.42601722689E+04  0.42601722689E+04  0.00000000000E+00 0.  1.
         -2   -1    0    0    0  501 -0.00000000000E+00 -0.00000000000E+00 -0.65228216848E+02  0.65228216848E+02  0.00000000000E+00 0. -1.
         23    2    1    2    0    0  0.43501351673E+02 -0.49247085736E+02  0.95838663688E+03  0.96486993979E+03  0.90285169886E+02 0.  0.
        254    2    1    2    0    0 -0.43501351673E+02  0.49247085736E+02  0.32365574152E+04  0.33605305460E+04  0.90196674307E+03 0.  0.
         23    2    4    4    0    0 -0.40629008401E+02 -0.39260959253E+03  0.10028352266E+04  0.10815188578E+04  0.90617546643E+02 0.  0.
         23    2    4    4    0    0 -0.28723432724E+01  0.44185667827E+03  0.22337221886E+04  0.22790116881E+04  0.95571356692E+02 0.  0.
          1    1    3    3  502    0 -0.13587244742E+02 -0.62527698434E+01  0.28017435525E+02  0.31759833812E+02  0.00000000000E+00 0. -1.
         -1    1    3    3    0  502  0.57088596415E+02 -0.42994315893E+02  0.93036920136E+03  0.93311010598E+03  0.00000000000E+00 0.  1.
         11    1    5    5    0    0  0.46999243713E+01 -0.16289122526E+03  0.31056461114E+03  0.35072213823E+03  0.00000000000E+00 0. -1.
        -11    1    5    5    0    0 -0.45328932772E+02 -0.22971836727E+03  0.69227061543E+03  0.73079671962E+03  0.00000000000E+00 0.  1.
          2    1    6    6  503    0 -0.23272296354E+02  0.10744829568E+03  0.74415099846E+03  0.75222831942E+03  0.00000000000E+00 0. -1.
         -2    1    6    6    0  503  0.20399953081E+02  0.33440838259E+03  0.14895711901E+04  0.15267833687E+04  0.00000000000E+00 0.  1.
<mgrwt>
<rscale>  0 0.10542930E+04</rscale>
<asrwt>0</asrwt>
<pdfrwt beam="1">  1        2 0.65541090E+00 0.10542930E+04</pdfrwt>
<pdfrwt beam="2">  1       -2 0.10035114E-01 0.10542930E+04</pdfrwt>
<totfact> 0.14920503E+01</totfact>
</mgrwt>
</event>
<event>
12    2  0.3518828E-008  0.1893915E+04  0.7818608E-02  0.8657891E-01
         -1   -1    0    0    0  501 -0.00000000000E+00  0.00000000000E+00  0.62639648966E+03  0.62639648966E+03  0.00000000000E+00 0.  1.
          1   -1    0    0  501    0  0.00000000000E+00 -0.00000000000E+00 -0.14315670701E+04  0.14315670701E+04  0.00000000000E+00 0. -1.
         23    2    1    2    0    0  0.58582384043E+03  0.19248832474E+03 -0.73337624933E+03  0.96285139106E+03  0.94872287852E+02 0.  0.
        254    2    1    2    0    0 -0.58582384043E+03 -0.19248832474E+03 -0.71794331130E+02  0.10951121687E+04  0.90215015874E+03 0.  0.
         23    2    4    4    0    0  0.11259481840E+03 -0.33121154415E+03  0.57346921010E+02  0.36551043636E+03  0.89053521166E+02 0.  0.
         23    2    4    4    0    0 -0.69841865883E+03  0.13872321941E+03 -0.12914125214E+03  0.72960173236E+03  0.92781842250E+02 0.  0.
          4    1    3    3  502    0  0.16597177698E+03  0.63470589095E+02 -0.14953645965E+03  0.23224189802E+03  0.00000000000E+00 0.  1.
         -4    1    3    3    0  502  0.41985206345E+03  0.12901773564E+03 -0.58383978968E+03  0.73060949304E+03  0.00000000000E+00 0. -1.
         11    1    5    5    0    0  0.14564668229E+02 -0.75946954551E+02 -0.22700196729E+02  0.80593848386E+02  0.00000000000E+00 0.  1.
        -11    1    5    5    0    0  0.98030150170E+02 -0.25526458959E+03  0.80047117739E+02  0.28491658797E+03  0.00000000000E+00 0. -1.
          3    1    6    6  503    0 -0.24272332977E+03  0.70707952163E+01 -0.26271477822E+02  0.24424332438E+03  0.00000000000E+00 0. -1.
         -3    1    6    6    0  503 -0.45569532906E+03  0.13165242419E+03 -0.10286977432E+03  0.48535840797E+03  0.00000000000E+00 0.  1.
<mgrwt>
<rscale>  0 0.18939151E+04</rscale>
<asrwt>0</asrwt>
<pdfrwt beam="1">  1        1 0.22024109E+00 0.18939151E+04</pdfrwt>
<pdfrwt beam="2">  1       -1 0.96368691E-01 0.18939151E+04</pdfrwt>
<totfact> 0.70856465E+00</totfact>
</mgrwt>
</event>
<event>
12    2  0.3518828E-008  0.1361156E+04  0.7818608E-02  0.8982426E-01
         -1   -1    0    0    0  501 -0.00000000000E+00  0.00000000000E+00  0.77480371950E+03  0.77480371950E+03  0.00000000000E+00 0. -1.
          1   -1    0    0  501    0  0.00000000000E+00 -0.00000000000E+00 -0.59781148055E+03  0.59781148055E+03  0.00000000000E+00 0.  1.
         23    2    1    2    0    0 -0.78242910818E+01  0.13794699790E+03 -0.30178421593E+03  0.34423960561E+03  0.91304979730E+02 0.  0.
        254    2    1    2    0    0  0.78242910818E+01 -0.13794699790E+03  0.47877645488E+03  0.10283755944E+04  0.89957705381E+03 0.  0.
         23    2    4    4    0    0 -0.16354537464E+03 -0.47761093322E+03  0.32943655605E+03  0.60974588754E+03  0.91664114071E+02 0.  0.
         23    2    4    4    0    0  0.17136966572E+03  0.33966393532E+03  0.14933989883E+03  0.41862970691E+03  0.90605048642E+02 0.  0.
          4    1    3    3  502    0  0.87823108599E+01  0.93291442071E+02 -0.10055492278E+03  0.13744713399E+03  0.00000000000E+00 0.  1.
         -4    1    3    3    0  502 -0.16606601942E+02  0.44655555829E+02 -0.20122929315E+03  0.20679247161E+03  0.00000000000E+00 0. -1.
         11    1    5    5    0    0 -0.57582431976E+02 -0.80816643177E+02  0.38501713693E+02  0.10643988089E+03  0.00000000000E+00 0.  1.
        -11    1    5    5    0    0 -0.10596294266E+03 -0.39679429004E+03  0.29093484236E+03  0.50330600664E+03  0.00000000000E+00 0. -1.
          3    1    6    6  503    0  0.88881433763E+02  0.26486908969E+03  0.11475374513E+03  0.30203305442E+03  0.00000000000E+00 0. -1.
         -3    1    6    6    0  503  0.82488231956E+02  0.74794845631E+02  0.34586153692E+02  0.11659665249E+03  0.00000000000E+00 0.  1.
<mgrwt>
<rscale>  0 0.13611562E+04</rscale>
<asrwt>0</asrwt>
<pdfrwt beam="1">  1        1 0.91970997E-01 0.13611562E+04</pdfrwt>
<pdfrwt beam="2">  1       -1 0.11920057E+00 0.13611562E+04</pdfrwt>
<totfact> 0.21198262E+01</totfact>
</mgrwt>
</event>
<event>
12    2  0.3518828E-008  0.1423197E+04  0.7818608E-02  0.8937196E-01
          1   -1    0    0  501    0  0.00000000000E+00  0.00000000000E+00  0.44764069608E+03  0.44764069608E+03  0.00000000000E+00 0. -1.
         -1   -1    0    0    0  501 -0.00000000000E+00 -0.00000000000E+00 -0.11312035145E+04  0.11312035145E+04  0.00000000000E+00 0.  1.
         23    2    1    2    0    0  0.23783601396E+03 -0.52124934568E+01  0.18041024569E+03  0.31447021566E+03  0.98744722199E+02 0.  0.
        254    2    1    2    0    0 -0.23783601396E+03  0.52124934568E+01 -0.86397306409E+03  0.12643739949E+04  0.89196356647E+03 0.  0.
         23    2    4    4    0    0 -0.45957057502E+03 -0.10025828811E+03 -0.88001773680E+03  0.10020645512E+04  0.91898367176E+02 0.  0.
         23    2    4    4    0    0  0.22173456106E+03  0.10547078156E+03  0.16044672713E+02  0.26230944373E+03  0.90876352348E+02 0.  0.
          4    1    3    3  502    0  0.16236417221E+03  0.42860545041E+02  0.11230516444E+03  0.20201881274E+03  0.00000000000E+00 0. -1.
         -4    1    3    3    0  502  0.75471841748E+02 -0.48073038498E+02  0.68105081245E+02  0.11245140292E+03  0.00000000000E+00 0.  1.
         11    1    5    5    0    0 -0.41219808748E+03 -0.76814367579E+02 -0.82689341116E+03  0.92712481566E+03  0.00000000000E+00 0. -1.
        -11    1    5    5    0    0 -0.47372487534E+02 -0.23443920528E+02 -0.53124325638E+02  0.74939735518E+02  0.00000000000E+00 0.  1.
          1    1    6    6  503    0  0.18831211671E+03  0.10879140894E+03  0.39905474415E+02  0.22110963535E+03  0.00000000000E+00 0. -1.
         -1    1    6    6    0  503  0.33422444352E+02 -0.33206273725E+01 -0.23860801702E+02  0.41199808379E+02  0.00000000000E+00 0.  1.
<mgrwt>
<rscale>  0 0.14231974E+04</rscale>
<asrwt>0</asrwt>
<pdfrwt beam="1">  1        1 0.68867800E-01 0.14231974E+04</pdfrwt>
<pdfrwt beam="2">  1       -1 0.17403131E+00 0.14231974E+04</pdfrwt>
<totfact> 0.11537875E+01</totfact>
</mgrwt>
</event>
<event>
12    2  0.3518828E-008  0.2012081E+04  0.7818608E-02  0.8600993E-01
         -1   -1    0    0    0  501 -0.00000000000E+00  0.00000000000E+00  0.19339513510E+04  0.19339513510E+04  0.00000000000E+00 0. -1.
          1   -1    0    0  501    0  0.00000000000E+00 -0.00000000000E+00 -0.52334188500E+03  0.52334188500E+03  0.00000000000E+00 0.  1.
         23    2    1    2    0    0 -0.32838863708E+02  0.95603891374E+02  0.15332461069E+04  0.15392493265E+04  0.90699337191E+02 0.  0.
        254    2    1    2    0    0  0.32838863708E+02 -0.95603891374E+02 -0.12263664091E+03  0.91804390950E+03  0.90418271332E+03 0.  0.
         23    2    4    4    0    0 -0.10934473221E+02 -0.30227061918E+03  0.30036841853E+03  0.43621294155E+03  0.92592945773E+02 0.  0.
         23    2    4    4    0    0  0.43773336930E+02  0.20666672780E+03 -0.42300505943E+03  0.48183096795E+03  0.92739203996E+02 0.  0.
          4    1    3    3  502    0 -0.29420306040E+02 -0.27622241025E+00  0.67812596421E+03  0.67876391628E+03  0.00000000000E+00 0. -1.
         -4    1    3    3    0  502 -0.34185576679E+01  0.95880113784E+02  0.85512014268E+03  0.86048541020E+03  0.00000000000E+00 0.  1.
         11    1    5    5    0    0 -0.11176501540E+02  0.16908510938E+01  0.49356991633E+01  0.12334272995E+02  0.00000000000E+00 0. -1.
        -11    1    5    5    0    0  0.24202831851E+00 -0.30396147027E+03  0.29543271937E+03  0.42387866856E+03  0.00000000000E+00 0.  1.
          3    1    6    6  503    0  0.32771547950E+02  0.65463158538E+02 -0.23695384454E+03  0.24800508850E+03  0.00000000000E+00 0. -1.
         -3    1    6    6    0  503  0.11001788980E+02  0.14120356927E+03 -0.18605121490E+03  0.23382587945E+03  0.00000000000E+00 0.  1.
<mgrwt>
<rscale>  0 0.20120813E+04</rscale>
<asrwt>0</asrwt>
<pdfrwt beam="1">  1        1 0.80514137E-01 0.20120813E+04</pdfrwt>
<pdfrwt beam="2">  1       -1 0.29753097E+00 0.20120813E+04</pdfrwt>
<totfact> 0.13216741E+00</totfact>
</mgrwt>
</event>
<event>
12    2  0.3518828E-008  0.1610931E+04  0.7818608E-02  0.8813860E-01
         -1   -1    0    0    0  501 -0.00000000000E+00  0.00000000000E+00  0.11301707551E+04  0.11301707551E+04  0.00000000000E+00 0.  1.
          1   -1    0    0  501    0  0.00000000000E+00 -0.00000000000E+00 -0.57405040459E+03  0.57405040459E+03  0.00000000000E+00 0. -1.
         23    2    1    2    0    0  0.22348365322E+03 -0.49801166608E+03  0.24049362792E+03  0.60341493767E+03  0.91169288323E+02 0.  0.
        254    2    1    2    0    0 -0.22348365322E+03  0.49801166608E+03  0.31562672259E+03  0.11008062220E+04  0.90232674104E+03 0.  0.
         23    2    4    4    0    0 -0.29981187774E+03  0.72794758382E+03  0.22965369763E+03  0.82599080253E+03  0.98616115324E+02 0.  0.
         23    2    4    4    0    0  0.76328224521E+02 -0.22993591774E+03  0.85973024959E+02  0.27481541949E+03  0.97137169208E+02 0.  0.
          3    1    3    3  502    0  0.16354936593E+03 -0.36651342456E+03  0.13127346789E+03  0.42227148714E+03  0.00000000000E+00 0. -1.
         -3    1    3    3    0  502  0.59934287286E+02 -0.13149824152E+03  0.10922016003E+03  0.18114345054E+03  0.00000000000E+00 0.  1.
         11    1    5    5    0    0 -0.44874445151E+02  0.16658295938E+03  0.15086669061E+02  0.17317969213E+03  0.00000000000E+00 0.  1.
        -11    1    5    5    0    0 -0.25493743259E+03  0.56136462444E+03  0.21456702857E+03  0.65281111040E+03  0.00000000000E+00 0. -1.
          1    1    6    6  503    0  0.42199769992E+02 -0.15532679393E+03  0.72638523265E+01  0.16112106333E+03  0.00000000000E+00 0. -1.
         -1    1    6    6    0  503  0.34128454529E+02 -0.74609123813E+02  0.78709172633E+02  0.11369435615E+03  0.00000000000E+00 0.  1.
<mgrwt>
<rscale>  0 0.16109314E+04</rscale>
<asrwt>0</asrwt>
<pdfrwt beam="1">  1        1 0.88315447E-01 0.16109314E+04</pdfrwt>
<pdfrwt beam="2">  1       -1 0.17387242E+00 0.16109314E+04</pdfrwt>
<totfact> 0.80648340E+00</totfact>
</mgrwt>
</event>
<event>
12    2  0.3518828E-008  0.2504625E+04  0.7818608E-02  0.8401340E-01
          2   -1    0    0  501    0  0.00000000000E+00  0.00000000000E+00  0.91396292694E+03  0.91396292694E+03  0.00000000000E+00 0. -1.
         -2   -1    0    0    0  501 -0.00000000000E+00 -0.00000000000E+00 -0.17159198209E+04  0.17159198209E+04  0.00000000000E+00 0.  1.
         23    2    1    2    0    0  0.29397804511E+03 -0.14963079239E+03  0.73848027502E+03  0.81385689615E+03  0.90539857496E+02 0.  0.
        254    2    1    2    0    0 -0.29397804511E+03  0.14963079239E+03 -0.15404371689E+04  0.18160258516E+04  0.90343276306E+03 0.  0.
         23    2    4    4    0    0 -0.18539628451E+03 -0.30711923928E+03 -0.26745924755E+03  0.45609920330E+03  0.88306425067E+02 0.  0.
         23    2    4    4    0    0 -0.10858176060E+03  0.45675003166E+03 -0.12729779214E+04  0.13599266483E+04  0.92288191998E+02 0.  0.
          2    1    3    3  502    0  0.13578333635E+03 -0.34342505976E+02  0.38669462857E+03  0.41127759228E+03  0.00000000000E+00 0. -1.
         -2    1    3    3    0  502  0.15819470876E+03 -0.11528828641E+03  0.35178564645E+03  0.40257930388E+03  0.00000000000E+00 0.  1.
         11    1    5    5    0    0 -0.14969564804E+03 -0.25019409679E+03 -0.25587367262E+03  0.38791392015E+03  0.00000000000E+00 0.  1.
        -11    1    5    5    0    0 -0.35700636461E+02 -0.56925142489E+02 -0.11585574933E+02  0.68185283146E+02  0.00000000000E+00 0. -1.
          1    1    6    6  503    0 -0.29241105089E+02  0.32121584219E+02 -0.16764422838E+03  0.17318032714E+03  0.00000000000E+00 0. -1.
         -1    1    6    6    0  503 -0.79340655512E+02  0.42462844745E+03 -0.11053336930E+04  0.11867463212E+04  0.00000000000E+00 0.  1.
<mgrwt>
<rscale>  0 0.25046254E+04</rscale>
<asrwt>0</asrwt>
<pdfrwt beam="1">  1        2 0.14060968E+00 0.25046254E+04</pdfrwt>
<pdfrwt beam="2">  1       -2 0.26398766E+00 0.25046254E+04</pdfrwt>
<totfact> 0.13491582E+00</totfact>
</mgrwt>
</event>
<event>
12    2  0.3518828E-008  0.1493202E+04  0.7818608E-02  0.8888986E-01
          2   -1    0    0  501    0  0.00000000000E+00  0.00000000000E+00  0.11027497344E+04  0.11027497344E+04  0.00000000000E+00 0. -1.
         -2   -1    0    0    0  501 -0.00000000000E+00 -0.00000000000E+00 -0.50547569221E+03  0.50547569221E+03  0.00000000000E+00 0.  1.
         23    2    1    2    0    0 -0.35614320843E+03 -0.29881922053E+03  0.26235826416E+03  0.54161421795E+03  0.91559766488E+02 0.  0.
        254    2    1    2    0    0  0.35614320843E+03  0.29881922053E+03  0.33491577803E+03  0.10666112087E+04  0.89964436340E+03 0.  0.
         23    2    4    4    0    0 -0.73020286632E+02 -0.13171300166E+03 -0.18968467921E+03  0.25878344285E+03  0.91149962702E+02 0.  0.
         23    2    4    4    0    0  0.42916349507E+03  0.43053222218E+03  0.52460045723E+03  0.80782776581E+03  0.88548064055E+02 0.  0.
          3    1    3    3  502    0  0.45351783662E+01 -0.10897574356E+01  0.79285519092E+01  0.91987689099E+01  0.00000000000E+00 0. -1.
         -3    1    3    3    0  502 -0.36067838680E+03 -0.29772946309E+03  0.25442971225E+03  0.53241544904E+03  0.00000000000E+00 0.  1.
         11    1    5    5    0    0 -0.73167013255E+02 -0.41313791416E+02 -0.10889442205E+03  0.13754357979E+03  0.00000000000E+00 0.  1.
        -11    1    5    5    0    0  0.14672662342E+00 -0.90399210242E+02 -0.80790257161E+02  0.12123986305E+03  0.00000000000E+00 0. -1.
          3    1    6    6  503    0  0.40946053538E+03  0.37811614710E+03  0.48916571879E+03  0.74156109065E+03  0.00000000000E+00 0. -1.
         -3    1    6    6    0  503  0.19702959687E+02  0.52416075088E+02  0.35434738441E+02  0.66266675158E+02  0.00000000000E+00 0.  1.
<mgrwt>
<rscale>  0 0.14932022E+04</rscale>
<asrwt>0</asrwt>
<pdfrwt beam="1">  1        2 0.16965381E+00 0.14932022E+04</pdfrwt>
<pdfrwt beam="2">  1       -2 0.77765491E-01 0.14932022E+04</pdfrwt>
<totfact> 0.30907093E+01</totfact>
</mgrwt>
</event>
<event>
12    2  0.3518828E-008  0.1361073E+04  0.7818608E-02  0.8982488E-01
         -1   -1    0    0    0  501 -0.00000000000E+00  0.00000000000E+00  0.13822580059E+04  0.13822580059E+04  0.00000000000E+00 0.  1.
          1   -1    0    0  501    0  0.00000000000E+00 -0.00000000000E+00 -0.33505335680E+03  0.33505335680E+03  0.00000000000E+00 0. -1.
         23    2    1    2    0    0  0.25845712550E+03 -0.20174486251E+03  0.53511972420E+03  0.63417895250E+03  0.91261981652E+02 0.  0.
        254    2    1    2    0    0 -0.25845712550E+03  0.20174486251E+03  0.51208492495E+03  0.10831324102E+04  0.89635025101E+03 0.  0.
         23    2    4    4    0    0 -0.54384205791E+03  0.29888977944E+03  0.25153098162E+03  0.67574962462E+03  0.90941938911E+02 0.  0.
         23    2    4    4    0    0  0.28538493241E+03 -0.97144916934E+02  0.26055394332E+03  0.40738278562E+03  0.84797889760E+02 0.  0.
          1    1    3    3  502    0  0.16204029717E+02  0.77403041754E+01  0.15165751098E+02  0.23504954672E+02  0.00000000000E+00 0. -1.
         -1    1    3    3    0  502  0.24225309578E+03 -0.20948516668E+03  0.51995397310E+03  0.61067399782E+03  0.00000000000E+00 0.  1.
         11    1    5    5    0    0 -0.40613623014E+03  0.19012224406E+03  0.14915310693E+03  0.47258835621E+03  0.00000000000E+00 0. -1.
        -11    1    5    5    0    0 -0.13770582777E+03  0.10876753539E+03  0.10237787470E+03  0.20316126841E+03  0.00000000000E+00 0.  1.
          4    1    6    6  503    0  0.23104457173E+03 -0.94452971466E+02  0.17087980972E+03  0.30249440873E+03  0.00000000000E+00 0. -1.
         -4    1    6    6    0  503  0.54340360680E+02 -0.26919454679E+01  0.89674133600E+02  0.10488837689E+03  0.00000000000E+00 0.  1.
<mgrwt>
<rscale>  0 0.13610734E+04</rscale>
<asrwt>0</asrwt>
<pdfrwt beam="1">  1        1 0.51546671E-01 0.13610734E+04</pdfrwt>
<pdfrwt beam="2">  1       -1 0.21265507E+00 0.13610734E+04</pdfrwt>
<totfact> 0.91509481E+00</totfact>
</mgrwt>
</event>
<event>
12    2  0.3518828E-008  0.1787472E+04  0.7818608E-02  0.8712990E-01
         -1   -1    0    0    0  501 -0.00000000000E+00  0.00000000000E+00  0.50629175595E+03  0.50629175595E+03  0.00000000000E+00 0.  1.
          1   -1    0    0  501    0  0.00000000000E+00 -0.00000000000E+00 -0.15776749949E+04  0.15776749949E+04  0.00000000000E+00 0. -1.
         23    2    1    2    0    0  0.61410756686E+03  0.22031699098E+03 -0.51963285893E+03  0.83907167059E+03  0.91407221351E+02 0.  0.
        254    2    1    2    0    0 -0.61410756686E+03 -0.22031699098E+03 -0.55175038002E+03  0.12448950803E+04  0.90535495736E+03 0.  0.
         23    2    4    4    0    0  0.64401494604E+02 -0.37216096110E+03 -0.72275789292E+02  0.39528562433E+03  0.91518312951E+02 0.  0.
         23    2    4    4    0    0 -0.67850906147E+03  0.15184397012E+03 -0.47947459073E+03  0.84960945594E+03  0.92245361452E+02 0.  0.
          2    1    3    3  502    0  0.51064235368E+03  0.16007812240E+03 -0.38713423181E+03  0.66049491450E+03  0.00000000000E+00 0. -1.
         -2    1    3    3    0  502  0.10346521318E+03  0.60238868586E+02 -0.13249862712E+03  0.17857675609E+03  0.00000000000E+00 0.  1.
         11    1    5    5    0    0  0.76364681180E+02 -0.36151230172E+03 -0.79124275311E+02  0.37786685455E+03  0.00000000000E+00 0. -1.
        -11    1    5    5    0    0 -0.11963186576E+02 -0.10648659384E+02  0.68484860183E+01  0.17418769775E+02  0.00000000000E+00 0.  1.
          4    1    6    6  503    0 -0.63183273208E+03  0.15593743243E+03 -0.46733769640E+03  0.80120759272E+03  0.00000000000E+00 0. -1.
         -4    1    6    6    0  503 -0.46676329384E+02 -0.40934623145E+01 -0.12136894331E+02  0.48401863213E+02  0.00000000000E+00 0.  1.
<mgrwt>
<rscale>  0 0.17874718E+04</rscale>
<asrwt>0</asrwt>
<pdfrwt beam="1">  1        1 0.24271923E+00 0.17874718E+04</pdfrwt>
<pdfrwt beam="2">  1       -1 0.77891041E-01 0.17874718E+04</pdfrwt>
<totfact> 0.90153199E+00</totfact>
</mgrwt>
</event>
<event>
12    2  0.3518828E-008  0.1802153E+04  0.7818608E-02  0.8705156E-01
          2   -1    0    0  501    0  0.00000000000E+00  0.00000000000E+00  0.12873410594E+04  0.12873410594E+04  0.00000000000E+00 0. -1.
         -2   -1    0    0    0  501 -0.00000000000E+00 -0.00000000000E+00 -0.63070976123E+03  0.63070976123E+03  0.00000000000E+00 0.  1.
         23    2    1    2    0    0  0.17043091243E+03 -0.17443319921E+02 -0.44241304839E+03  0.48656026773E+03  0.10798436658E+03 0.  0.
        254    2    1    2    0    0 -0.17043091243E+03  0.17443319921E+02  0.10990443466E+04  0.14314905529E+04  0.90106368368E+03 0.  0.
         23    2    4    4    0    0 -0.52312769135E+02  0.28167081357E+03  0.11005021126E+02  0.30189489073E+03  0.94574528942E+02 0.  0.
         23    2    4    4    0    0 -0.11811814329E+03 -0.26422749365E+03  0.10880393255E+04  0.11295956622E+04  0.91589967436E+02 0.  0.
          1    1    3    3  502    0  0.13610867429E+03 -0.28423241260E+02 -0.21321620889E+03  0.25454784147E+03  0.00000000000E+00 0. -1.
         -1    1    3    3    0  502  0.34322238133E+02  0.10979921340E+02 -0.22919683950E+03  0.23201242626E+03  0.00000000000E+00 0.  1.
         11    1    5    5    0    0  0.19001090530E+02  0.18426104568E+02 -0.10138042675E+02  0.28343300446E+02  0.00000000000E+00 0.  1.
        -11    1    5    5    0    0 -0.71313859665E+02  0.26324470900E+03  0.21143063802E+02  0.27355159028E+03  0.00000000000E+00 0. -1.
          2    1    6    6  503    0 -0.13040223405E+03 -0.20945959050E+03  0.85475123972E+03  0.88965034958E+03  0.00000000000E+00 0. -1.
         -2    1    6    6    0  503  0.12284090759E+02 -0.54767903155E+02  0.23328808576E+03  0.23994531264E+03  0.00000000000E+00 0.  1.
<mgrwt>
<rscale>  0 0.18021527E+04</rscale>
<asrwt>0</asrwt>
<pdfrwt beam="1">  1        2 0.19805247E+00 0.18021527E+04</pdfrwt>
<pdfrwt beam="2">  1       -2 0.97032271E-01 0.18021527E+04</pdfrwt>
<totfact> 0.14078925E+01</totfact>
</mgrwt>
</event>
<event>
12    2  0.3518828E-008  0.2236771E+04  0.7818608E-02  0.8503277E-01
          2   -1    0    0  501    0  0.00000000000E+00  0.00000000000E+00  0.13033524692E+04  0.13033524692E+04  0.00000000000E+00 0. -1.
         -2   -1    0    0    0  501 -0.00000000000E+00 -0.00000000000E+00 -0.95966832194E+03  0.95966832194E+03  0.00000000000E+00 0.  1.
         23    2    1    2    0    0 -0.19857353940E+03 -0.40522190385E+03  0.97056371787E+03  0.10745797408E+04  0.95349079298E+02 0.  0.
        254    2    1    2    0    0  0.19857353940E+03  0.40522190385E+03 -0.62687957061E+03  0.11884410504E+04  0.90320423617E+03 0.  0.
         23    2    4    4    0    0  0.13800996074E+03  0.39356037100E+01  0.20190227371E+03  0.26111205884E+03  0.91393330723E+02 0.  0.
         23    2    4    4    0    0  0.60563578655E+02  0.40128630014E+03 -0.82878184432E+03  0.92732899153E+03  0.91438893917E+02 0.  0.
          4    1    3    3  502    0 -0.19430534783E+03 -0.40519968212E+03  0.92050313583E+03  0.10243375292E+04  0.00000000000E+00 0. -1.
         -4    1    3    3    0  502 -0.42681915701E+01 -0.22221735816E-01  0.50060582043E+02  0.50242211611E+02  0.00000000000E+00 0.  1.
         11    1    5    5    0    0  0.14629365314E+03 -0.48729413399E+01  0.15716980312E+03  0.21477412674E+03  0.00000000000E+00 0.  1.
        -11    1    5    5    0    0 -0.82836923964E+01  0.88085450499E+01  0.44732470588E+02  0.46337932092E+02  0.00000000000E+00 0. -1.
          3    1    6    6  503    0  0.48567293346E+02  0.76921329144E+02 -0.16415070506E+03  0.18767292514E+03  0.00000000000E+00 0. -1.
         -3    1    6    6    0  503  0.11996285309E+02  0.32436497100E+03 -0.66463113926E+03  0.73965606639E+03  0.00000000000E+00 0.  1.
<mgrwt>
<rscale>  0 0.22367710E+04</rscale>
<asrwt>0</asrwt>
<pdfrwt beam="1">  1        2 0.20051576E+00 0.22367710E+04</pdfrwt>
<pdfrwt beam="2">  1       -2 0.14764128E+00 0.22367710E+04</pdfrwt>
<totfact> 0.46866900E+00</totfact>
</mgrwt>
</event>
<event>
12    2  0.3518828E-008  0.2636721E+04  0.7818608E-02  0.8355834E-01
         -1   -1    0    0    0  501 -0.00000000000E+00  0.00000000000E+00  0.15017477978E+04  0.15017477978E+04  0.00000000000E+00 0.  1.
          1   -1    0    0  501    0  0.00000000000E+00 -0.00000000000E+00 -0.11573675145E+04  0.11573675145E+04  0.00000000000E+00 0. -1.
         23    2    1    2    0    0  0.46536270595E+03  0.72790810640E+03  0.94666945854E+03  0.12853305490E+04  0.97359626640E+02 0.  0.
        254    2    1    2    0    0 -0.46536270595E+03 -0.72790810640E+03 -0.60228917522E+03  0.13737847633E+04  0.88211091466E+03 0.  0.
         23    2    4    4    0    0  0.71105468154E+00 -0.75276574564E+03 -0.33987042252E+03  0.83071383295E+03  0.88976371826E+02 0.  0.
         23    2    4    4    0    0 -0.46607376063E+03  0.24857639233E+02 -0.26241875271E+03  0.54307093033E+03  0.90663008008E+02 0.  0.
          1    1    3    3  502    0  0.18234004047E+03  0.20151372154E+03  0.29618286405E+03  0.40197009750E+03  0.00000000000E+00 0. -1.
         -1    1    3    3    0  502  0.28302266548E+03  0.52639438487E+03  0.65048659448E+03  0.88336045146E+03  0.00000000000E+00 0.  1.
         11    1    5    5    0    0 -0.60293121436E+01 -0.54460701465E+03 -0.28793580338E+03  0.61606832403E+03  0.00000000000E+00 0. -1.
        -11    1    5    5    0    0  0.67403668251E+01 -0.20815873099E+03 -0.51934619139E+02  0.21464550892E+03  0.00000000000E+00 0.  1.
          2    1    6    6  503    0 -0.16695501305E+03  0.27088339949E+01 -0.45971194686E+02  0.17318967898E+03  0.00000000000E+00 0. -1.
         -2    1    6    6    0  503 -0.29911874758E+03  0.22148805238E+02 -0.21644755802E+03  0.36988125135E+03  0.00000000000E+00 0.  1.
<mgrwt>
<rscale>  0 0.26367208E+04</rscale>
<asrwt>0</asrwt>
<pdfrwt beam="1">  1        1 0.17805654E+00 0.26367208E+04</pdfrwt>
<pdfrwt beam="2">  1       -1 0.23103812E+00 0.26367208E+04</pdfrwt>
<totfact> 0.93693287E-01</totfact>
</mgrwt>
</event>
<event>
12    2  0.4449689E-008  0.2103004E+04  0.7818608E-02  0.8559921E-01
          1   -1    0    0  501    0  0.00000000000E+00  0.00000000000E+00  0.22432944262E+04  0.22432944262E+04  0.00000000000E+00 0. -1.
         -1   -1    0    0    0  501 -0.00000000000E+00 -0.00000000000E+00 -0.49287169606E+03  0.49287169606E+03  0.00000000000E+00 0.  1.
         23    2    1    2    0    0 -0.66440417572E+03  0.99821259064E+02  0.13826408832E+04  0.15399603116E+04  0.91568318348E+02 0.  0.
        254    2    1    2    0    0  0.66440417572E+03 -0.99821259064E+02  0.36778184688E+03  0.11962058106E+04  0.91882950646E+03 0.  0.
         23    2    4    4    0    0  0.86133433812E+03 -0.12849061988E+02  0.40719764003E+03  0.95708680661E+03  0.90240217880E+02 0.  0.
         23    2    4    4    0    0 -0.19693016240E+03 -0.86972197076E+02 -0.39415793153E+02  0.23911900399E+03  0.96325704734E+02 0.  0.
          2    1    3    3  502    0 -0.44666463557E+03  0.55408376039E+02  0.82733047213E+03  0.94183602337E+03  0.00000000000E+00 0. -1.
         -2    1    3    3    0  502 -0.21773954015E+03  0.44412883026E+02  0.55531041109E+03  0.59812428824E+03  0.00000000000E+00 0.  1.
         11    1    5    5    0    0  0.52094336267E+02  0.17891126609E+02  0.38994774614E+02  0.67487070833E+02  0.00000000000E+00 0.  1.
        -11    1    5    5    0    0  0.80924000185E+03 -0.30740188597E+02  0.36820286542E+03  0.88959973578E+03  0.00000000000E+00 0. -1.
          1    1    6    6  503    0 -0.19395623820E+03 -0.56889302665E+02 -0.47892186892E+02  0.20772355827E+03  0.00000000000E+00 0. -1.
         -1    1    6    6    0  503 -0.29739242001E+01 -0.30082894411E+02  0.84763937391E+01  0.31395445722E+02  0.00000000000E+00 0.  1.
<mgrwt>
<rscale>  0 0.21030039E+04</rscale>
<asrwt>0</asrwt>
<pdfrwt beam="1">  1        1 0.34512222E+00 0.21030039E+04</pdfrwt>
<pdfrwt beam="2">  1       -1 0.75826416E-01 0.21030039E+04</pdfrwt>
<totfact> 0.32693855E+00</totfact>
</mgrwt>
</event>
<event>
12    2  0.3518828E-008  0.2113224E+04  0.7818608E-02  0.8555440E-01
          2   -1    0    0  501    0  0.00000000000E+00  0.00000000000E+00  0.34595798479E+04  0.34595798479E+04  0.00000000000E+00 0. -1.
         -2   -1    0    0    0  501 -0.00000000000E+00 -0.00000000000E+00 -0.32270647537E+03  0.32270647537E+03  0.00000000000E+00 0.  1.
         23    2    1    2    0    0 -0.62563551017E+03 -0.73138441061E+02  0.23310280699E+04  0.24163815990E+04  0.91864825560E+02 0.  0.
        254    2    1    2    0    0  0.62563551017E+03  0.73138441061E+02  0.80584530268E+03  0.13659047243E+04  0.90528450828E+03 0.  0.
         23    2    4    4    0    0  0.32917329330E+03 -0.18768315371E+03 -0.74309318462E+02  0.39679476263E+03  0.91346514059E+02 0.  0.
         23    2    4    4    0    0  0.29646221687E+03  0.26082159477E+03  0.88015462114E+03  0.96910996170E+03  0.92651014059E+02 0.  0.
          2    1    3    3  502    0 -0.29247848169E+03 -0.56105060185E+02  0.94730420927E+03  0.99301395002E+03  0.00000000000E+00 0.  1.
         -2    1    3    3    0  502 -0.33315702847E+03 -0.17033380876E+02  0.13837238606E+04  0.14233676489E+04  0.00000000000E+00 0. -1.
         11    1    5    5    0    0  0.51236369276E+00  0.35442959428E+01  0.70828014088E+01  0.79366634098E+01  0.00000000000E+00 0. -1.
        -11    1    5    5    0    0  0.32866092961E+03 -0.19122744965E+03 -0.81392119871E+02  0.38885809922E+03  0.00000000000E+00 0.  1.
          2    1    6    6  503    0 -0.54841754463E+01  0.11637240883E+02  0.44044545850E+02  0.45884894843E+02  0.00000000000E+00 0. -1.
         -2    1    6    6    0  503  0.30194639231E+03  0.24918435389E+03  0.83611007530E+03  0.92322506685E+03  0.00000000000E+00 0.  1.
<mgrwt>
<rscale>  0 0.21132239E+04</rscale>
<asrwt>0</asrwt>
<pdfrwt beam="1">  1        2 0.53224303E+00 0.21132239E+04</pdfrwt>
<pdfrwt beam="2">  1       -2 0.49647153E-01 0.21132239E+04</pdfrwt>
<totfact> 0.30786392E+00</totfact>
</mgrwt>
</event>
<event>
12    2  0.3518828E-008  0.2008871E+04  0.7818608E-02  0.8602484E-01
          1   -1    0    0  501    0  0.00000000000E+00  0.00000000000E+00  0.88652196703E+03  0.88652196703E+03  0.00000000000E+00 0. -1.
         -1   -1    0    0    0  501 -0.00000000000E+00 -0.00000000000E+00 -0.11380325529E+04  0.11380325529E+04  0.00000000000E+00 0.  1.
         23    2    1    2    0    0 -0.22660548482E+03 -0.26915201332E+03 -0.78435587275E+03  0.86451267645E+03  0.91516012807E+02 0.  0.
        254    2    1    2    0    0  0.22660548482E+03  0.26915201332E+03  0.53284528691E+03  0.11600418434E+04  0.96849374119E+03 0.  0.
         23    2    4    4    0    0  0.35243347561E+03 -0.26564137955E+03  0.35955386928E+03  0.57688337490E+03  0.93491957203E+02 0.  0.
         23    2    4    4    0    0 -0.12582799079E+03  0.53479339287E+03  0.17329141763E+03  0.58315846854E+03  0.90593750829E+02 0.  0.
          4    1    3    3  502    0 -0.37234507296E+02 -0.63641410160E+02 -0.26104888405E+03  0.27126215638E+03  0.00000000000E+00 0.  1.
         -4    1    3    3    0  502 -0.18937097752E+03 -0.20551060316E+03 -0.52330698870E+03  0.59325052006E+03  0.00000000000E+00 0. -1.
         11    1    5    5    0    0  0.38683934080E+01 -0.23760103820E+02  0.65101777261E+01  0.24937710703E+02  0.00000000000E+00 0. -1.
        -11    1    5    5    0    0  0.34856508220E+03 -0.24188127573E+03  0.35304369156E+03  0.55194566420E+03  0.00000000000E+00 0.  1.
          1    1    6    6  503    0  0.17226637566E+01  0.42633477990E+02  0.37777436278E+02  0.56988733164E+02  0.00000000000E+00 0. -1.
         -1    1    6    6    0  503 -0.12755065454E+03  0.49215991488E+03  0.13551398135E+03  0.52616973538E+03  0.00000000000E+00 0.  1.
<mgrwt>
<rscale>  0 0.20088712E+04</rscale>
<asrwt>0</asrwt>
<pdfrwt beam="1">  1        1 0.13638800E+00 0.20088712E+04</pdfrwt>
<pdfrwt beam="2">  1       -1 0.17508193E+00 0.20088712E+04</pdfrwt>
<totfact> 0.39086019E+00</totfact>
</mgrwt>
</event>
<event>
12    2  0.3518828E-008  0.1787194E+04  0.7818608E-02  0.8713140E-01
          2   -1    0    0  501    0  0.00000000000E+00  0.00000000000E+00  0.84583803249E+03  0.84583803249E+03  0.00000000000E+00 0. -1.
         -2   -1    0    0    0  501 -0.00000000000E+00 -0.00000000000E+00 -0.94405219176E+03  0.94405219176E+03  0.00000000000E+00 0.  1.
         23    2    1    2    0    0  0.32005082765E+03 -0.56101684799E+03  0.12959734915E+03  0.66514373506E+03  0.91914522080E+02 0.  0.
        254    2    1    2    0    0 -0.32005082765E+03  0.56101684799E+03 -0.22781150841E+03  0.11247464892E+04  0.89217943575E+03 0.  0.
         23    2    4    4    0    0  0.42071030633E+02 -0.72147157047E+02  0.22582745308E+03  0.26075270700E+03  0.10009371486E+03 0.  0.
         23    2    4    4    0    0 -0.36212185829E+03  0.63316400504E+03 -0.45363896150E+03  0.86399378219E+03  0.93102367043E+02 0.  0.
          4    1    3    3  502    0  0.30375616039E+03 -0.50640291639E+03  0.14077231081E+03  0.60706553369E+03  0.00000000000E+00 0. -1.
         -4    1    3    3    0  502  0.16294667266E+02 -0.54613931605E+02 -0.11174961660E+02  0.58078201374E+02  0.00000000000E+00 0.  1.
         11    1    5    5    0    0  0.57830217981E+02 -0.62517059631E+02  0.22679626734E+03  0.24225867112E+03  0.00000000000E+00 0.  1.
        -11    1    5    5    0    0 -0.15759187348E+02 -0.96300974161E+01 -0.96881425138E+00  0.18494035881E+02  0.00000000000E+00 0. -1.
          1    1    6    6  503    0 -0.18094067973E+03  0.27431720031E+03 -0.15575063727E+03  0.36365879198E+03  0.00000000000E+00 0. -1.
         -1    1    6    6    0  503 -0.18118117855E+03  0.35884680472E+03 -0.29788832423E+03  0.50033499022E+03  0.00000000000E+00 0.  1.
<mgrwt>
<rscale>  0 0.17871936E+04</rscale>
<asrwt>0</asrwt>
<pdfrwt beam="1">  1        2 0.13012893E+00 0.17871936E+04</pdfrwt>
<pdfrwt beam="2">  1       -2 0.14523880E+00 0.17871936E+04</pdfrwt>
<totfact> 0.98490600E+00</totfact>
</mgrwt>
</event>
<event>
12    2  0.3518828E-008  0.1707268E+04  0.7818608E-02  0.8757230E-01
         -1   -1    0    0    0  501 -0.00000000000E+00  0.00000000000E+00  0.21058618375E+04  0.21058618375E+04  0.00000000000E+00 0.  1.
          1   -1    0    0  501    0  0.00000000000E+00 -0.00000000000E+00 -0.34602995674E+03  0.34602995674E+03  0.00000000000E+00 0. -1.
         23    2    1    2    0    0 -0.33749424586E+03  0.29681402462E+03  0.12318293699E+04  0.13142892470E+04  0.89172288246E+02 0.  0.
        254    2    1    2    0    0  0.33749424586E+03 -0.29681402462E+03  0.52800251080E+03  0.11376025472E+04  0.90186028451E+03 0.  0.
         23    2    4    4    0    0 -0.13673971986E+03 -0.15950275876E+03 -0.16485618812E+03  0.28199717743E+03  0.90586777604E+02 0.  0.
         23    2    4    4    0    0  0.47423396572E+03 -0.13731126586E+03  0.69285869892E+03  0.85560536977E+03  0.90857768714E+02 0.  0.
          2    1    3    3  502    0 -0.38382381820E+02  0.45350897061E+01  0.13548818235E+03  0.14089294457E+03  0.00000000000E+00 0. -1.
         -2    1    3    3    0  502 -0.29911186404E+03  0.29227893491E+03  0.10963411876E+04  0.11733963024E+04  0.00000000000E+00 0.  1.
         11    1    5    5    0    0 -0.21143999088E+02 -0.44786392324E+01  0.75805798435E+01  0.22903975584E+02  0.00000000000E+00 0. -1.
        -11    1    5    5    0    0 -0.11559572077E+03 -0.15502411953E+03 -0.17243676796E+03  0.25909320185E+03  0.00000000000E+00 0.  1.
          1    1    6    6  503    0  0.28742294956E+02  0.74655267027E+01  0.71808561817E+02  0.77706648098E+02  0.00000000000E+00 0. -1.
         -1    1    6    6    0  503  0.44549167076E+03 -0.14477679256E+03  0.62105013710E+03  0.77789872167E+03  0.00000000000E+00 0.  1.
<mgrwt>
<rscale>  0 0.17072683E+04</rscale>
<asrwt>0</asrwt>
<pdfrwt beam="1">  1        1 0.53235379E-01 0.17072683E+04</pdfrwt>
<pdfrwt beam="2">  1       -1 0.32397874E+00 0.17072683E+04</pdfrwt>
<totfact> 0.15976130E+00</totfact>
</mgrwt>
</event>
<event>
12    2  0.3518828E-008  0.3148415E+04  0.7818608E-02  0.8202575E-01
         -1   -1    0    0    0  501 -0.00000000000E+00  0.00000000000E+00  0.25648357205E+04  0.25648357205E+04  0.00000000000E+00 0.  1.
          1   -1    0    0  501    0  0.00000000000E+00 -0.00000000000E+00 -0.96619395598E+03  0.96619395598E+03  0.00000000000E+00 0. -1.
         23    2    1    2    0    0  0.36651809388E+03 -0.60293233677E+03 -0.67570767375E+03  0.98111563242E+03  0.90244711501E+02 0.  0.
        254    2    1    2    0    0 -0.36651809388E+03  0.60293233677E+03  0.22743494383E+04  0.25499140441E+04  0.91188450416E+03 0.  0.
         23    2    4    4    0    0 -0.19587983854E+03  0.56289746218E+03  0.55624678795E+03  0.82013779101E+03  0.89403820098E+02 0.  0.
         23    2    4    4    0    0 -0.17063825533E+03  0.40034874588E+02  0.17181026504E+04  0.17297762531E+04  0.97616408712E+02 0.  0.
          1    1    3    3  502    0  0.25228603134E+03 -0.48279333123E+03 -0.53764947809E+03  0.76537873211E+03  0.00000000000E+00 0. -1.
         -1    1    3    3    0  502  0.11423206253E+03 -0.12013900555E+03 -0.13805819566E+03  0.21573690031E+03  0.00000000000E+00 0.  1.
         11    1    5    5    0    0  0.20740343997E+01  0.79852167554E+01  0.26777750594E+02  0.28019872094E+02  0.00000000000E+00 0. -1.
        -11    1    5    5    0    0 -0.19795387294E+03  0.55491224543E+03  0.52946903736E+03  0.79211791891E+03  0.00000000000E+00 0.  1.
          3    1    6    6  503    0 -0.32067129270E+02  0.41207858305E+02  0.26600089886E+03  0.27107723357E+03  0.00000000000E+00 0. -1.
         -3    1    6    6    0  503 -0.13857112606E+03 -0.11729837171E+01  0.14521017515E+04  0.14586990195E+04  0.00000000000E+00 0.  1.
<mgrwt>
<rscale>  0 0.31484147E+04</rscale>
<asrwt>0</asrwt>
<pdfrwt beam="1">  1        1 0.14864523E+00 0.31484147E+04</pdfrwt>
<pdfrwt beam="2">  1       -1 0.39459011E+00 0.31484147E+04</pdfrwt>
<totfact> 0.10522970E-01</totfact>
</mgrwt>
</event>
<event>
12    2  0.3518828E-008  0.2745014E+04  0.7818608E-02  0.8320546E-01
         -2   -1    0    0    0  501 -0.00000000000E+00  0.00000000000E+00  0.16287189304E+04  0.16287189304E+04  0.00000000000E+00 0.  1.
          2   -1    0    0  501    0  0.00000000000E+00 -0.00000000000E+00 -0.11565991995E+04  0.11565991995E+04  0.00000000000E+00 0. -1.
         23    2    1    2    0    0  0.60302897619E+03  0.61056718469E+03  0.11089708308E+04  0.14052600452E+04  0.92213110803E+02 0.  0.
        254    2    1    2    0    0 -0.60302897619E+03 -0.61056718469E+03 -0.63685110003E+03  0.13800580847E+04  0.87323808918E+03 0.  0.
         23    2    4    4    0    0 -0.33498291239E+03 -0.69880586996E+03 -0.73076810011E+03  0.10692237426E+04  0.93135385360E+02 0.  0.
         23    2    4    4    0    0 -0.26804606380E+03  0.88238685272E+02  0.93917000088E+02  0.31083434215E+03  0.90348367203E+02 0.  0.
          2    1    3    3  502    0  0.57070389978E+03  0.59494865898E+03  0.10365168522E+04  0.13243994990E+04  0.00000000000E+00 0.  1.
         -2    1    3    3    0  502  0.32325076417E+02  0.15618525702E+02  0.72453978597E+02  0.80860546158E+02  0.00000000000E+00 0. -1.
         11    1    5    5    0    0 -0.11721255828E+03 -0.29188918763E+03 -0.24095510931E+03  0.39622903273E+03  0.00000000000E+00 0. -1.
        -11    1    5    5    0    0 -0.21777035412E+03 -0.40691668232E+03 -0.48981299081E+03  0.67299470982E+03  0.00000000000E+00 0.  1.
          2    1    6    6  503    0 -0.11381726013E+02  0.15496974291E+02 -0.13238993364E+02  0.23344610609E+02  0.00000000000E+00 0. -1.
         -2    1    6    6    0  503 -0.25666433779E+03  0.72741710981E+02  0.10715599345E+03  0.28748973154E+03  0.00000000000E+00 0.  1.
<mgrwt>
<rscale>  0 0.27450137E+04</rscale>
<asrwt>0</asrwt>
<pdfrwt beam="1">  1        2 0.17793834E+00 0.27450137E+04</pdfrwt>
<pdfrwt beam="2">  1       -2 0.25057214E+00 0.27450137E+04</pdfrwt>
<totfact> 0.11207482E+00</totfact>
</mgrwt>
</event>
<event>
12    2  0.3518828E-008  0.2166258E+04  0.7818608E-02  0.8532605E-01
          2   -1    0    0  501    0  0.00000000000E+00  0.00000000000E+00  0.10096767538E+04  0.10096767538E+04  0.00000000000E+00 0. -1.
         -2   -1    0    0    0  501 -0.00000000000E+00 -0.00000000000E+00 -0.11619252535E+04  0.11619252535E+04  0.00000000000E+00 0.  1.
         23    2    1    2    0    0 -0.35846996395E+02 -0.28356498153E+02  0.83535589705E+03  0.84177744298E+03  0.93170223973E+02 0.  0.
        254    2    1    2    0    0  0.35846996395E+02  0.28356498153E+02 -0.98760439670E+03  0.13298245643E+04  0.88937159239E+03 0.  0.
         23    2    4    4    0    0 -0.39962938667E+03  0.11828860292E+03 -0.57661627447E+03  0.71719919374E+03  0.90512514302E+02 0.  0.
         23    2    4    4    0    0  0.43547638306E+03 -0.89932104767E+02 -0.41098812223E+03  0.61262537058E+03  0.93118979781E+02 0.  0.
          2    1    3    3  502    0 -0.38821260069E+02 -0.46506921625E+02  0.29740931409E+03  0.30351653020E+03  0.00000000000E+00 0. -1.
         -2    1    3    3    0  502  0.29742636743E+01  0.18150423472E+02  0.53794658296E+03  0.53826091279E+03  0.00000000000E+00 0.  1.
         11    1    5    5    0    0 -0.34306038140E+03  0.13193765562E+03 -0.51156370811E+03  0.62991697684E+03  0.00000000000E+00 0.  1.
        -11    1    5    5    0    0 -0.56569005270E+02 -0.13649052696E+02 -0.65052566356E+02  0.87282216896E+02  0.00000000000E+00 0. -1.
          3    1    6    6  503    0  0.14105149553E+03  0.10928024636E+02 -0.15292684514E+03  0.20833042524E+03  0.00000000000E+00 0. -1.
         -3    1    6    6    0  503  0.29442488753E+03 -0.10086012940E+03 -0.25806127709E+03  0.40429494534E+03  0.00000000000E+00 0.  1.
<mgrwt>
<rscale>  0 0.21662585E+04</rscale>
<asrwt>0</asrwt>
<pdfrwt beam="1">  1        2 0.15533489E+00 0.21662585E+04</pdfrwt>
<pdfrwt beam="2">  1       -2 0.17875773E+00 0.21662585E+04</pdfrwt>
<totfact> 0.42086424E+00</totfact>
</mgrwt>
</event>
<event>
12    2  0.3518828E-008  0.1328214E+04  0.7818608E-02  0.9007486E-01
          2   -1    0    0  501    0  0.00000000000E+00  0.00000000000E+00  0.14901024926E+04  0.14901024926E+04  0.00000000000E+00 0. -1.
         -2   -1    0    0    0  501 -0.00000000000E+00 -0.00000000000E+00 -0.29597837054E+03  0.29597837054E+03  0.00000000000E+00 0.  1.
         23    2    1    2    0    0  0.24417920331E+03  0.97505095596E+02  0.62672170102E+03  0.68567747260E+03  0.90789751087E+02 0.  0.
        254    2    1    2    0    0 -0.24417920331E+03 -0.97505095596E+02  0.56740242102E+03  0.11004033905E+04  0.90543436399E+03 0.  0.
         23    2    4    4    0    0  0.51489417818E+02  0.17643107337E+03 -0.16166240177E+03  0.26206613984E+03  0.93620754674E+02 0.  0.
         23    2    4    4    0    0 -0.29566862113E+03 -0.27393616897E+03  0.72906482279E+03  0.83833725068E+03  0.93876897376E+02 0.  0.
          1    1    3    3  502    0  0.18457008405E+03  0.71744948521E+02  0.55325139275E+03  0.58762280176E+03  0.00000000000E+00 0. -1.
         -1    1    3    3    0  502  0.59609119261E+02  0.25760147076E+02  0.73470308267E+02  0.98054670839E+02  0.00000000000E+00 0.  1.
         11    1    5    5    0    0  0.78303672893E+02  0.14622098760E+03 -0.12976857574E+03  0.21059896879E+03  0.00000000000E+00 0. -1.
        -11    1    5    5    0    0 -0.26814255075E+02  0.30210085772E+02 -0.31893826025E+02  0.51467171052E+02  0.00000000000E+00 0.  1.
          1    1    6    6  503    0 -0.28969174111E+03 -0.24018109754E+03  0.63384569493E+03  0.73713542139E+03  0.00000000000E+00 0. -1.
         -1    1    6    6    0  503 -0.59768800153E+01 -0.33755071432E+02  0.95219127852E+02  0.10120182929E+03  0.00000000000E+00 0.  1.
<mgrwt>
<rscale>  0 0.13282140E+04</rscale>
<asrwt>0</asrwt>
<pdfrwt beam="1">  1        2 0.22924653E+00 0.13282140E+04</pdfrwt>
<pdfrwt beam="2">  1       -2 0.45535135E-01 0.13282140E+04</pdfrwt>
<totfact> 0.57511206E+01</totfact>
</mgrwt>
</event>
<event>
12    2  0.3518828E-008  0.1490557E+04  0.7818608E-02  0.8890757E-01
         -2   -1    0    0    0  501 -0.00000000000E+00  0.00000000000E+00  0.68139205387E+03  0.68139205387E+03  0.00000000000E+00 0.  1.
          2   -1    0    0  501    0  0.00000000000E+00 -0.00000000000E+00 -0.81515529284E+03  0.81515529284E+03  0.00000000000E+00 0. -1.
         23    2    1    2    0    0  0.20270163251E+02  0.17221664625E+03 -0.45782046101E+03  0.49745947942E+03  0.88300092758E+02 0.  0.
        254    2    1    2    0    0 -0.20270163251E+02 -0.17221664625E+03  0.32405722205E+03  0.99908786729E+03  0.92902854135E+03 0.  0.
         23    2    4    4    0    0 -0.31279732030E+03  0.78169810116E+02 -0.16376944580E+03  0.37119403451E+03  0.83737071115E+02 0.  0.
         23    2    4    4    0    0  0.29252715705E+03 -0.25038645637E+03  0.48782666784E+03  0.62789383279E+03  0.89500236037E+02 0.  0.
          4    1    3    3  502    0 -0.23687273234E+02  0.78625100965E+02 -0.13041118815E+03  0.15411058176E+03  0.00000000000E+00 0. -1.
         -4    1    3    3    0  502  0.43957436485E+02  0.93591545286E+02 -0.32740927286E+03  0.34334889766E+03  0.00000000000E+00 0.  1.
         11    1    5    5    0    0 -0.19673930964E+03  0.75050883212E+02 -0.69815999189E+02  0.22184062921E+03  0.00000000000E+00 0. -1.
        -11    1    5    5    0    0 -0.11605801066E+03  0.31189269043E+01 -0.93953446606E+02  0.14935340529E+03  0.00000000000E+00 0.  1.
          3    1    6    6  503    0  0.64258085431E+02 -0.45474604802E+02  0.49842561313E+02  0.93173612914E+02  0.00000000000E+00 0. -1.
         -3    1    6    6    0  503  0.22826907162E+03 -0.20491185157E+03  0.43798410653E+03  0.53472021987E+03  0.00000000000E+00 0.  1.
<mgrwt>
<rscale>  0 0.14905574E+04</rscale>
<asrwt>0</asrwt>
<pdfrwt beam="1">  1        2 0.12540851E+00 0.14905574E+04</pdfrwt>
<pdfrwt beam="2">  1       -2 0.10482955E+00 0.14905574E+04</pdfrwt>
<totfact> 0.23972049E+01</totfact>
</mgrwt>
</event>
<event>
12    2  0.3518828E-008  0.2900040E+04  0.7818608E-02  0.8272866E-01
         -1   -1    0    0    0  501 -0.00000000000E+00  0.00000000000E+00  0.10897305526E+04  0.10897305526E+04  0.00000000000E+00 0.  1.
          1   -1    0    0  501    0  0.00000000000E+00 -0.00000000000E+00 -0.19294292781E+04  0.19294292781E+04  0.00000000000E+00 0. -1.
         23    2    1    2    0    0  0.87009264648E+03  0.67362108461E+03 -0.11156254196E+04  0.15695351891E+04  0.89409472691E+02 0.  0.
        254    2    1    2    0    0 -0.87009264648E+03 -0.67362108461E+03  0.27592669407E+03  0.14496246417E+04  0.90246854915E+03 0.  0.
         23    2    4    4    0    0 -0.67673192464E+03 -0.87951659830E+03  0.29124934163E+03  0.11508969879E+04  0.90676089626E+02 0.  0.
         23    2    4    4    0    0 -0.19336072184E+03  0.20589551369E+03 -0.15322647553E+02  0.29872765380E+03  0.96031746338E+02 0.  0.
          4    1    3    3  502    0  0.76560788020E+03  0.61658618282E+03 -0.96462686265E+03  0.13772577577E+04  0.00000000000E+00 0. -1.
         -4    1    3    3    0  502  0.10448476627E+03  0.57034901792E+02 -0.15099855695E+03  0.19227743135E+03  0.00000000000E+00 0.  1.
         11    1    5    5    0    0 -0.22377744606E+03 -0.31347263798E+03  0.14359628661E+03  0.41104906478E+03  0.00000000000E+00 0. -1.
        -11    1    5    5    0    0 -0.45295447857E+03 -0.56604396032E+03  0.14765305502E+03  0.73984792311E+03  0.00000000000E+00 0.  1.
          2    1    6    6  503    0 -0.38143216041E+01  0.39328185244E+02 -0.24025121750E+02  0.46243504182E+02  0.00000000000E+00 0. -1.
         -2    1    6    6    0  503 -0.18954640024E+03  0.16656732845E+03  0.87024741972E+01  0.25248414962E+03  0.00000000000E+00 0.  1.
<mgrwt>
<rscale>  0 0.29000400E+04</rscale>
<asrwt>0</asrwt>
<pdfrwt beam="1">  1        1 0.29683527E+00 0.29000400E+04</pdfrwt>
<pdfrwt beam="2">  1       -1 0.16765086E+00 0.29000400E+04</pdfrwt>
<totfact> 0.73142263E-01</totfact>
</mgrwt>
</event>
<event>
12    2  0.3518828E-008  0.1931032E+04  0.7818608E-02  0.8639562E-01
         -2   -1    0    0    0  501 -0.00000000000E+00  0.00000000000E+00  0.88843078880E+03  0.88843078880E+03  0.00000000000E+00 0. -1.
          2   -1    0    0  501    0  0.00000000000E+00 -0.00000000000E+00 -0.10492900756E+04  0.10492900756E+04  0.00000000000E+00 0.  1.
         23    2    1    2    0    0 -0.73507551323E+03 -0.15249896818E+03 -0.13743611416E+03  0.76859215022E+03  0.90847468154E+02 0.  0.
        254    2    1    2    0    0  0.73507551323E+03  0.15249896818E+03 -0.23423172640E+02  0.11691287142E+04  0.89594718587E+03 0.  0.
         23    2    4    4    0    0  0.28919559618E+03  0.10972195819E+03  0.42166507344E+03  0.53109545837E+03  0.92671197153E+02 0.  0.
         23    2    4    4    0    0  0.44587991704E+03  0.42777009991E+02 -0.44508824608E+03  0.63803325581E+03  0.91346131322E+02 0.  0.
          1    1    3    3  502    0 -0.18749027675E+03 -0.40919645281E+02  0.47032460030E+01  0.19196130279E+03  0.00000000000E+00 0. -1.
         -1    1    3    3    0  502 -0.54758523648E+03 -0.11157932290E+03 -0.14213936017E+03  0.57663084744E+03  0.00000000000E+00 0.  1.
         11    1    5    5    0    0  0.23492005012E+03  0.51941180281E+02  0.34659868025E+03  0.42191937774E+03  0.00000000000E+00 0.  1.
        -11    1    5    5    0    0  0.54275546061E+02  0.57780777911E+02  0.75066393193E+02  0.10917608064E+03  0.00000000000E+00 0. -1.
          4    1    6    6  503    0  0.35729659815E+03  0.58106852233E+02 -0.39223936385E+03  0.53374992635E+03  0.00000000000E+00 0.  1.
         -4    1    6    6    0  503  0.88583318893E+02 -0.15329842242E+02 -0.52848882236E+02  0.10428332946E+03  0.00000000000E+00 0. -1.
<mgrwt>
<rscale>  0 0.19310325E+04</rscale>
<asrwt>0</asrwt>
<pdfrwt beam="1">  1        2 0.16142924E+00 0.19310325E+04</pdfrwt>
<pdfrwt beam="2">  1       -2 0.13668166E+00 0.19310325E+04</pdfrwt>
<totfact> 0.83669740E+00</totfact>
</mgrwt>
</event>
<event>
12    2  0.3518828E-008  0.2119680E+04  0.7818608E-02  0.8552623E-01
         -1   -1    0    0    0  501 -0.00000000000E+00  0.00000000000E+00  0.77235832721E+03  0.77235832721E+03  0.00000000000E+00 0.  1.
          1   -1    0    0  501    0  0.00000000000E+00 -0.00000000000E+00 -0.14543264733E+04  0.14543264733E+04  0.00000000000E+00 0. -1.
         23    2    1    2    0    0 -0.43035286230E+03  0.50207369865E+03 -0.87277082919E+03  0.10990606634E+04  0.94466060973E+02 0.  0.
        254    2    1    2    0    0  0.43035286230E+03 -0.50207369865E+03  0.19080268306E+03  0.11276241371E+04  0.89322390574E+03 0.  0.
         23    2    4    4    0    0  0.27139684223E+03 -0.32389630141E+03  0.54176966962E+03  0.69309614005E+03  0.91119835370E+02 0.  0.
         23    2    4    4    0    0  0.15895602006E+03 -0.17817739724E+03 -0.35096698656E+03  0.43452799707E+03  0.92857705008E+02 0.  0.
          4    1    3    3  502    0 -0.34823851614E+03  0.43622754430E+03 -0.77733283392E+03  0.95698007776E+03  0.00000000000E+00 0. -1.
         -4    1    3    3    0  502 -0.82114346160E+02  0.65846154346E+02 -0.95437995264E+02  0.14208058568E+03  0.00000000000E+00 0.  1.
         11    1    5    5    0    0  0.24442188247E+03 -0.23392726766E+03  0.42744483770E+03  0.54513586605E+03  0.00000000000E+00 0.  1.
        -11    1    5    5    0    0  0.26974959766E+02 -0.89969033754E+02  0.11432483192E+03  0.14796027400E+03  0.00000000000E+00 0. -1.
          3    1    6    6  503    0  0.10175125069E+03 -0.49305677401E+02 -0.12871326778E+03  0.17132271344E+03  0.00000000000E+00 0. -1.
         -3    1    6    6    0  503  0.57204769373E+02 -0.12887171984E+03 -0.22225371878E+03  0.26320528362E+03  0.00000000000E+00 0.  1.
<mgrwt>
<rscale>  0 0.21196803E+04</rscale>
<asrwt>0</asrwt>
<pdfrwt beam="1">  1        1 0.22374253E+00 0.21196803E+04</pdfrwt>
<pdfrwt beam="2">  1       -1 0.11882436E+00 0.21196803E+04</pdfrwt>
<totfact> 0.40981912E+00</totfact>
</mgrwt>
</event>
<event>
12    2  0.3518828E-008  0.2764684E+04  0.7818608E-02  0.8314317E-01
          2   -1    0    0  501    0  0.00000000000E+00  0.00000000000E+00  0.93115214337E+03  0.93115214337E+03  0.00000000000E+00 0. -1.
         -2   -1    0    0    0  501 -0.00000000000E+00 -0.00000000000E+00 -0.20521566120E+04  0.20521566120E+04  0.00000000000E+00 0.  1.
         23    2    1    2    0    0 -0.53101110413E+03 -0.57566928138E+02 -0.17091328742E+04  0.17929867819E+04  0.91540562098E+02 0.  0.
        254    2    1    2    0    0  0.53101110413E+03  0.57566928138E+02  0.58812840557E+03  0.11903219735E+04  0.88638853508E+03 0.  0.
         23    2    4    4    0    0  0.39769087520E+03  0.92398983710E+02 -0.14157015331E+03  0.44211253437E+03  0.93411885384E+02 0.  0.
         23    2    4    4    0    0  0.13332022894E+03 -0.34832055572E+02  0.72969855888E+03  0.74820943909E+03  0.91486733276E+02 0.  0.
          4    1    3    3  502    0 -0.29796107637E+03  0.57136221369E+01 -0.10272275773E+04  0.10695840052E+04  0.00000000000E+00 0. -1.
         -4    1    3    3    0  502 -0.23305002776E+03 -0.63280550275E+02 -0.68190529688E+03  0.72340277674E+03  0.00000000000E+00 0.  1.
         11    1    5    5    0    0  0.78204243433E+02  0.26569727171E+02  0.85360676966E+01  0.83034441918E+02  0.00000000000E+00 0. -1.
        -11    1    5    5    0    0  0.31948663176E+03  0.65829256538E+02 -0.15010622101E+03  0.35907809245E+03  0.00000000000E+00 0.  1.
          4    1    6    6  503    0  0.33310068398E+02 -0.41419009792E+02  0.40278597450E+03  0.40627778217E+03  0.00000000000E+00 0. -1.
         -4    1    6    6    0  503  0.10001016054E+03  0.65869542199E+01  0.32691258438E+03  0.34193165692E+03  0.00000000000E+00 0.  1.
<mgrwt>
<rscale>  0 0.27646845E+04</rscale>
<asrwt>0</asrwt>
<pdfrwt beam="1">  1        2 0.14325418E+00 0.27646845E+04</pdfrwt>
<pdfrwt beam="2">  1       -2 0.31571640E+00 0.27646845E+04</pdfrwt>
<totfact> 0.62051982E-01</totfact>
</mgrwt>
</event>
<event>
12    2  0.3518828E-008  0.1618290E+04  0.7818608E-02  0.8809390E-01
          1   -1    0    0  501    0  0.00000000000E+00  0.00000000000E+00  0.54115624643E+03  0.54115624643E+03  0.00000000000E+00 0. -1.
         -1   -1    0    0    0  501 -0.00000000000E+00 -0.00000000000E+00 -0.12098451123E+04  0.12098451123E+04  0.00000000000E+00 0.  1.
         23    2    1    2    0    0  0.56400532531E+03  0.34296925301E+02 -0.21132518322E+03  0.60982229502E+03  0.89143773627E+02 0.  0.
        254    2    1    2    0    0 -0.56400532531E+03 -0.34296925301E+02 -0.45736368264E+03  0.11411790637E+04  0.87967598079E+03 0.  0.
         23    2    4    4    0    0 -0.60850233119E+03  0.29713377064E+03 -0.21060608102E+03  0.71570656875E+03  0.96526713780E+02 0.  0.
         23    2    4    4    0    0  0.44497005872E+02 -0.33143069594E+03 -0.24675760162E+03  0.42547249496E+03  0.91166003899E+02 0.  0.
          2    1    3    3  502    0  0.45122805312E+03  0.36747556121E+01 -0.19595958992E+03  0.49195571003E+03  0.00000000000E+00 0.  1.
         -2    1    3    3    0  502  0.11277727219E+03  0.30622169689E+02 -0.15365593299E+02  0.11786658499E+03  0.00000000000E+00 0. -1.
         11    1    5    5    0    0 -0.47683804009E+03  0.21270548719E+03 -0.19936082302E+03  0.55889433573E+03  0.00000000000E+00 0. -1.
        -11    1    5    5    0    0 -0.13166429110E+03  0.84428283450E+02 -0.11245258000E+02  0.15681223302E+03  0.00000000000E+00 0.  1.
          2    1    6    6  503    0  0.34491544374E+02 -0.22548751739E+03 -0.11304973728E+03  0.25458697969E+03  0.00000000000E+00 0. -1.
         -2    1    6    6    0  503  0.10005461499E+02 -0.10594317855E+03 -0.13370786433E+03  0.17088551526E+03  0.00000000000E+00 0.  1.
<mgrwt>
<rscale>  0 0.16182895E+04</rscale>
<asrwt>0</asrwt>
<pdfrwt beam="1">  1        1 0.83254808E-01 0.16182895E+04</pdfrwt>
<pdfrwt beam="2">  1       -1 0.18613001E+00 0.16182895E+04</pdfrwt>
<totfact> 0.71540101E+00</totfact>
</mgrwt>
</event>
<event>
12    2  0.3518828E-008  0.2277513E+04  0.7818608E-02  0.8486841E-01
          2   -1    0    0  501    0  0.00000000000E+00  0.00000000000E+00  0.10977066822E+04  0.10977066822E+04  0.00000000000E+00 0.  1.
         -2   -1    0    0    0  501 -0.00000000000E+00 -0.00000000000E+00 -0.11813409518E+04  0.11813409518E+04  0.00000000000E+00 0. -1.
         23    2    1    2    0    0  0.10065344830E+03 -0.87337948395E+03 -0.43118025542E+03  0.98351057055E+03  0.91944494620E+02 0.  0.
        254    2    1    2    0    0 -0.10065344830E+03  0.87337948395E+03  0.34754598572E+03  0.12955370634E+04  0.88583589391E+03 0.  0.
         23    2    4    4    0    0 -0.31973621682E+02  0.65069922162E+03  0.63502141989E+03  0.91436370211E+03  0.91525878947E+02 0.  0.
         23    2    4    4    0    0 -0.68679826618E+02  0.22268026233E+03 -0.28747543417E+03  0.38117336134E+03  0.91365137376E+02 0.  0.
          2    1    3    3  502    0  0.95059632730E+02 -0.73540883795E+03 -0.32646125539E+03  0.81020950623E+03  0.00000000000E+00 0. -1.
         -2    1    3    3    0  502  0.55938155704E+01 -0.13797064600E+03 -0.10471900002E+03  0.17330106432E+03  0.00000000000E+00 0.  1.
         11    1    5    5    0    0  0.13221341634E+02  0.50843896652E+03  0.48953113745E+03  0.70592189446E+03  0.00000000000E+00 0. -1.
        -11    1    5    5    0    0 -0.45194963316E+02  0.14226025510E+03  0.14549028244E+03  0.20844180765E+03  0.00000000000E+00 0.  1.
          1    1    6    6  503    0 -0.72322764627E+02  0.20933534292E+03 -0.29211491928E+03  0.36658286123E+03  0.00000000000E+00 0. -1.
         -1    1    6    6    0  503  0.36429380091E+01  0.13344919410E+02  0.46394851121E+01  0.14590500111E+02  0.00000000000E+00 0.  1.
<mgrwt>
<rscale>  0 0.22775126E+04</rscale>
<asrwt>0</asrwt>
<pdfrwt beam="1">  1        2 0.16887795E+00 0.22775126E+04</pdfrwt>
<pdfrwt beam="2">  1       -2 0.18174476E+00 0.22775126E+04</pdfrwt>
<totfact> 0.35011156E+00</totfact>
</mgrwt>
</event>
<event>
12    2  0.3518828E-008  0.2183582E+04  0.7818608E-02  0.8525293E-01
         -2   -1    0    0    0  501 -0.00000000000E+00  0.00000000000E+00  0.72092650042E+03  0.72092650042E+03  0.00000000000E+00 0.  1.
          2   -1    0    0  501    0  0.00000000000E+00 -0.00000000000E+00 -0.16534387949E+04  0.16534387949E+04  0.00000000000E+00 0. -1.
         23    2    1    2    0    0  0.65852033079E+03 -0.41250080836E+03 -0.90710710100E+03  0.11983628720E+04  0.97079026578E+02 0.  0.
        254    2    1    2    0    0 -0.65852033079E+03  0.41250080836E+03 -0.25405193490E+02  0.11760024233E+04  0.88234365915E+03 0.  0.
         23    2    4    4    0    0  0.16818876713E+03  0.97651499265E+02 -0.17456928529E+03  0.27430900047E+03  0.83352958409E+02 0.  0.
         23    2    4    4    0    0 -0.82670909792E+03  0.31484930909E+03  0.14916409180E+03  0.90169342285E+03  0.90681213673E+02 0.  0.
          1    1    3    3  502    0  0.45490998788E+03 -0.26726699015E+03 -0.54762876848E+03  0.76044198277E+03  0.00000000000E+00 0. -1.
         -1    1    3    3    0  502  0.20361034291E+03 -0.14523381820E+03 -0.35947833252E+03  0.43792088925E+03  0.00000000000E+00 0.  1.
         11    1    5    5    0    0  0.17158697533E+03  0.99659764059E+02 -0.14824601142E+03  0.24769141806E+03  0.00000000000E+00 0. -1.
        -11    1    5    5    0    0 -0.33982082051E+01 -0.20082647934E+01 -0.26323273865E+02  0.26617582412E+02  0.00000000000E+00 0.  1.
          2    1    6    6  503    0 -0.66580484739E+03  0.26032489451E+03  0.15581576941E+03  0.73167185234E+03  0.00000000000E+00 0. -1.
         -2    1    6    6    0  503 -0.16090425052E+03  0.54524414585E+02 -0.66516776154E+01  0.17002157051E+03  0.00000000000E+00 0.  1.
<mgrwt>
<rscale>  0 0.21835822E+04</rscale>
<asrwt>0</asrwt>
<pdfrwt beam="1">  1        2 0.25437520E+00 0.21835822E+04</pdfrwt>
<pdfrwt beam="2">  1       -2 0.11091177E+00 0.21835822E+04</pdfrwt>
<totfact> 0.61370148E+00</totfact>
</mgrwt>
</event>
<event>
12    2  0.3518828E-008  0.1328098E+04  0.7818608E-02  0.9007576E-01
          1   -1    0    0  501    0  0.00000000000E+00  0.00000000000E+00  0.12574722702E+04  0.12574722702E+04  0.00000000000E+00 0. -1.
         -1   -1    0    0    0  501 -0.00000000000E+00 -0.00000000000E+00 -0.35067237788E+03  0.35067237788E+03  0.00000000000E+00 0.  1.
         23    2    1    2    0    0 -0.82456286393E+02 -0.20126610532E+03 -0.11216608562E+03  0.26090165660E+03  0.90450866988E+02 0.  0.
        254    2    1    2    0    0  0.82456286393E+02  0.20126610532E+03  0.10189659780E+04  0.13472429915E+04  0.85408719086E+03 0.  0.
         23    2    4    4    0    0  0.11735095434E+03  0.14066057286E+03 -0.96029906785E+02  0.22623482309E+03  0.91672291018E+02 0.  0.
         23    2    4    4    0    0 -0.34894667943E+02  0.60605532467E+02  0.11149958848E+04  0.11210081684E+04  0.92481469657E+02 0.  0.
          1    1    3    3  502    0 -0.14194242318E+02 -0.37686375612E+02  0.14761456353E+02  0.42891024882E+02  0.00000000000E+00 0. -1.
         -1    1    3    3    0  502 -0.68262044075E+02 -0.16357972971E+03 -0.12692754197E+03  0.21801063172E+03  0.00000000000E+00 0.  1.
         11    1    5    5    0    0  0.27153957878E+02  0.75405498715E+02 -0.80911439228E+02  0.11388585366E+03  0.00000000000E+00 0.  1.
        -11    1    5    5    0    0  0.90196996458E+02  0.65255074140E+02 -0.15118467557E+02  0.11234896943E+03  0.00000000000E+00 0. -1.
          2    1    6    6  503    0 -0.60925689886E+02  0.14425678161E+02  0.64529035937E+03  0.64832066739E+03  0.00000000000E+00 0. -1.
         -2    1    6    6    0  503  0.26031021943E+02  0.46179854305E+02  0.46970552539E+03  0.47268750103E+03  0.00000000000E+00 0.  1.
<mgrwt>
<rscale>  0 0.13280976E+04</rscale>
<asrwt>0</asrwt>
<pdfrwt beam="1">  1        1 0.19345727E+00 0.13280976E+04</pdfrwt>
<pdfrwt beam="2">  1       -1 0.53949597E-01 0.13280976E+04</pdfrwt>
<totfact> 0.32999708E+01</totfact>
</mgrwt>
</event>
<event>
12    2  0.3518828E-008  0.1894331E+04  0.7818608E-02  0.8657683E-01
         -2   -1    0    0    0  501 -0.00000000000E+00  0.00000000000E+00  0.23430467327E+04  0.23430467327E+04  0.00000000000E+00 0.  1.
          2   -1    0    0  501    0  0.00000000000E+00 -0.00000000000E+00 -0.38288716149E+03  0.38288716149E+03  0.00000000000E+00 0. -1.
         23    2    1    2    0    0 -0.32039974752E+02  0.54987260335E+03  0.14470341141E+04  0.15510575258E+04  0.92115585148E+02 0.  0.
        254    2    1    2    0    0  0.32039974752E+02 -0.54987260335E+03  0.51312545712E+03  0.11748763684E+04  0.90202566839E+03 0.  0.
         23    2    4    4    0    0 -0.38291160064E+03 -0.28260183010E+03  0.46364318457E+03  0.67074018173E+03  0.91881992303E+02 0.  0.
         23    2    4    4    0    0  0.41495157539E+03 -0.26727077325E+03  0.49482272547E+02  0.50413618669E+03  0.89923986146E+02 0.  0.
          4    1    3    3  502    0  0.16423642909E+02  0.46763828660E+02  0.86814958354E+02  0.99967138157E+02  0.00000000000E+00 0. -1.
         -4    1    3    3    0  502 -0.48463617662E+02  0.50310877469E+03  0.13602191557E+04  0.14510903876E+04  0.00000000000E+00 0.  1.
         11    1    5    5    0    0 -0.98431894983E+02 -0.28153117031E+02  0.84302822144E+02  0.13262127194E+03  0.00000000000E+00 0. -1.
        -11    1    5    5    0    0 -0.28447970565E+03 -0.25444871307E+03  0.37934036243E+03  0.53811890979E+03  0.00000000000E+00 0.  1.
          3    1    6    6  503    0  0.19373801399E+03 -0.91678761519E+02  0.56357073127E+02  0.22162024517E+03  0.00000000000E+00 0.  1.
         -3    1    6    6    0  503  0.22121356140E+03 -0.17559201173E+03 -0.68748005794E+01  0.28251594152E+03  0.00000000000E+00 0. -1.
<mgrwt>
<rscale>  0 0.18943310E+04</rscale>
<asrwt>0</asrwt>
<pdfrwt beam="1">  1        2 0.58905719E-01 0.18943310E+04</pdfrwt>
<pdfrwt beam="2">  1       -2 0.36046872E+00 0.18943310E+04</pdfrwt>
<totfact> 0.10488654E+00</totfact>
</mgrwt>
</event>
<event>
12    2  0.3518828E-008  0.2161692E+04  0.7818608E-02  0.8534544E-01
          1   -1    0    0  501    0  0.00000000000E+00  0.00000000000E+00  0.31581845251E+04  0.31581845251E+04  0.00000000000E+00 0. -1.
         -1   -1    0    0    0  501 -0.00000000000E+00 -0.00000000000E+00 -0.36990495462E+03  0.36990495462E+03  0.00000000000E+00 0.  1.
         23    2    1    2    0    0 -0.21592179717E+03 -0.84143186901E+03  0.14855279258E+04  0.17232967780E+04  0.91262007305E+02 0.  0.
        254    2    1    2    0    0  0.21592179717E+03  0.84143186901E+03  0.13027516446E+04  0.18047927017E+04  0.89748818145E+03 0.  0.
         23    2    4    4    0    0  0.48842583477E+03  0.80068248500E+03  0.11095790344E+04  0.14557532455E+04  0.91649551569E+02 0.  0.
         23    2    4    4    0    0 -0.27250403760E+03  0.40749384004E+02  0.19317261021E+03  0.34903945620E+03  0.92703407947E+02 0.  0.
          3    1    3    3  502    0 -0.18700523347E+03 -0.62783541505E+03  0.10553700663E+04  0.12421570925E+04  0.00000000000E+00 0. -1.
         -3    1    3    3    0  502 -0.28916563705E+02 -0.21359645396E+03  0.43015785953E+03  0.48113968545E+03  0.00000000000E+00 0.  1.
         11    1    5    5    0    0  0.39899160764E+03  0.60159674608E+03  0.80826487389E+03  0.10836997067E+04  0.00000000000E+00 0.  1.
        -11    1    5    5    0    0  0.89434227127E+02  0.19908573892E+03  0.30131416053E+03  0.37205353883E+03  0.00000000000E+00 0. -1.
          2    1    6    6  503    0 -0.13439457270E+03 -0.22387333962E+02  0.68156740774E+02  0.15234314952E+03  0.00000000000E+00 0. -1.
         -2    1    6    6    0  503 -0.13810946490E+03  0.63136717966E+02  0.12501586944E+03  0.19669630668E+03  0.00000000000E+00 0.  1.
<mgrwt>
<rscale>  0 0.21616920E+04</rscale>
<asrwt>0</asrwt>
<pdfrwt beam="1">  1        1 0.48587453E+00 0.21616920E+04</pdfrwt>
<pdfrwt beam="2">  1       -1 0.56908457E-01 0.21616920E+04</pdfrwt>
<totfact> 0.13084490E+00</totfact>
</mgrwt>
</event>
<event>
12    2  0.3518828E-008  0.2621790E+04  0.7818608E-02  0.8360837E-01
          1   -1    0    0  501    0  0.00000000000E+00  0.00000000000E+00  0.22577340047E+04  0.22577340047E+04  0.00000000000E+00 0. -1.
         -1   -1    0    0    0  501 -0.00000000000E+00 -0.00000000000E+00 -0.76113753231E+03  0.76113753231E+03  0.00000000000E+00 0.  1.
         23    2    1    2    0    0  0.48761198207E+03 -0.18131995366E+03  0.18452047013E+04  0.19192876719E+04  0.90787703786E+02 0.  0.
        254    2    1    2    0    0 -0.48761198207E+03  0.18131995366E+03 -0.34860822889E+03  0.10995838651E+04  0.90383328583E+03 0.  0.
         23    2    4    4    0    0 -0.61477909293E+03  0.34010009836E+03 -0.46367073817E+03  0.84675024701E+03  0.91509657275E+02 0.  0.
         23    2    4    4    0    0  0.12716711086E+03 -0.15878014470E+03  0.11506250928E+03  0.25283361813E+03  0.96451277749E+02 0.  0.
          3    1    3    3  502    0  0.23241360739E+03 -0.38404255703E+02  0.83475224620E+03  0.86735360972E+03  0.00000000000E+00 0. -1.
         -3    1    3    3    0  502  0.25519837468E+03 -0.14291569796E+03  0.10104524551E+04  0.10519340622E+04  0.00000000000E+00 0.  1.
         11    1    5    5    0    0 -0.48995305243E+03  0.29417542561E+03 -0.40990141765E+03  0.70328681689E+03  0.00000000000E+00 0. -1.
        -11    1    5    5    0    0 -0.12482604050E+03  0.45924672753E+02 -0.53769320517E+02  0.14346343012E+03  0.00000000000E+00 0.  1.
          4    1    6    6  503    0  0.97298402158E+02 -0.16724294137E+03  0.10533255947E+03  0.22030008757E+03  0.00000000000E+00 0. -1.
         -4    1    6    6    0  503  0.29868708701E+02  0.84627966727E+01  0.97299498088E+01  0.32533530554E+02  0.00000000000E+00 0.  1.
<mgrwt>
<rscale>  0 0.26217903E+04</rscale>
<asrwt>0</asrwt>
<pdfrwt beam="1">  1        1 0.34734369E+00 0.26217903E+04</pdfrwt>
<pdfrwt beam="2">  1       -1 0.11709808E+00 0.26217903E+04</pdfrwt>
<totfact> 0.11488819E+00</totfact>
</mgrwt>
</event>
<event>
12    2  0.3518828E-008  0.2630882E+04  0.7818608E-02  0.8357786E-01
         -1   -1    0    0    0  501 -0.00000000000E+00  0.00000000000E+00  0.21246187481E+04  0.21246187481E+04  0.00000000000E+00 0.  1.
          1   -1    0    0  501    0  0.00000000000E+00 -0.00000000000E+00 -0.81444476146E+03  0.81444476146E+03  0.00000000000E+00 0. -1.
         23    2    1    2    0    0 -0.85274348217E+02  0.83918483778E+03  0.14650251287E+04  0.16930955478E+04  0.93653617320E+02 0.  0.
        254    2    1    2    0    0  0.85274348217E+02 -0.83918483778E+03 -0.15485114203E+03  0.12459679617E+04  0.90385528655E+03 0.  0.
         23    2    4    4    0    0 -0.38208273118E+03 -0.40996019607E+03 -0.20378636419E+03  0.60284479595E+03  0.88534682196E+02 0.  0.
         23    2    4    4    0    0  0.46735707939E+03 -0.42922464171E+03  0.48935222157E+02  0.64312316577E+03  0.92500365811E+02 0.  0.
          3    1    3    3  502    0 -0.87362566969E+02  0.46270569245E+03  0.76688961048E+03  0.89991580195E+03  0.00000000000E+00 0. -1.
         -3    1    3    3    0  502  0.20882187522E+01  0.37647914533E+03  0.69813551819E+03  0.79317974589E+03  0.00000000000E+00 0.  1.
         11    1    5    5    0    0 -0.15092835863E+02 -0.26034800530E+01 -0.18670917578E+02  0.24149015839E+02  0.00000000000E+00 0. -1.
        -11    1    5    5    0    0 -0.36698989531E+03 -0.40735671602E+03 -0.18511544661E+03  0.57869578012E+03  0.00000000000E+00 0.  1.
          2    1    6    6  503    0  0.25227424191E+03 -0.29307695763E+03  0.30997596440E+02  0.38793974688E+03  0.00000000000E+00 0. -1.
         -2    1    6    6    0  503  0.21508283749E+03 -0.13614768408E+03  0.17937625718E+02  0.25518341889E+03  0.00000000000E+00 0.  1.
<mgrwt>
<rscale>  0 0.26308817E+04</rscale>
<asrwt>0</asrwt>
<pdfrwt beam="1">  1        1 0.12529919E+00 0.26308817E+04</pdfrwt>
<pdfrwt beam="2">  1       -1 0.32686442E+00 0.26308817E+04</pdfrwt>
<totfact> 0.41645670E-01</totfact>
</mgrwt>
</event>
<event>
12    2  0.3518828E-008  0.3047183E+04  0.7818608E-02  0.8230384E-01
          1   -1    0    0  501    0  0.00000000000E+00  0.00000000000E+00  0.17509236558E+04  0.17509236558E+04  0.00000000000E+00 0. -1.
         -1   -1    0    0    0  501 -0.00000000000E+00 -0.00000000000E+00 -0.13257754982E+04  0.13257754982E+04  0.00000000000E+00 0.  1.
         23    2    1    2    0    0 -0.12901373260E+04  0.14419596211E+02 -0.32489391075E+03  0.13336670558E+04  0.91921258739E+02 0.  0.
        254    2    1    2    0    0  0.12901373260E+04 -0.14419596211E+02  0.75004206826E+03  0.17430320982E+04  0.90051959800E+03 0.  0.
         23    2    4    4    0    0  0.93577315957E+03  0.30701118419E+03  0.77284274457E+03  0.12552771435E+04  0.92236249791E+02 0.  0.
         23    2    4    4    0    0  0.35436416645E+03 -0.32143078040E+03 -0.22800676309E+02  0.48775495468E+03  0.92159187934E+02 0.  0.
          1    1    3    3  502    0 -0.68001060150E+03  0.25910989323E+02 -0.12786392046E+03  0.69241243466E+03  0.00000000000E+00 0. -1.
         -1    1    3    3    0  502 -0.61012672451E+03 -0.11491393112E+02 -0.19702999029E+03  0.64125462116E+03  0.00000000000E+00 0.  1.
         11    1    5    5    0    0  0.10447578811E+03  0.96315977294E+01  0.10318232218E+03  0.14715484901E+03  0.00000000000E+00 0. -1.
        -11    1    5    5    0    0  0.83129737146E+03  0.29737958646E+03  0.66966042239E+03  0.11081222945E+04  0.00000000000E+00 0.  1.
          3    1    6    6  503    0  0.28760774150E+02 -0.51316510248E+02  0.20935324187E+02  0.62440805188E+02  0.00000000000E+00 0. -1.
         -3    1    6    6    0  503  0.32560339230E+03 -0.27011427015E+03 -0.43736000496E+02  0.42531414949E+03  0.00000000000E+00 0.  1.
<mgrwt>
<rscale>  0 0.30471834E+04</rscale>
<asrwt>0</asrwt>
<pdfrwt beam="1">  1        1 0.26937287E+00 0.30471834E+04</pdfrwt>
<pdfrwt beam="2">  1       -1 0.20396546E+00 0.30471834E+04</pdfrwt>
<totfact> 0.52714079E-01</totfact>
</mgrwt>
</event>
<event>
12    2  0.3518828E-008  0.1774420E+04  0.7818608E-02  0.8720022E-01
          1   -1    0    0  501    0  0.00000000000E+00  0.00000000000E+00  0.74784786753E+03  0.74784786753E+03  0.00000000000E+00 0. -1.
         -1   -1    0    0    0  501 -0.00000000000E+00 -0.00000000000E+00 -0.10525421991E+04  0.10525421991E+04  0.00000000000E+00 0.  1.
         23    2    1    2    0    0  0.44999038882E+03  0.26517352212E+03 -0.51295668209E+03  0.73744552404E+03  0.88842536877E+02 0.  0.
        254    2    1    2    0    0 -0.44999038882E+03 -0.26517352212E+03  0.20826235050E+03  0.10629445426E+04  0.90203633363E+03 0.  0.
         23    2    4    4    0    0  0.21102808865E+03 -0.46692822083E+01  0.25753667366E+03  0.34479332274E+03  0.89457480020E+02 0.  0.
         23    2    4    4    0    0 -0.66101847747E+03 -0.26050423991E+03 -0.49274323153E+02  0.71815121988E+03  0.92224341273E+02 0.  0.
          4    1    3    3  502    0  0.22210551093E+03  0.10681260424E+03 -0.18705516269E+03  0.30940171993E+03  0.00000000000E+00 0. -1.
         -4    1    3    3    0  502  0.22788487789E+03  0.15836091788E+03 -0.32590151941E+03  0.42804380411E+03  0.00000000000E+00 0.  1.
         11    1    5    5    0    0  0.21636412728E+03 -0.13820627833E+02  0.25322075372E+03  0.33335445916E+03  0.00000000000E+00 0.  1.
        -11    1    5    5    0    0 -0.53360386320E+01  0.91513456243E+01  0.43159199334E+01  0.11438863575E+02  0.00000000000E+00 0. -1.
          2    1    6    6  503    0 -0.23021625801E+03 -0.48003283556E+02 -0.33397875713E+02  0.23752738534E+03  0.00000000000E+00 0. -1.
         -2    1    6    6    0  503 -0.43080221946E+03 -0.21250095636E+03 -0.15876447440E+02  0.48062383454E+03  0.00000000000E+00 0.  1.
<mgrwt>
<rscale>  0 0.17744198E+04</rscale>
<asrwt>0</asrwt>
<pdfrwt beam="1">  1        1 0.11505352E+00 0.17744198E+04</pdfrwt>
<pdfrwt beam="2">  1       -1 0.16192957E+00 0.17744198E+04</pdfrwt>
<totfact> 0.65746624E+00</totfact>
</mgrwt>
</event>
<event>
12    2  0.3518828E-008  0.1396858E+04  0.7818608E-02  0.8956096E-01
          2   -1    0    0  501    0  0.00000000000E+00  0.00000000000E+00  0.88428831561E+03  0.88428831561E+03  0.00000000000E+00 0. -1.
         -2   -1    0    0    0  501 -0.00000000000E+00 -0.00000000000E+00 -0.55163367581E+03  0.55163367581E+03  0.00000000000E+00 0.  1.
         23    2    1    2    0    0  0.83853390410E+01  0.34479397495E+03  0.30906720962E+03  0.47159409323E+03  0.89023871171E+02 0.  0.
        254    2    1    2    0    0 -0.83853390410E+01 -0.34479397495E+03  0.23587430182E+02  0.96432789819E+03  0.90023259733E+03 0.  0.
         23    2    4    4    0    0 -0.26463853403E+03 -0.43115424849E+03  0.27579413370E+03  0.58327128909E+03  0.90639135093E+02 0.  0.
         23    2    4    4    0    0  0.25625319499E+03  0.86360273544E+02 -0.25220670351E+03  0.38105660910E+03  0.92044126686E+02 0.  0.
          1    1    3    3  502    0  0.22964479383E+02  0.32488582562E+03  0.30570228273E+03  0.44669010809E+03  0.00000000000E+00 0. -1.
         -1    1    3    3    0  502 -0.14579140342E+02  0.19908149326E+02  0.33649268872E+01  0.24903985136E+02  0.00000000000E+00 0.  1.
         11    1    5    5    0    0 -0.16967847720E+03 -0.31448276172E+03  0.23401661702E+03  0.42714630993E+03  0.00000000000E+00 0. -1.
        -11    1    5    5    0    0 -0.94960056829E+02 -0.11667148677E+03  0.41777516674E+02  0.15612497916E+03  0.00000000000E+00 0.  1.
          4    1    6    6  503    0  0.94308254871E+02  0.76201241701E+02 -0.85092677026E+02  0.14812643200E+03  0.00000000000E+00 0. -1.
         -4    1    6    6    0  503  0.16194494011E+03  0.10159031844E+02 -0.16711402649E+03  0.23293017710E+03  0.00000000000E+00 0.  1.
<mgrwt>
<rscale>  0 0.13968582E+04</rscale>
<asrwt>0</asrwt>
<pdfrwt beam="1">  1        2 0.13604436E+00 0.13968582E+04</pdfrwt>
<pdfrwt beam="2">  1       -2 0.84866719E-01 0.13968582E+04</pdfrwt>
<totfact> 0.35390015E+01</totfact>
</mgrwt>
</event>
<event>
12    2  0.3518828E-008  0.1916282E+04  0.7818608E-02  0.8646794E-01
         -4   -1    0    0    0  501 -0.00000000000E+00  0.00000000000E+00  0.46182570141E+03  0.46182570141E+03  0.00000000000E+00 0.  1.
          4   -1    0    0  501    0  0.00000000000E+00 -0.00000000000E+00 -0.19878361648E+04  0.19878361648E+04  0.00000000000E+00 0. -1.
         23    2    1    2    0    0 -0.57443294630E+03  0.45040619868E+03 -0.66571302135E+03  0.99210586218E+03  0.90891481341E+02 0.  0.
        254    2    1    2    0    0  0.57443294630E+03 -0.45040619868E+03 -0.86029744201E+03  0.14575560040E+04  0.92277779690E+03 0.  0.
         23    2    4    4    0    0  0.27460574216E+03 -0.11310213196E+03  0.15103335663E+03  0.34634420027E+03  0.94566507634E+02 0.  0.
         23    2    4    4    0    0  0.29982720414E+03 -0.33730406672E+03 -0.10113307986E+04  0.11112118037E+04  0.91275970043E+02 0.  0.
          4    1    3    3  502    0 -0.11823159379E+02  0.30590467562E+02 -0.40111643397E+02  0.51812235422E+02  0.00000000000E+00 0. -1.
         -4    1    3    3    0  502 -0.56260978692E+03  0.41981573112E+03 -0.62560137795E+03  0.94029362676E+03  0.00000000000E+00 0.  1.
         11    1    5    5    0    0  0.12414961837E+03 -0.14630962755E+02  0.98083214644E+02  0.15889465002E+03  0.00000000000E+00 0.  1.
        -11    1    5    5    0    0  0.15045612379E+03 -0.98471169202E+02  0.52950141982E+02  0.18744955024E+03  0.00000000000E+00 0. -1.
          1    1    6    6  503    0  0.33297674596E+02 -0.32045031285E+02 -0.18743179176E+03  0.19304480238E+03  0.00000000000E+00 0. -1.
         -1    1    6    6    0  503  0.26652952954E+03 -0.30525903544E+03 -0.82389900688E+03  0.91816700135E+03  0.00000000000E+00 0.  1.
<mgrwt>
<rscale>  0 0.19162816E+04</rscale>
<asrwt>0</asrwt>
<pdfrwt beam="1">  1        4 0.30582094E+00 0.19162816E+04</pdfrwt>
<pdfrwt beam="2">  1       -4 0.71050109E-01 0.19162816E+04</pdfrwt>
<totfact> 0.96512961E-02</totfact>
</mgrwt>
</event>
<event>
12    2  0.3518828E-008  0.2473876E+04  0.7818608E-02  0.8412352E-01
          2   -1    0    0  501    0  0.00000000000E+00  0.00000000000E+00  0.31807628660E+04  0.31807628660E+04  0.00000000000E+00 0. -1.
         -2   -1    0    0    0  501 -0.00000000000E+00 -0.00000000000E+00 -0.48102141757E+03  0.48102141757E+03  0.00000000000E+00 0.  1.
         23    2    1    2    0    0  0.30507699376E+03 -0.33839540715E+03 -0.25449256469E+03  0.52925633291E+03  0.88104351424E+02 0.  0.
        254    2    1    2    0    0 -0.30507699376E+03  0.33839540715E+03  0.29542340131E+04  0.31325279507E+04  0.93682940483E+03 0.  0.
         23    2    4    4    0    0 -0.41107296236E+03  0.43155020920E+03  0.28914214600E+04  0.29536206135E+04  0.91324182047E+02 0.  0.
         23    2    4    4    0    0  0.10599596860E+03 -0.93154802045E+02  0.62812553168E+02  0.17890733713E+03  0.90274337097E+02 0.  0.
          1    1    3    3  502    0  0.13120203206E+03 -0.16945907326E+03 -0.72956954466E+02  0.22639140428E+03  0.00000000000E+00 0. -1.
         -1    1    3    3    0  502  0.17387496170E+03 -0.16893633389E+03 -0.18153561022E+03  0.30286492863E+03  0.00000000000E+00 0.  1.
         11    1    5    5    0    0 -0.16467083414E+03  0.11592216522E+03  0.10556999508E+04  0.10747356969E+04  0.00000000000E+00 0. -1.
        -11    1    5    5    0    0 -0.24640212822E+03  0.31562804398E+03  0.18357215091E+04  0.18788849167E+04  0.00000000000E+00 0.  1.
          2    1    6    6  503    0  0.19843584248E+02 -0.62332079208E+02 -0.41131197969E+01  0.65543677717E+02  0.00000000000E+00 0.  1.
         -2    1    6    6    0  503  0.86152384355E+02 -0.30822722837E+02  0.66925672964E+02  0.11336365941E+03  0.00000000000E+00 0. -1.
<mgrwt>
<rscale>  0 0.24738756E+04</rscale>
<asrwt>0</asrwt>
<pdfrwt beam="1">  1        2 0.48934812E+00 0.24738756E+04</pdfrwt>
<pdfrwt beam="2">  1       -2 0.74003297E-01 0.24738756E+04</pdfrwt>
<totfact> 0.19634437E+00</totfact>
</mgrwt>
</event>
<event>
12    2  0.3518828E-008  0.3719478E+04  0.7818608E-02  0.8063659E-01
         -2   -1    0    0    0  501 -0.00000000000E+00  0.00000000000E+00  0.23638856599E+04  0.23638856599E+04  0.00000000000E+00 0.  1.
          2   -1    0    0  501    0  0.00000000000E+00 -0.00000000000E+00 -0.14631120244E+04  0.14631120244E+04  0.00000000000E+00 0. -1.
         23    2    1    2    0    0  0.65195407222E+03  0.14094110693E+04  0.12516309991E+04  0.19966423012E+04  0.92285679935E+02 0.  0.
        254    2    1    2    0    0 -0.65195407222E+03 -0.14094110693E+04 -0.35085736357E+03  0.18303553831E+04  0.90311475703E+03 0.  0.
         23    2    4    4    0    0 -0.39868506921E+03 -0.10337357522E+04 -0.64291551357E+03  0.12844929507E+04  0.94986278372E+02 0.  0.
         23    2    4    4    0    0 -0.25326900301E+03 -0.37567531712E+03  0.29205815000E+03  0.54586243240E+03  0.85969182568E+02 0.  0.
          4    1    3    3  502    0  0.37737131318E+02  0.11323313790E+03  0.12407203319E+03  0.17216185414E+03  0.00000000000E+00 0. -1.
         -4    1    3    3    0  502  0.61421694090E+03  0.12961779314E+04  0.11275589659E+04  0.18244804471E+04  0.00000000000E+00 0.  1.
         11    1    5    5    0    0 -0.27152471250E+02 -0.10940861843E+03 -0.95822658355E+02  0.14795095246E+03  0.00000000000E+00 0. -1.
        -11    1    5    5    0    0 -0.37153259796E+03 -0.92432713376E+03 -0.54709285521E+03  0.11365419982E+04  0.00000000000E+00 0.  1.
          2    1    6    6  503    0 -0.56498674340E+02 -0.95537044562E+02  0.11733093487E+03  0.16151153322E+03  0.00000000000E+00 0.  1.
         -2    1    6    6    0  503 -0.19677032867E+03 -0.28013827256E+03  0.17472721513E+03  0.38435089918E+03  0.00000000000E+00 0. -1.
<mgrwt>
<rscale>  0 0.37194782E+04</rscale>
<asrwt>0</asrwt>
<pdfrwt beam="1">  1        2 0.22509416E+00 0.37194782E+04</pdfrwt>
<pdfrwt beam="2">  1       -2 0.36367472E+00 0.37194782E+04</pdfrwt>
<totfact> 0.13691810E-01</totfact>
</mgrwt>
</event>
<event>
12    2  0.3518828E-008  0.2698434E+04  0.7818608E-02  0.8335513E-01
         -1   -1    0    0    0  501 -0.00000000000E+00  0.00000000000E+00  0.16597749110E+04  0.16597749110E+04  0.00000000000E+00 0.  1.
          1   -1    0    0  501    0  0.00000000000E+00 -0.00000000000E+00 -0.10967667760E+04  0.10967667760E+04  0.00000000000E+00 0. -1.
         23    2    1    2    0    0 -0.40109728042E+03  0.28565328741E+03  0.13628755482E+04  0.14520366637E+04  0.92216504957E+02 0.  0.
        254    2    1    2    0    0  0.40109728042E+03 -0.28565328741E+03 -0.79986741315E+03  0.13045050233E+04  0.90524507638E+03 0.  0.
         23    2    4    4    0    0 -0.28059090884E+03 -0.36278063732E+02 -0.21256148349E+03  0.36628211497E+03  0.94513742156E+02 0.  0.
         23    2    4    4    0    0  0.68168818926E+03 -0.24937522368E+03 -0.58730592966E+03  0.93822290836E+03  0.91908548016E+02 0.  0.
          1    1    3    3  502    0 -0.80884993913E+02  0.17046156848E+02  0.20514395653E+03  0.22117187119E+03  0.00000000000E+00 0. -1.
         -1    1    3    3    0  502 -0.32021228651E+03  0.26860713056E+03  0.11577315917E+04  0.12308647925E+04  0.00000000000E+00 0.  1.
         11    1    5    5    0    0 -0.83741612486E+02  0.72493636660E+01 -0.17700514071E+02  0.85898306931E+02  0.00000000000E+00 0.  1.
        -11    1    5    5    0    0 -0.19684929635E+03 -0.43527427398E+02 -0.19486096942E+03  0.28038380804E+03  0.00000000000E+00 0. -1.
          3    1    6    6  503    0  0.34936634823E+03 -0.81490004584E+02 -0.26922560507E+03  0.44853081560E+03  0.00000000000E+00 0. -1.
         -3    1    6    6    0  503  0.33232184103E+03 -0.16788521909E+03 -0.31808032459E+03  0.48969209276E+03  0.00000000000E+00 0.  1.
<mgrwt>
<rscale>  0 0.26984336E+04</rscale>
<asrwt>0</asrwt>
<pdfrwt beam="1">  1        1 0.16873335E+00 0.26984336E+04</pdfrwt>
<pdfrwt beam="2">  1       -1 0.25534999E+00 0.26984336E+04</pdfrwt>
<totfact> 0.71626646E-01</totfact>
</mgrwt>
</event>
<event>
12    2  0.3518828E-008  0.2731928E+04  0.7818608E-02  0.8324719E-01
          2   -1    0    0  501    0  0.00000000000E+00  0.00000000000E+00  0.39528239904E+04  0.39528239904E+04  0.00000000000E+00 0. -1.
         -2   -1    0    0    0  501 -0.00000000000E+00 -0.00000000000E+00 -0.47203144977E+03  0.47203144977E+03  0.00000000000E+00 0.  1.
         23    2    1    2    0    0 -0.75639801595E+03 -0.80355971858E+03  0.24380817381E+04  0.26778017455E+04  0.92376656445E+02 0.  0.
        254    2    1    2    0    0  0.75639801595E+03  0.80355971858E+03  0.10427108026E+04  0.17470536947E+04  0.86435213575E+03 0.  0.
         23    2    4    4    0    0  0.31650166511E+03  0.54240558811E+03  0.10503010817E+04  0.12270343503E+04  0.90021156326E+02 0.  0.
         23    2    4    4    0    0  0.43989635083E+03  0.26115413047E+03 -0.75902791084E+01  0.52001934443E+03  0.93017347339E+02 0.  0.
          1    1    3    3  502    0 -0.40834955347E+03 -0.47048226663E+03  0.14667402241E+04  0.15935588493E+04  0.00000000000E+00 0. -1.
         -1    1    3    3    0  502 -0.34804846248E+03 -0.33307745194E+03  0.97134151395E+03  0.10842428962E+04  0.00000000000E+00 0.  1.
         11    1    5    5    0    0  0.16560279226E+03  0.23527286694E+03  0.40766992797E+03  0.49897131871E+03  0.00000000000E+00 0. -1.
        -11    1    5    5    0    0  0.15089887286E+03  0.30713272117E+03  0.64263115369E+03  0.72806303156E+03  0.00000000000E+00 0.  1.
          2    1    6    6  503    0  0.40614520880E+03  0.21618082186E+03 -0.26063109354E+02  0.46083333651E+03  0.00000000000E+00 0. -1.
         -2    1    6    6    0  503  0.33751142032E+02  0.44973308611E+02  0.18472830245E+02  0.59186007917E+02  0.00000000000E+00 0.  1.
<mgrwt>
<rscale>  0 0.27319277E+04</rscale>
<asrwt>0</asrwt>
<pdfrwt beam="1">  1        2 0.60812675E+00 0.27319277E+04</pdfrwt>
<pdfrwt beam="2">  1       -2 0.72620226E-01 0.27319277E+04</pdfrwt>
<totfact> 0.56082302E-01</totfact>
</mgrwt>
</event>
<event>
12    2  0.3518828E-008  0.2751398E+04  0.7818608E-02  0.8318518E-01
         -1   -1    0    0    0  501 -0.00000000000E+00  0.00000000000E+00  0.25752961027E+04  0.25752961027E+04  0.00000000000E+00 0.  1.
          1   -1    0    0  501    0  0.00000000000E+00 -0.00000000000E+00 -0.73488570914E+03  0.73488570914E+03  0.00000000000E+00 0. -1.
         23    2    1    2    0    0 -0.10166548794E+04 -0.57216307175E+03  0.37849921184E+03  0.12308835236E+04  0.10418671133E+03 0.  0.
        254    2    1    2    0    0  0.10166548794E+04  0.57216307175E+03  0.14619111818E+04  0.20792982883E+04  0.90848188969E+03 0.  0.
         23    2    4    4    0    0  0.10423237970E+04  0.73387687078E+03  0.11782949955E+04  0.17382246123E+04  0.89618900640E+02 0.  0.
         23    2    4    4    0    0 -0.25668917568E+02 -0.16171379903E+03  0.28361618625E+03  0.34107367595E+03  0.95304067052E+02 0.  0.
          2    1    3    3  502    0 -0.47192588090E+03 -0.29342795367E+03  0.13182035440E+03  0.57113098926E+03  0.00000000000E+00 0.  1.
         -2    1    3    3    0  502 -0.54472899849E+03 -0.27873511808E+03  0.24667885744E+03  0.65975253433E+03  0.00000000000E+00 0. -1.
         11    1    5    5    0    0  0.16690481048E+03  0.14805283755E+03  0.17536856813E+03  0.28377983219E+03  0.00000000000E+00 0.  1.
        -11    1    5    5    0    0  0.87541898647E+03  0.58582403323E+03  0.10029264274E+04  0.14544447802E+04  0.00000000000E+00 0. -1.
          4    1    6    6  503    0 -0.33401083500E+02 -0.13913320858E+03  0.15779734728E+03  0.21301099717E+03  0.00000000000E+00 0. -1.
         -4    1    6    6    0  503  0.77321659320E+01 -0.22580590452E+02  0.12581883897E+03  0.12806267878E+03  0.00000000000E+00 0.  1.
<mgrwt>
<rscale>  0 0.27513984E+04</rscale>
<asrwt>0</asrwt>
<pdfrwt beam="1">  1        1 0.11305934E+00 0.27513984E+04</pdfrwt>
<pdfrwt beam="2">  1       -1 0.39619940E+00 0.27513984E+04</pdfrwt>
<totfact> 0.16684709E-01</totfact>
</mgrwt>
</event>
<event>
12    2  0.3518828E-008  0.1331647E+04  0.7818608E-02  0.9004839E-01
         -1   -1    0    0    0  501 -0.00000000000E+00  0.00000000000E+00  0.48401709750E+03  0.48401709750E+03  0.00000000000E+00 0.  1.
          1   -1    0    0  501    0  0.00000000000E+00 -0.00000000000E+00 -0.91591998218E+03  0.91591998218E+03  0.00000000000E+00 0. -1.
         23    2    1    2    0    0 -0.20726292703E+03  0.27072092007E+03 -0.16773502813E+03  0.39526013514E+03  0.10884758740E+03 0.  0.
        254    2    1    2    0    0  0.20726292703E+03 -0.27072092007E+03 -0.26416785655E+03  0.10046769445E+04  0.90738270260E+03 0.  0.
         23    2    4    4    0    0 -0.23125286099E+02 -0.32463721374E+03 -0.53551322861E+03  0.63321450068E+03  0.90896019969E+02 0.  0.
         23    2    4    4    0    0  0.23038821313E+03  0.53916293672E+02  0.27134537207E+03  0.37146244386E+03  0.91489566519E+02 0.  0.
          2    1    3    3  502    0  0.85381518188E+01  0.29633012635E+02 -0.31813175915E+02  0.44306812525E+02  0.00000000000E+00 0. -1.
         -2    1    3    3    0  502 -0.21580107885E+03  0.24108790743E+03 -0.13592185222E+03  0.35095332261E+03  0.00000000000E+00 0.  1.
         11    1    5    5    0    0 -0.47163427808E+02 -0.94372910558E+02 -0.14677992646E+03  0.18076222499E+03  0.00000000000E+00 0.  1.
        -11    1    5    5    0    0  0.24038141709E+02 -0.23026430318E+03 -0.38873330215E+03  0.45245227569E+03  0.00000000000E+00 0. -1.
          2    1    6    6  503    0  0.55697766794E+02  0.54676318780E+02  0.69385080336E+02  0.10443194164E+03  0.00000000000E+00 0.  1.
         -2    1    6    6    0  503  0.17469044634E+03 -0.76002510770E+00  0.20196029173E+03  0.26703050222E+03  0.00000000000E+00 0. -1.
<mgrwt>
<rscale>  0 0.13316470E+04</rscale>
<asrwt>0</asrwt>
<pdfrwt beam="1">  1        1 0.14091077E+00 0.13316470E+04</pdfrwt>
<pdfrwt beam="2">  1       -1 0.74464169E-01 0.13316470E+04</pdfrwt>
<totfact> 0.31423896E+01</totfact>
</mgrwt>
</event>
<event>
12    2  0.3518828E-008  0.1047595E+04  0.7818608E-02  0.9257831E-01
          1   -1    0    0  501    0  0.00000000000E+00  0.00000000000E+00  0.21037789058E+04  0.21037789058E+04  0.00000000000E+00 0. -1.
         -1   -1    0    0    0  501 -0.00000000000E+00 -0.00000000000E+00 -0.13041467944E+03  0.13041467944E+03  0.00000000000E+00 0.  1.
         23    2    1    2    0    0 -0.10191312629E+02  0.12483300327E+00  0.61478771867E+02  0.13092952638E+03  0.11514783130E+03 0.  0.
        254    2    1    2    0    0  0.10191312629E+02 -0.12483300327E+00  0.19118854545E+04  0.21032640588E+04  0.87653284691E+03 0.  0.
         23    2    4    4    0    0 -0.17867123793E+03  0.29191022656E+03  0.15575211398E+04  0.15974036366E+04  0.93227063986E+02 0.  0.
         23    2    4    4    0    0  0.18886255056E+03 -0.29203505956E+03  0.35436431464E+03  0.50586042227E+03  0.96784091204E+02 0.  0.
          3    1    3    3  502    0 -0.23752179038E+02  0.26716175963E+02  0.85462851734E+02  0.92638108215E+02  0.00000000000E+00 0. -1.
         -3    1    3    3    0  502  0.13560866409E+02 -0.26591342960E+02 -0.23984079867E+02  0.38291418167E+02  0.00000000000E+00 0.  1.
         11    1    5    5    0    0  0.10889506969E+01  0.43663108714E+02  0.12354932723E+03  0.13104231811E+03  0.00000000000E+00 0. -1.
        -11    1    5    5    0    0 -0.17976018862E+03  0.24824711784E+03  0.14339718126E+04  0.14663613185E+04  0.00000000000E+00 0.  1.
          2    1    6    6  503    0  0.26453894537E+02 -0.15552437712E+02  0.73287894311E+02  0.79453145359E+02  0.00000000000E+00 0. -1.
         -2    1    6    6    0  503  0.16240865602E+03 -0.27648262185E+03  0.28107642033E+03  0.42640727691E+03  0.00000000000E+00 0.  1.
<mgrwt>
<rscale>  0 0.10475947E+04</rscale>
<asrwt>0</asrwt>
<pdfrwt beam="1">  1        1 0.32365827E+00 0.10475947E+04</pdfrwt>
<pdfrwt beam="2">  1       -1 0.20063798E-01 0.10475947E+04</pdfrwt>
<totfact> 0.51788574E+01</totfact>
</mgrwt>
</event>
<event>
12    2  0.3518828E-008  0.1681744E+04  0.7818608E-02  0.8771846E-01
          2   -1    0    0  501    0  0.00000000000E+00  0.00000000000E+00  0.11389413652E+04  0.11389413652E+04  0.00000000000E+00 0. -1.
         -2   -1    0    0    0  501 -0.00000000000E+00 -0.00000000000E+00 -0.62080947193E+03  0.62080947193E+03  0.00000000000E+00 0.  1.
         23    2    1    2    0    0  0.42006080952E+03  0.42578466657E+03  0.16124460554E+03  0.62649788109E+03  0.93574068067E+02 0.  0.
        254    2    1    2    0    0 -0.42006080952E+03 -0.42578466657E+03  0.35688728771E+03  0.11332529560E+04  0.89395193396E+03 0.  0.
         23    2    4    4    0    0 -0.19976861972E+03 -0.50575470941E+03 -0.14633461036E+03  0.57048587858E+03  0.91350927482E+02 0.  0.
         23    2    4    4    0    0 -0.22029218979E+03  0.79970042839E+02  0.50322189807E+03  0.56276707744E+03  0.92469714624E+02 0.  0.
          1    1    3    3  502    0  0.11215928827E+02  0.45771468843E+02  0.97216740931E+01  0.48117931862E+02  0.00000000000E+00 0. -1.
         -1    1    3    3    0  502  0.40884488069E+03  0.38001319772E+03  0.15152293145E+03  0.57837994923E+03  0.00000000000E+00 0.  1.
         11    1    5    5    0    0 -0.17148110286E+03 -0.31938361534E+03 -0.86121695409E+02  0.37259711325E+03  0.00000000000E+00 0. -1.
        -11    1    5    5    0    0 -0.28287516868E+02 -0.18637109407E+03 -0.60212914953E+02  0.19788876532E+03  0.00000000000E+00 0.  1.
          2    1    6    6  503    0 -0.22565014030E+02  0.43887464195E+02  0.75841503054E+02  0.90483274461E+02  0.00000000000E+00 0. -1.
         -2    1    6    6    0  503 -0.19772717576E+03  0.36082578645E+02  0.42738039501E+03  0.47228380298E+03  0.00000000000E+00 0.  1.
<mgrwt>
<rscale>  0 0.16817438E+04</rscale>
<asrwt>0</asrwt>
<pdfrwt beam="1">  1        2 0.17522175E+00 0.16817438E+04</pdfrwt>
<pdfrwt beam="2">  1       -2 0.95509150E-01 0.16817438E+04</pdfrwt>
<totfact> 0.18088126E+01</totfact>
</mgrwt>
</event>
<event>
12    2  0.3518828E-008  0.1741745E+04  0.7818608E-02  0.8737907E-01
         -2   -1    0    0    0  501 -0.00000000000E+00  0.00000000000E+00  0.10615404227E+04  0.10615404227E+04  0.00000000000E+00 0.  1.
          2   -1    0    0  501    0  0.00000000000E+00 -0.00000000000E+00 -0.71445114847E+03  0.71445114847E+03  0.00000000000E+00 0. -1.
         23    2    1    2    0    0  0.53331803708E+03  0.19402142316E+03 -0.16022705364E+03  0.59645085937E+03  0.89490097767E+02 0.  0.
        254    2    1    2    0    0 -0.53331803708E+03 -0.19402142316E+03  0.50731632786E+03  0.11795407118E+04  0.90104050572E+03 0.  0.
         23    2    4    4    0    0  0.68903853973E+02  0.11197516547E+03 -0.16034067056E+03  0.22639554492E+03  0.90882524994E+02 0.  0.
         23    2    4    4    0    0 -0.60222189106E+03 -0.30599658863E+03  0.66765699842E+03  0.95314516688E+03  0.80091967673E+02 0.  0.
          1    1    3    3  502    0  0.22947051670E+03  0.10186353796E+03 -0.11345487955E+03  0.27550845376E+03  0.00000000000E+00 0. -1.
         -1    1    3    3    0  502  0.30384752039E+03  0.92157885203E+02 -0.46772174095E+02  0.32094240561E+03  0.00000000000E+00 0.  1.
         11    1    5    5    0    0  0.40634303022E+02  0.69273638034E+01 -0.12950776138E+02  0.43207147023E+02  0.00000000000E+00 0.  1.
        -11    1    5    5    0    0  0.28269550951E+02  0.10504780166E+03 -0.14738989442E+03  0.18318839790E+03  0.00000000000E+00 0. -1.
          1    1    6    6  503    0 -0.54144914744E+03 -0.29981075710E+03  0.60031991371E+03  0.86222831555E+03  0.00000000000E+00 0. -1.
         -1    1    6    6    0  503 -0.60772743619E+02 -0.61858315233E+01  0.67337084712E+02  0.90916851332E+02  0.00000000000E+00 0.  1.
<mgrwt>
<rscale>  0 0.17417448E+04</rscale>
<asrwt>0</asrwt>
<pdfrwt beam="1">  1        2 0.10991556E+00 0.17417448E+04</pdfrwt>
<pdfrwt beam="2">  1       -2 0.16331391E+00 0.17417448E+04</pdfrwt>
<totfact> 0.90113496E+00</totfact>
</mgrwt>
</event>
<event>
12    2  0.3518828E-008  0.1750477E+04  0.7818608E-02  0.8733088E-01
         -1   -1    0    0    0  501 -0.00000000000E+00  0.00000000000E+00  0.60737517382E+03  0.60737517382E+03  0.00000000000E+00 0.  1.
          1   -1    0    0  501    0  0.00000000000E+00 -0.00000000000E+00 -0.12612336579E+04  0.12612336579E+04  0.00000000000E+00 0. -1.
         23    2    1    2    0    0  0.52067279164E+03  0.14830065997E+02 -0.66286595293E+03  0.84724188377E+03  0.84305701059E+02 0.  0.
        254    2    1    2    0    0 -0.52067279164E+03 -0.14830065997E+02  0.90074688419E+01  0.10213669480E+04  0.87851535052E+03 0.  0.
         23    2    4    4    0    0 -0.61879123027E+03  0.18892752305E+03  0.22950595096E+03  0.69229470345E+03  0.89458254359E+02 0.  0.
         23    2    4    4    0    0  0.98118438627E+02 -0.20375758905E+03 -0.22049848212E+03  0.32907224452E+03  0.92328643472E+02 0.  0.
          4    1    3    3  502    0  0.42714590024E+03 -0.99500363938E+01 -0.57635148197E+03  0.71744940873E+03  0.00000000000E+00 0. -1.
         -4    1    3    3    0  502  0.93526891400E+02  0.24780102391E+02 -0.86514470968E+02  0.12979247504E+03  0.00000000000E+00 0.  1.
         11    1    5    5    0    0 -0.11094360805E+03  0.12811704299E+01  0.26427787994E+02  0.11405504611E+03  0.00000000000E+00 0.  1.
        -11    1    5    5    0    0 -0.50784762222E+03  0.18764635262E+03  0.20307816296E+03  0.57823965734E+03  0.00000000000E+00 0. -1.
          4    1    6    6  503    0  0.68518182816E+02 -0.14561620543E+03 -0.20742328344E+03  0.26253235833E+03  0.00000000000E+00 0. -1.
         -4    1    6    6    0  503  0.29600255811E+02 -0.58141383624E+02 -0.13075198678E+02  0.66539886191E+02  0.00000000000E+00 0.  1.
<mgrwt>
<rscale>  0 0.17504765E+04</rscale>
<asrwt>0</asrwt>
<pdfrwt beam="1">  1        1 0.19403595E+00 0.17504765E+04</pdfrwt>
<pdfrwt beam="2">  1       -1 0.93442335E-01 0.17504765E+04</pdfrwt>
<totfact> 0.10156467E+01</totfact>
</mgrwt>
</event>
<event>
12    2  0.3518828E-008  0.1334834E+04  0.7818608E-02  0.9002388E-01
          2   -1    0    0  501    0  0.00000000000E+00  0.00000000000E+00  0.22055705896E+04  0.22055705896E+04  0.00000000000E+00 0. -1.
         -2   -1    0    0    0  501 -0.00000000000E+00 -0.00000000000E+00 -0.20196388791E+03  0.20196388791E+03  0.00000000000E+00 0.  1.
         23    2    1    2    0    0  0.31226635043E+03  0.97667320929E+02  0.75935382861E+03  0.83198885701E+03  0.92401525837E+02 0.  0.
        254    2    1    2    0    0 -0.31226635043E+03 -0.97667320929E+02  0.12442528731E+04  0.15755456205E+04  0.90946666290E+03 0.  0.
         23    2    4    4    0    0  0.15451970739E+03 -0.20390844828E+03  0.38764220496E+02  0.27527012852E+03  0.93893469491E+02 0.  0.
         23    2    4    4    0    0 -0.46678605782E+03  0.10624112735E+03  0.12054886526E+04  0.13002754920E+04  0.91307516750E+02 0.  0.
          1    1    3    3  502    0  0.15501495801E+03  0.95142972316E+02  0.43599110122E+03  0.47240878774E+03  0.00000000000E+00 0. -1.
         -1    1    3    3    0  502  0.15725139242E+03  0.25243486134E+01  0.32336272739E+03  0.35958006927E+03  0.00000000000E+00 0.  1.
         11    1    5    5    0    0  0.12806710793E+03 -0.17084751895E+03  0.67690867583E+02  0.22399132220E+03  0.00000000000E+00 0. -1.
        -11    1    5    5    0    0  0.26452599457E+02 -0.33060929329E+02 -0.28926647087E+02  0.51278806322E+02  0.00000000000E+00 0.  1.
          2    1    6    6  503    0 -0.34283314540E+03  0.11643424555E+03  0.86137095493E+03  0.93437220695E+03  0.00000000000E+00 0. -1.
         -2    1    6    6    0  503 -0.12395291242E+03 -0.10193118203E+02  0.34411769767E+03  0.36590328505E+03  0.00000000000E+00 0.  1.
<mgrwt>
<rscale>  0 0.13348342E+04</rscale>
<asrwt>0</asrwt>
<pdfrwt beam="1">  1        2 0.33931854E+00 0.13348342E+04</pdfrwt>
<pdfrwt beam="2">  1       -2 0.31071369E-01 0.13348342E+04</pdfrwt>
<totfact> 0.48227445E+01</totfact>
</mgrwt>
</event>
<event>
12    2  0.3518828E-008  0.1354028E+04  0.7818608E-02  0.8987785E-01
         -2   -1    0    0    0  501 -0.00000000000E+00  0.00000000000E+00  0.21388217185E+03  0.21388217185E+03  0.00000000000E+00 0.  1.
          2   -1    0    0  501    0  0.00000000000E+00 -0.00000000000E+00 -0.21429928900E+04  0.21429928900E+04  0.00000000000E+00 0. -1.
         23    2    1    2    0    0  0.55883860809E+02  0.19928972777E+03 -0.10979598204E+04  0.11210277165E+04  0.91367240166E+02 0.  0.
        254    2    1    2    0    0 -0.55883860809E+02 -0.19928972777E+03 -0.83115089777E+03  0.12358473453E+04  0.89088015162E+03 0.  0.
         23    2    4    4    0    0  0.31038421738E+03  0.71640366634E+02 -0.66329438554E+03  0.74155473727E+03  0.92050431615E+02 0.  0.
         23    2    4    4    0    0 -0.36626807819E+03 -0.27093009440E+03 -0.16785651223E+03  0.49429260803E+03  0.92703573310E+02 0.  0.
          3    1    3    3  502    0  0.18203972143E+02  0.59194803066E+02 -0.57476943327E+03  0.57809628155E+03  0.00000000000E+00 0. -1.
         -3    1    3    3    0  502  0.37679888666E+02  0.14009492470E+03 -0.52319038710E+03  0.54293143499E+03  0.00000000000E+00 0.  1.
         11    1    5    5    0    0  0.17317051298E+03  0.47034848360E+02 -0.26914840827E+03  0.32348287312E+03  0.00000000000E+00 0. -1.
        -11    1    5    5    0    0  0.13721370440E+03  0.24605518274E+02 -0.39414597727E+03  0.41807186416E+03  0.00000000000E+00 0.  1.
          1    1    6    6  503    0 -0.20095962975E+03 -0.97900916302E+02 -0.10441852446E+03  0.24672371279E+03  0.00000000000E+00 0. -1.
         -1    1    6    6    0  503 -0.16530844844E+03 -0.17302917810E+03 -0.63437987766E+02  0.24756889524E+03  0.00000000000E+00 0.  1.
<mgrwt>
<rscale>  0 0.13540280E+04</rscale>
<asrwt>0</asrwt>
<pdfrwt beam="1">  1        2 0.32969123E+00 0.13540280E+04</pdfrwt>
<pdfrwt beam="2">  1       -2 0.32904948E-01 0.13540280E+04</pdfrwt>
<totfact> 0.46845018E+01</totfact>
</mgrwt>
</event>
<event>
12    2  0.3518828E-008  0.2186835E+04  0.7818608E-02  0.8523928E-01
          1   -1    0    0  501    0  0.00000000000E+00  0.00000000000E+00  0.45948030095E+03  0.45948030095E+03  0.00000000000E+00 0. -1.
         -1   -1    0    0    0  501 -0.00000000000E+00 -0.00000000000E+00 -0.26019864818E+04  0.26019864818E+04  0.00000000000E+00 0.  1.
         23    2    1    2    0    0  0.85404435980E+03  0.31307333348E+03 -0.73989564692E+03  0.11760360019E+04  0.90600379340E+02 0.  0.
        254    2    1    2    0    0 -0.85404435980E+03 -0.31307333348E+03 -0.14026105339E+04  0.18854307809E+04  0.87185218870E+03 0.  0.
         23    2    4    4    0    0  0.95174265597E+02  0.12620350503E+03 -0.35970306885E+03  0.40558090959E+03  0.10061864129E+03 0.  0.
         23    2    4    4    0    0 -0.94921862540E+03 -0.43927683851E+03 -0.10429074651E+04  0.14798498713E+04  0.91211409149E+02 0.  0.
          2    1    3    3  502    0  0.78635429712E+03  0.28308457060E+03 -0.70835337110E+03  0.10955612503E+04  0.00000000000E+00 0. -1.
         -2    1    3    3    0  502  0.67690062676E+02  0.29988762878E+02 -0.31542275817E+02  0.80474751617E+02  0.00000000000E+00 0.  1.
         11    1    5    5    0    0  0.15842282955E+02 -0.24290999438E+01 -0.67531953279E+00  0.16041649299E+02  0.00000000000E+00 0.  1.
        -11    1    5    5    0    0  0.79331982642E+02  0.12863260498E+03 -0.35902774931E+03  0.38953926029E+03  0.00000000000E+00 0. -1.
          3    1    6    6  503    0 -0.63260072161E+03 -0.30489093920E+03 -0.64038148470E+03  0.95038445049E+03  0.00000000000E+00 0. -1.
         -3    1    6    6    0  503 -0.31661790379E+03 -0.13438589932E+03 -0.40252598039E+03  0.52946542080E+03  0.00000000000E+00 0.  1.
<mgrwt>
<rscale>  0 0.21868347E+04</rscale>
<asrwt>0</asrwt>
<pdfrwt beam="1">  1        1 0.70689277E-01 0.21868347E+04</pdfrwt>
<pdfrwt beam="2">  1       -1 0.40030561E+00 0.21868347E+04</pdfrwt>
<totfact> 0.32374974E-01</totfact>
</mgrwt>
</event>
<event>
12    2  0.3518828E-008  0.2369523E+04  0.7818608E-02  0.8451003E-01
          2   -1    0    0  501    0  0.00000000000E+00  0.00000000000E+00  0.12573714396E+04  0.12573714396E+04  0.00000000000E+00 0. -1.
         -2   -1    0    0    0  501 -0.00000000000E+00 -0.00000000000E+00 -0.11163447498E+04  0.11163447498E+04  0.00000000000E+00 0.  1.
         23    2    1    2    0    0  0.23787899550E+02  0.43773476001E+03  0.97422246511E+03  0.10720344133E+04  0.89279266389E+02 0.  0.
        254    2    1    2    0    0 -0.23787899550E+02 -0.43773476001E+03 -0.83319577534E+03  0.13016817762E+04  0.89887855801E+03 0.  0.
         23    2    4    4    0    0 -0.37412258544E+03 -0.49830625115E+03 -0.49279612941E+03  0.79950160213E+03  0.89877459807E+02 0.  0.
         23    2    4    4    0    0  0.35033468589E+03  0.60571491138E+02 -0.34039964593E+03  0.50218017402E+03  0.99547529110E+02 0.  0.
          4    1    3    3  502    0 -0.13600869199E+02  0.31557371137E+03  0.75311358970E+03  0.81667118839E+03  0.00000000000E+00 0. -1.
         -4    1    3    3    0  502  0.37388768749E+02  0.12216104864E+03  0.22110887540E+03  0.25536322487E+03  0.00000000000E+00 0.  1.
         11    1    5    5    0    0 -0.23094512784E+03 -0.34359719174E+03 -0.27882087381E+03  0.49913501372E+03  0.00000000000E+00 0. -1.
        -11    1    5    5    0    0 -0.14317745760E+03 -0.15470905940E+03 -0.21397525560E+03  0.30036658841E+03  0.00000000000E+00 0.  1.
          2    1    6    6  503    0  0.99107581397E+02  0.27938771116E+02 -0.16338804824E+03  0.19312830432E+03  0.00000000000E+00 0. -1.
         -2    1    6    6    0  503  0.25122710450E+03  0.32632720022E+02 -0.17701159769E+03  0.30905186970E+03  0.00000000000E+00 0.  1.
<mgrwt>
<rscale>  0 0.23695232E+04</rscale>
<asrwt>0</asrwt>
<pdfrwt beam="1">  1        2 0.19344176E+00 0.23695232E+04</pdfrwt>
<pdfrwt beam="2">  1       -2 0.17174535E+00 0.23695232E+04</pdfrwt>
<totfact> 0.32701162E+00</totfact>
</mgrwt>
</event>
<event>
12    2  0.3518828E-008  0.2153050E+04  0.7818608E-02  0.8538228E-01
         -2   -1    0    0    0  501 -0.00000000000E+00  0.00000000000E+00  0.17808490828E+04  0.17808490828E+04  0.00000000000E+00 0.  1.
          2   -1    0    0  501    0  0.00000000000E+00 -0.00000000000E+00 -0.65076014661E+03  0.65076014661E+03  0.00000000000E+00 0. -1.
         23    2    1    2    0    0  0.26240724926E+03 -0.77139974694E+03  0.83804836960E+02  0.82426290958E+03  0.92037814862E+02 0.  0.
        254    2    1    2    0    0 -0.26240724926E+03  0.77139974694E+03  0.10462840993E+04  0.16073463199E+04  0.90826022788E+03 0.  0.
         23    2    4    4    0    0 -0.45965939050E+03  0.36789331379E+03  0.97725405622E+03  0.11446430942E+04  0.92466626529E+02 0.  0.
         23    2    4    4    0    0  0.19725214124E+03  0.40350643315E+03  0.69030043045E+02  0.46270322569E+03  0.87196785503E+02 0.  0.
          3    1    3    3  502    0  0.17755073631E+03 -0.56402889630E+03  0.99607861237E+02  0.59964538341E+03  0.00000000000E+00 0. -1.
         -3    1    3    3    0  502  0.84856512951E+02 -0.20737085064E+03 -0.15803024277E+02  0.22461752617E+03  0.00000000000E+00 0.  1.
         11    1    5    5    0    0 -0.25650493651E+03  0.25063797048E+03  0.64386581114E+03  0.73700566989E+03  0.00000000000E+00 0. -1.
        -11    1    5    5    0    0 -0.20315445400E+03  0.11725534331E+03  0.33338824508E+03  0.40763742428E+03  0.00000000000E+00 0.  1.
          4    1    6    6  503    0  0.12110136672E+03  0.17068663872E+03  0.42552299763E+01  0.20932648337E+03  0.00000000000E+00 0. -1.
         -4    1    6    6    0  503  0.76150774523E+02  0.23281979443E+03  0.64774813069E+02  0.25337674232E+03  0.00000000000E+00 0.  1.
<mgrwt>
<rscale>  0 0.21530496E+04</rscale>
<asrwt>0</asrwt>
<pdfrwt beam="1">  1        2 0.10011695E+00 0.21530496E+04</pdfrwt>
<pdfrwt beam="2">  1       -2 0.27397678E+00 0.21530496E+04</pdfrwt>
<totfact> 0.18883588E+00</totfact>
</mgrwt>
</event>
<event>
12    2  0.3518828E-008  0.2427432E+04  0.7818608E-02  0.8429304E-01
         -1   -1    0    0    0  501 -0.00000000000E+00  0.00000000000E+00  0.99478034557E+03  0.99478034557E+03  0.00000000000E+00 0.  1.
          1   -1    0    0  501    0  0.00000000000E+00 -0.00000000000E+00 -0.14808364983E+04  0.14808364983E+04  0.00000000000E+00 0. -1.
         23    2    1    2    0    0  0.12082473356E+03  0.84501666888E+03  0.40899205217E+03  0.95057826329E+03  0.87594229145E+02 0.  0.
        254    2    1    2    0    0 -0.12082473356E+03 -0.84501666888E+03 -0.89504820493E+03  0.15250385806E+04  0.89217688620E+03 0.  0.
         23    2    4    4    0    0 -0.30607391850E+03 -0.86724803005E+03 -0.93389107151E+03  0.13141625681E+04  0.95238294547E+02 0.  0.
         23    2    4    4    0    0  0.18524918494E+03  0.22231361178E+02  0.38842866579E+02  0.21087601250E+03  0.90268656918E+02 0.  0.
          3    1    3    3  502    0  0.20815107701E+02  0.49013696850E+02  0.85555268959E+01  0.53933368409E+02  0.00000000000E+00 0. -1.
         -3    1    3    3    0  502  0.10000962586E+03  0.79600297202E+03  0.40043652528E+03  0.89664489488E+03  0.00000000000E+00 0.  1.
         11    1    5    5    0    0 -0.10197331974E+03 -0.39610255504E+03 -0.45850987941E+03  0.61443234092E+03  0.00000000000E+00 0. -1.
        -11    1    5    5    0    0 -0.20410059876E+03 -0.47114547502E+03 -0.47538119210E+03  0.69973022719E+03  0.00000000000E+00 0.  1.
          2    1    6    6  503    0 -0.10140306093E+02  0.18760595084E+01 -0.12239246590E+01  0.10384767620E+02  0.00000000000E+00 0. -1.
         -2    1    6    6    0  503  0.19538949104E+03  0.20355301670E+02  0.40066791238E+02  0.20049124488E+03  0.00000000000E+00 0.  1.
<mgrwt>
<rscale>  0 0.24274324E+04</rscale>
<asrwt>0</asrwt>
<pdfrwt beam="1">  1        1 0.22782100E+00 0.24274324E+04</pdfrwt>
<pdfrwt beam="2">  1       -1 0.15304313E+00 0.24274324E+04</pdfrwt>
<totfact> 0.19925162E+00</totfact>
</mgrwt>
</event>
<event>
12    2  0.3518828E-008  0.1312453E+04  0.7818608E-02  0.9019747E-01
          1   -1    0    0  501    0  0.00000000000E+00  0.00000000000E+00  0.17717315370E+04  0.17717315370E+04  0.00000000000E+00 0. -1.
         -1   -1    0    0    0  501 -0.00000000000E+00 -0.00000000000E+00 -0.24305795038E+03  0.24305795038E+03  0.00000000000E+00 0.  1.
         23    2    1    2    0    0 -0.23954647696E+03 -0.13149752045E+03  0.72072019740E+03  0.77620420237E+03  0.91549157976E+02 0.  0.
        254    2    1    2    0    0  0.23954647696E+03  0.13149752045E+03  0.80795338923E+03  0.12385852850E+04  0.89812622532E+03 0.  0.
         23    2    4    4    0    0  0.15783180978E+03 -0.34565246297E+03  0.15167869403E+03  0.41792124332E+03  0.85236342348E+02 0.  0.
         23    2    4    4    0    0  0.81714667178E+02  0.47714998342E+03  0.65627469520E+03  0.82066404171E+03  0.91889065055E+02 0.  0.
          4    1    3    3  502    0 -0.14199250398E+03 -0.56475831083E+02  0.50761265342E+03  0.53011507863E+03  0.00000000000E+00 0. -1.
         -4    1    3    3    0  502 -0.97553972980E+02 -0.75021689365E+02  0.21310754399E+03  0.24608912374E+03  0.00000000000E+00 0.  1.
         11    1    5    5    0    0  0.16374247710E+03 -0.33592462306E+03  0.13421931252E+03  0.39707905389E+03  0.00000000000E+00 0.  1.
        -11    1    5    5    0    0 -0.59106673210E+01 -0.97278399134E+01  0.17459381506E+02  0.20842189427E+02  0.00000000000E+00 0. -1.
          3    1    6    6  503    0 -0.11546371842E+02  0.14117766926E+02  0.42007855967E+02  0.45796178974E+02  0.00000000000E+00 0. -1.
         -3    1    6    6    0  503  0.93261039020E+02  0.46303221650E+03  0.61426683924E+03  0.77486786273E+03  0.00000000000E+00 0.  1.
<mgrwt>
<rscale>  0 0.13124533E+04</rscale>
<asrwt>0</asrwt>
<pdfrwt beam="1">  1        1 0.27257407E+00 0.13124533E+04</pdfrwt>
<pdfrwt beam="2">  1       -1 0.37393532E-01 0.13124533E+04</pdfrwt>
<totfact> 0.28799417E+01</totfact>
</mgrwt>
</event>
<event>
12    2  0.3518828E-008  0.1146979E+04  0.7818608E-02  0.9160575E-01
          2   -1    0    0  501    0  0.00000000000E+00  0.00000000000E+00  0.54793056901E+03  0.54793056901E+03  0.00000000000E+00 0.  1.
         -2   -1    0    0    0  501 -0.00000000000E+00 -0.00000000000E+00 -0.60024061594E+03  0.60024061594E+03  0.00000000000E+00 0. -1.
         23    2    1    2    0    0 -0.92341660537E+00 -0.95004666928E+02  0.20563347526E+03  0.25088327086E+03  0.10784502777E+03 0.  0.
        254    2    1    2    0    0  0.92341660537E+00  0.95004666928E+02 -0.25794352219E+03  0.89728791409E+03  0.85414518713E+03 0.  0.
         23    2    4    4    0    0 -0.24111407774E+03  0.22221500108E+03  0.17050718469E+03  0.38078476732E+03  0.91699693603E+02 0.  0.
         23    2    4    4    0    0  0.24203749434E+03 -0.12721033415E+03 -0.42845070688E+03  0.51650314677E+03  0.91874232625E+02 0.  0.
          2    1    3    3  502    0 -0.84435847429E+00 -0.11718285441E+03  0.14570503824E+03  0.18698259940E+03  0.00000000000E+00 0.  1.
         -2    1    3    3    0  502 -0.79058131081E-01  0.22178187480E+02  0.59928437017E+02  0.63900671463E+02  0.00000000000E+00 0. -1.
         11    1    5    5    0    0 -0.23740739889E+03  0.17991196715E+03  0.14564078732E+03  0.33157476970E+03  0.00000000000E+00 0. -1.
        -11    1    5    5    0    0 -0.37066788439E+01  0.42303033923E+02  0.24866397375E+02  0.49209997618E+02  0.00000000000E+00 0.  1.
          3    1    6    6  503    0  0.19256342769E+03 -0.78875443860E+02 -0.25095184874E+03  0.32600435536E+03  0.00000000000E+00 0. -1.
         -3    1    6    6    0  503  0.49474066657E+02 -0.48334890287E+02 -0.17749885813E+03  0.19049879141E+03  0.00000000000E+00 0.  1.
<mgrwt>
<rscale>  0 0.11469790E+04</rscale>
<asrwt>0</asrwt>
<pdfrwt beam="1">  1        2 0.84297011E-01 0.11469790E+04</pdfrwt>
<pdfrwt beam="2">  1       -2 0.92344710E-01 0.11469790E+04</pdfrwt>
<totfact> 0.54534945E+01</totfact>
</mgrwt>
</event>
<event>
12    2  0.3518828E-008  0.1793647E+04  0.7818608E-02  0.8709685E-01
          1   -1    0    0  501    0  0.00000000000E+00  0.00000000000E+00  0.16352086544E+04  0.16352086544E+04  0.00000000000E+00 0. -1.
         -1   -1    0    0    0  501 -0.00000000000E+00 -0.00000000000E+00 -0.49185910644E+03  0.49185910644E+03  0.00000000000E+00 0.  1.
         23    2    1    2    0    0  0.19909746716E+03 -0.18770737258E+03 -0.29396636948E+03  0.41063582846E+03  0.85625335517E+02 0.  0.
        254    2    1    2    0    0 -0.19909746716E+03  0.18770737258E+03  0.14373159174E+04  0.17164319323E+04  0.89743393782E+03 0.  0.
         23    2    4    4    0    0 -0.24512126492E+03  0.33445166399E+03  0.14734666104E+04  0.15333752817E+04  0.90518243484E+02 0.  0.
         23    2    4    4    0    0  0.46023797761E+02 -0.14674429141E+03 -0.36150693039E+02  0.18305665062E+03  0.92470469390E+02 0.  0.
          4    1    3    3  502    0 -0.63657474492E+01 -0.49031897429E+01  0.65214899370E-01  0.80354379610E+01  0.00000000000E+00 0. -1.
         -4    1    3    3    0  502  0.20546321461E+03 -0.18280418284E+03 -0.29403158438E+03  0.40260039050E+03  0.00000000000E+00 0.  1.
         11    1    5    5    0    0 -0.22531367293E+03  0.26395900622E+03  0.12891680714E+04  0.13350636406E+04  0.00000000000E+00 0.  1.
        -11    1    5    5    0    0 -0.19807591988E+02  0.70492657772E+02  0.18429853904E+03  0.19831164109E+03  0.00000000000E+00 0. -1.
          3    1    6    6  503    0 -0.21121936545E+02 -0.71832242696E+02 -0.34509124677E+02  0.82443234896E+02  0.00000000000E+00 0. -1.
         -3    1    6    6    0  503  0.67145734306E+02 -0.74912048712E+02 -0.16415683625E+01  0.10061341573E+03  0.00000000000E+00 0.  1.
<mgrwt>
<rscale>  0 0.17936469E+04</rscale>
<asrwt>0</asrwt>
<pdfrwt beam="1">  1        1 0.25157056E+00 0.17936469E+04</pdfrwt>
<pdfrwt beam="2">  1       -1 0.75670632E-01 0.17936469E+04</pdfrwt>
<totfact> 0.87439601E+00</totfact>
</mgrwt>
</event>
<event>
12    2  0.3518828E-008  0.2126314E+04  0.7818608E-02  0.8549740E-01
          2   -1    0    0  501    0  0.00000000000E+00  0.00000000000E+00  0.72860130795E+03  0.72860130795E+03  0.00000000000E+00 0. -1.
         -2   -1    0    0    0  501 -0.00000000000E+00 -0.00000000000E+00 -0.15513321033E+04  0.15513321033E+04  0.00000000000E+00 0.  1.
         23    2    1    2    0    0 -0.43344159011E+03  0.74228861245E+03 -0.18695345122E+03  0.88545719559E+03  0.10108835781E+03 0.  0.
        254    2    1    2    0    0  0.43344159011E+03 -0.74228861245E+03 -0.63577734418E+03  0.13944762157E+04  0.89525811284E+03 0.  0.
         23    2    4    4    0    0  0.19430068819E+03  0.18123608249E+03 -0.17164030480E+03  0.32943466366E+03  0.92019173874E+02 0.  0.
         23    2    4    4    0    0  0.23914090192E+03 -0.92352469494E+03 -0.46413703938E+03  0.10650415521E+04  0.93830075827E+02 0.  0.
          3    1    3    3  502    0 -0.30651230872E+03  0.54306712184E+03 -0.18032016710E+03  0.64914332538E+03  0.00000000000E+00 0. -1.
         -3    1    3    3    0  502 -0.12692928139E+03  0.19922149061E+03 -0.66332841209E+01  0.23631387021E+03  0.00000000000E+00 0.  1.
         11    1    5    5    0    0  0.17429451424E+02  0.73138759018E+01 -0.49401443653E+02  0.52894056307E+02  0.00000000000E+00 0. -1.
        -11    1    5    5    0    0  0.17687123677E+03  0.17392220659E+03 -0.12223886115E+03  0.27654060735E+03  0.00000000000E+00 0.  1.
          1    1    6    6  503    0  0.96339135925E+02 -0.53031990085E+03 -0.28827079240E+03  0.61124502132E+03  0.00000000000E+00 0. -1.
         -1    1    6    6    0  503  0.14280176599E+03 -0.39320479410E+03 -0.17586624698E+03  0.45379653073E+03  0.00000000000E+00 0.  1.
<mgrwt>
<rscale>  0 0.21263138E+04</rscale>
<asrwt>0</asrwt>
<pdfrwt beam="1">  1        2 0.11209251E+00 0.21263138E+04</pdfrwt>
<pdfrwt beam="2">  1       -2 0.23866648E+00 0.21263138E+04</pdfrwt>
<totfact> 0.27019150E+00</totfact>
</mgrwt>
</event>
<event>
12    2  0.3518828E-008  0.1927807E+04  0.7818608E-02  0.8641138E-01
          2   -1    0    0  501    0  0.00000000000E+00  0.00000000000E+00  0.11492942173E+04  0.11492942173E+04  0.00000000000E+00 0. -1.
         -2   -1    0    0    0  501 -0.00000000000E+00 -0.00000000000E+00 -0.80841747229E+03  0.80841747229E+03  0.00000000000E+00 0.  1.
         23    2    1    2    0    0 -0.35876628454E+03 -0.13919042856E+03 -0.51121054194E+03  0.64613699539E+03  0.89830820427E+02 0.  0.
        254    2    1    2    0    0  0.35876628454E+03  0.13919042856E+03  0.85208728690E+03  0.13115746942E+04  0.91983053414E+03 0.  0.
         23    2    4    4    0    0 -0.12863506725E+03 -0.29696778322E+03  0.26978279869E+03  0.43099077012E+03  0.90738308711E+02 0.  0.
         23    2    4    4    0    0  0.48740135178E+03  0.43615821178E+03  0.58230448821E+03  0.88058392403E+03  0.92495766695E+02 0.  0.
          3    1    3    3  502    0 -0.81483505217E+02 -0.27366019022E+02 -0.59871664486E+02  0.10475245500E+03  0.00000000000E+00 0. -1.
         -3    1    3    3    0  502 -0.27728277932E+03 -0.11182440954E+03 -0.45133887746E+03  0.54138454039E+03  0.00000000000E+00 0.  1.
         11    1    5    5    0    0 -0.93667630328E+02 -0.28136398453E+03  0.25014059086E+03  0.38795570876E+03  0.00000000000E+00 0. -1.
        -11    1    5    5    0    0 -0.34967436920E+02 -0.15603798683E+02  0.19642207832E+02  0.43035061364E+02  0.00000000000E+00 0.  1.
          3    1    6    6  503    0  0.29965613067E+03  0.31551393539E+03  0.41876737425E+03  0.60391137910E+03  0.00000000000E+00 0. -1.
         -3    1    6    6    0  503  0.18774522112E+03  0.12064427639E+03  0.16353711396E+03  0.27667254493E+03  0.00000000000E+00 0.  1.
<mgrwt>
<rscale>  0 0.19278066E+04</rscale>
<asrwt>0</asrwt>
<pdfrwt beam="1">  1        2 0.17681449E+00 0.19278066E+04</pdfrwt>
<pdfrwt beam="2">  1       -2 0.12437192E+00 0.19278066E+04</pdfrwt>
<totfact> 0.92228884E+00</totfact>
</mgrwt>
</event>
<event>
12    2  0.3518828E-008  0.2058797E+04  0.7818608E-02  0.8579614E-01
          1   -1    0    0  501    0  0.00000000000E+00  0.00000000000E+00  0.10696292393E+04  0.10696292393E+04  0.00000000000E+00 0. -1.
         -1   -1    0    0    0  501 -0.00000000000E+00 -0.00000000000E+00 -0.99068116209E+03  0.99068116209E+03  0.00000000000E+00 0.  1.
         23    2    1    2    0    0  0.74797021337E+03 -0.12805775047E+03  0.37516666398E+03  0.85118843708E+03  0.88957867072E+02 0.  0.
        254    2    1    2    0    0 -0.74797021337E+03  0.12805775047E+03 -0.29621858681E+03  0.12091219643E+04  0.89351678540E+03 0.  0.
         23    2    4    4    0    0 -0.81840964804E+02 -0.31507448070E+02 -0.47883006508E+03  0.49453327347E+03  0.87145077517E+02 0.  0.
         23    2    4    4    0    0 -0.66612924857E+03  0.15956519854E+03  0.18261147828E+03  0.71458869081E+03  0.90004536830E+02 0.  0.
          4    1    3    3  502    0  0.74728182842E+03 -0.12845142470E+03  0.36593961292E+03  0.84192737211E+03  0.00000000000E+00 0. -1.
         -4    1    3    3    0  502  0.68838494698E+00  0.39367422572E+00  0.92270510570E+01  0.92610649733E+01  0.00000000000E+00 0.  1.
         11    1    5    5    0    0 -0.24533013693E+02 -0.51648737683E+02 -0.15859117804E+03  0.16858417072E+03  0.00000000000E+00 0.  1.
        -11    1    5    5    0    0 -0.57307951111E+02  0.20141289613E+02 -0.32023888704E+03  0.32594910275E+03  0.00000000000E+00 0. -1.
          4    1    6    6  503    0 -0.54302835599E+03  0.14137370954E+03  0.11436656413E+03  0.57266572462E+03  0.00000000000E+00 0. -1.
         -4    1    6    6    0  503 -0.12310089258E+03  0.18191488998E+02  0.68244914154E+02  0.14192296619E+03  0.00000000000E+00 0.  1.
<mgrwt>
<rscale>  0 0.20587973E+04</rscale>
<asrwt>0</asrwt>
<pdfrwt beam="1">  1        1 0.16455834E+00 0.20587973E+04</pdfrwt>
<pdfrwt beam="2">  1       -1 0.15241249E+00 0.20587973E+04</pdfrwt>
<totfact> 0.41232680E+00</totfact>
</mgrwt>
</event>
<event>
12    2  0.3518828E-008  0.3036468E+04  0.7818608E-02  0.8233393E-01
          2   -1    0    0  501    0  0.00000000000E+00  0.00000000000E+00  0.14184269725E+04  0.14184269725E+04  0.00000000000E+00 0. -1.
         -2   -1    0    0    0  501 -0.00000000000E+00 -0.00000000000E+00 -0.16250641457E+04  0.16250641457E+04  0.00000000000E+00 0.  1.
         23    2    1    2    0    0  0.26644270809E+01  0.98261287345E+03 -0.10794808439E+04  0.14625695411E+04  0.91080250286E+02 0.  0.
        254    2    1    2    0    0 -0.26644270809E+01 -0.98261287345E+03  0.87284367067E+03  0.15809215770E+04  0.87859080409E+03 0.  0.
         23    2    4    4    0    0  0.47679128986E+02 -0.10262254046E+04  0.98035581318E+03  0.14228375433E+04  0.89203552871E+02 0.  0.
         23    2    4    4    0    0 -0.50343556066E+02  0.43612531109E+02 -0.10751214251E+03  0.15808403374E+03  0.94842893398E+02 0.  0.
          1    1    3    3  502    0  0.26309918535E+02  0.13608098568E+03 -0.12611744513E+03  0.18739225289E+03  0.00000000000E+00 0. -1.
         -1    1    3    3    0  502 -0.23645491454E+02  0.84653188777E+03 -0.95336339875E+03  0.12751772882E+04  0.00000000000E+00 0.  1.
         11    1    5    5    0    0  0.78945092903E+01 -0.62169994110E+03  0.64498559644E+03  0.89586804813E+03  0.00000000000E+00 0. -1.
        -11    1    5    5    0    0  0.39784619695E+02 -0.40452546346E+03  0.33537021674E+03  0.52696949516E+03  0.00000000000E+00 0.  1.
          1    1    6    6  503    0 -0.55804484332E+02  0.69664658302E+02 -0.81663578691E+02  0.12098035036E+03  0.00000000000E+00 0. -1.
         -1    1    6    6    0  503  0.54609282661E+01 -0.26052127193E+02 -0.25848563820E+02  0.37103683380E+02  0.00000000000E+00 0.  1.
<mgrwt>
<rscale>  0 0.30364682E+04</rscale>
<asrwt>0</asrwt>
<pdfrwt beam="1">  1        2 0.21821953E+00 0.30364682E+04</pdfrwt>
<pdfrwt beam="2">  1       -2 0.25000987E+00 0.30364682E+04</pdfrwt>
<totfact> 0.77450637E-01</totfact>
</mgrwt>
</event>
<event>
12    2  0.3518828E-008  0.1574821E+04  0.7818608E-02  0.8836168E-01
         -1   -1    0    0    0  501 -0.00000000000E+00  0.00000000000E+00  0.51185667824E+03  0.51185667824E+03  0.00000000000E+00 0.  1.
          1   -1    0    0  501    0  0.00000000000E+00 -0.00000000000E+00 -0.12113057562E+04  0.12113057562E+04  0.00000000000E+00 0. -1.
         23    2    1    2    0    0  0.14770757429E+03  0.67453137243E+02  0.30655119865E+03  0.35882331355E+03  0.91722841903E+02 0.  0.
        254    2    1    2    0    0 -0.14770757429E+03 -0.67453137243E+02 -0.10060002766E+04  0.13643391209E+04  0.90720296902E+03 0.  0.
         23    2    4    4    0    0 -0.48282795487E+02 -0.34345944663E+03 -0.52208547464E+02  0.36216161510E+03  0.90220192916E+02 0.  0.
         23    2    4    4    0    0 -0.99424778806E+02  0.27600630938E+03 -0.95379172916E+03  0.10021775058E+04  0.92608428530E+02 0.  0.
          1    1    3    3  502    0  0.23914939620E+02 -0.19253540391E+02  0.26347651494E+02  0.40457655566E+02  0.00000000000E+00 0. -1.
         -1    1    3    3    0  502  0.12379263467E+03  0.86706677634E+02  0.28020354716E+03  0.31836565799E+03  0.00000000000E+00 0.  1.
         11    1    5    5    0    0  0.20337895702E+02 -0.17365765782E+03 -0.17046996779E+02  0.17567359568E+03  0.00000000000E+00 0.  1.
        -11    1    5    5    0    0 -0.68620691188E+02 -0.16980178881E+03 -0.35161550685E+02  0.18648801942E+03  0.00000000000E+00 0. -1.
          3    1    6    6  503    0 -0.21191343260E+02  0.84370670492E+02 -0.43508250209E+03  0.44369388850E+03  0.00000000000E+00 0. -1.
         -3    1    6    6    0  503 -0.78233435547E+02  0.19163563889E+03 -0.51870922706E+03  0.55848361728E+03  0.00000000000E+00 0.  1.
<mgrwt>
<rscale>  0 0.15748205E+04</rscale>
<asrwt>0</asrwt>
<pdfrwt beam="1">  1        1 0.18635473E+00 0.15748205E+04</pdfrwt>
<pdfrwt beam="2">  1       -1 0.78747182E-01 0.15748205E+04</pdfrwt>
<totfact> 0.16263256E+01</totfact>
</mgrwt>
</event>
<event>
12    2  0.3518828E-008  0.1370302E+04  0.7818608E-02  0.8975600E-01
          2   -1    0    0  501    0  0.00000000000E+00  0.00000000000E+00  0.27614556748E+03  0.27614556748E+03  0.00000000000E+00 0. -1.
         -2   -1    0    0    0  501 -0.00000000000E+00 -0.00000000000E+00 -0.16999438380E+04  0.16999438380E+04  0.00000000000E+00 0.  1.
         23    2    1    2    0    0  0.28505647660E+02  0.32156348140E+02  0.13395251043E+03  0.16765791243E+03  0.91210185151E+02 0.  0.
        254    2    1    2    0    0 -0.28505647660E+02 -0.32156348140E+02 -0.15577507809E+04  0.18084314930E+04  0.91760033067E+03 0.  0.
         23    2    4    4    0    0  0.19599781437E+03  0.15748198893E+03 -0.52142885484E+02  0.27164911320E+03  0.88648971345E+02 0.  0.
         23    2    4    4    0    0 -0.22450346203E+03 -0.18963833707E+03 -0.15056078954E+04  0.15367823798E+04  0.92089330604E+02 0.  0.
          2    1    3    3  502    0  0.37688630452E+02 -0.23083145012E+02  0.68498251906E+02  0.81518555944E+02  0.00000000000E+00 0. -1.
         -2    1    3    3    0  502 -0.91829827918E+01  0.55239493152E+02  0.65454258523E+02  0.86139356484E+02  0.00000000000E+00 0.  1.
         11    1    5    5    0    0  0.19446394499E+03  0.16553849901E+03 -0.57603267693E+02  0.26179640373E+03  0.00000000000E+00 0. -1.
        -11    1    5    5    0    0  0.15338693784E+01 -0.80565100845E+01  0.54603822090E+01  0.98527094689E+01  0.00000000000E+00 0.  1.
          4    1    6    6  503    0 -0.26726433555E+02 -0.71772254769E+02 -0.32120006823E+03  0.33020454666E+03  0.00000000000E+00 0.  1.
         -4    1    6    6    0  503 -0.19777702847E+03 -0.11786608230E+03 -0.11844078272E+04  0.12065778332E+04  0.00000000000E+00 0. -1.
<mgrwt>
<rscale>  0 0.13703021E+04</rscale>
<asrwt>0</asrwt>
<pdfrwt beam="1">  1        2 0.42483933E-01 0.13703021E+04</pdfrwt>
<pdfrwt beam="2">  1       -2 0.26152982E+00 0.13703021E+04</pdfrwt>
<totfact> 0.64273118E+00</totfact>
</mgrwt>
</event>
<event>
12    2  0.3518828E-008  0.1761536E+04  0.7818608E-02  0.8727026E-01
          1   -1    0    0  501    0  0.00000000000E+00  0.00000000000E+00  0.15426885808E+04  0.15426885808E+04  0.00000000000E+00 0. -1.
         -1   -1    0    0    0  501 -0.00000000000E+00 -0.00000000000E+00 -0.50285734356E+03  0.50285734356E+03  0.00000000000E+00 0.  1.
         23    2    1    2    0    0 -0.19131988286E+02 -0.28758128058E+03 -0.28530797182E+03  0.41577288382E+03  0.91637471707E+02 0.  0.
        254    2    1    2    0    0  0.19131988286E+02  0.28758128058E+03  0.13251392090E+04  0.16297730405E+04  0.90393429761E+03 0.  0.
         23    2    4    4    0    0  0.38290990479E+03  0.39373436530E+03  0.73601277275E+03  0.92300003017E+03  0.92560836401E+02 0.  0.
         23    2    4    4    0    0 -0.36377791650E+03 -0.10615308472E+03  0.58912643626E+03  0.70677301034E+03  0.94102498974E+02 0.  0.
          1    1    3    3  502    0 -0.18081653430E+02 -0.17366718638E+02 -0.34443938838E+01  0.25306381730E+02  0.00000000000E+00 0. -1.
         -1    1    3    3    0  502 -0.10503348561E+01 -0.27021456194E+03 -0.28186357793E+03  0.39046650209E+03  0.00000000000E+00 0.  1.
         11    1    5    5    0    0  0.15243531552E+02  0.99890337687E+01  0.62262849547E+02  0.64875330315E+02  0.00000000000E+00 0.  1.
        -11    1    5    5    0    0  0.36766637323E+03  0.38374533153E+03  0.67374992321E+03  0.85812469986E+03  0.00000000000E+00 0. -1.
          1    1    6    6  503    0 -0.17159264500E+03 -0.98958875582E+02  0.29292913130E+03  0.35361613487E+03  0.00000000000E+00 0. -1.
         -1    1    6    6    0  503 -0.19218527150E+03 -0.71942091422E+01  0.29619730496E+03  0.35315687547E+03  0.00000000000E+00 0.  1.
<mgrwt>
<rscale>  0 0.17615360E+04</rscale>
<asrwt>0</asrwt>
<pdfrwt beam="1">  1        1 0.23733670E+00 0.17615360E+04</pdfrwt>
<pdfrwt beam="2">  1       -1 0.77362669E-01 0.17615360E+04</pdfrwt>
<totfact> 0.96899792E+00</totfact>
</mgrwt>
</event>
<event>
12    2  0.3518828E-008  0.1810234E+04  0.7818608E-02  0.8700876E-01
          1   -1    0    0  501    0  0.00000000000E+00  0.00000000000E+00  0.82302263018E+03  0.82302263018E+03  0.00000000000E+00 0. -1.
         -1   -1    0    0    0  501 -0.00000000000E+00 -0.00000000000E+00 -0.99540035719E+03  0.99540035719E+03  0.00000000000E+00 0.  1.
         23    2    1    2    0    0  0.14843618148E+02 -0.43418813092E+03  0.46042361898E+03  0.63981572737E+03  0.92922494848E+02 0.  0.
        254    2    1    2    0    0 -0.14843618148E+02  0.43418813092E+03 -0.63280134599E+03  0.11786072600E+04  0.89439245513E+03 0.  0.
         23    2    4    4    0    0  0.36858308342E+02 -0.22848543811E+03 -0.39465691550E+03  0.46659872237E+03  0.91630543198E+02 0.  0.
         23    2    4    4    0    0 -0.51701926490E+02  0.66267356902E+03 -0.23814443049E+03  0.71200853762E+03  0.91837027355E+02 0.  0.
          3    1    3    3  502    0  0.45848689581E+02 -0.27342986653E+03  0.32623022851E+03  0.42812633211E+03  0.00000000000E+00 0. -1.
         -3    1    3    3    0  502 -0.31005071433E+02 -0.16075826438E+03  0.13419339047E+03  0.21168939526E+03  0.00000000000E+00 0.  1.
         11    1    5    5    0    0  0.35167806401E+02 -0.13206854830E+03 -0.30795887793E+03  0.33692365092E+03  0.00000000000E+00 0. -1.
        -11    1    5    5    0    0  0.16905019413E+01 -0.96416889802E+02 -0.86698037573E+02  0.12967507145E+03  0.00000000000E+00 0.  1.
          1    1    6    6  503    0 -0.44015620338E+02  0.13816436044E+03 -0.32704010890E+02  0.14864830190E+03  0.00000000000E+00 0. -1.
         -1    1    6    6    0  503 -0.76863061520E+01  0.52450920858E+03 -0.20544041960E+03  0.56336023572E+03  0.00000000000E+00 0.  1.
<mgrwt>
<rscale>  0 0.18102343E+04</rscale>
<asrwt>0</asrwt>
<pdfrwt beam="1">  1        1 0.12661887E+00 0.18102343E+04</pdfrwt>
<pdfrwt beam="2">  1       -1 0.15313852E+00 0.18102343E+04</pdfrwt>
<totfact> 0.65671286E+00</totfact>
</mgrwt>
</event>
<event>
12    2  0.3518828E-008  0.1160155E+04  0.7818608E-02  0.9148466E-01
         -1   -1    0    0    0  501 -0.00000000000E+00  0.00000000000E+00  0.19896065302E+03  0.19896065302E+03  0.00000000000E+00 0.  1.
          1   -1    0    0  501    0  0.00000000000E+00 -0.00000000000E+00 -0.16912383387E+04  0.16912383387E+04  0.00000000000E+00 0. -1.
         23    2    1    2    0    0 -0.19558731868E+03  0.78599049231E+02 -0.21767565118E+03  0.31656839900E+03  0.91655072730E+02 0.  0.
        254    2    1    2    0    0  0.19558731868E+03 -0.78599049231E+02 -0.12746020345E+04  0.15736305927E+04  0.89848243510E+03 0.  0.
         23    2    4    4    0    0  0.17377324739E+03 -0.43690415083E+03 -0.10121208519E+04  0.11197812576E+04  0.91864396700E+02 0.  0.
         23    2    4    4    0    0  0.21814071293E+02  0.35830510160E+03 -0.26248118257E+03  0.45384933513E+03  0.90688743844E+02 0.  0.
          2    1    3    3  502    0 -0.59657232068E+02  0.44411578772E+01 -0.11833996941E+03  0.13260112210E+03  0.00000000000E+00 0. -1.
         -2    1    3    3    0  502 -0.13593008661E+03  0.74157891354E+02 -0.99335681769E+02  0.18396727690E+03  0.00000000000E+00 0.  1.
         11    1    5    5    0    0  0.24910478679E+02 -0.48724279824E+02 -0.62078398003E+02  0.82754546045E+02  0.00000000000E+00 0.  1.
        -11    1    5    5    0    0  0.14886276871E+03 -0.38817987101E+03 -0.95004245391E+03  0.10370267115E+04  0.00000000000E+00 0. -1.
          1    1    6    6  503    0  0.91236598191E+01  0.35456275436E+03 -0.26135095685E+03  0.44057043772E+03  0.00000000000E+00 0. -1.
         -1    1    6    6    0  503  0.12690411474E+02  0.37423472391E+01 -0.11302257142E+01  0.13278897409E+02  0.00000000000E+00 0.  1.
<mgrwt>
<rscale>  0 0.11601550E+04</rscale>
<asrwt>0</asrwt>
<pdfrwt beam="1">  1        1 0.26019051E+00 0.11601550E+04</pdfrwt>
<pdfrwt beam="2">  1       -1 0.30609331E-01 0.11601550E+04</pdfrwt>
<totfact> 0.47252673E+01</totfact>
</mgrwt>
</event>
<event>
12    2  0.3518828E-008  0.1736017E+04  0.7818608E-02  0.8741085E-01
          1   -1    0    0  501    0  0.00000000000E+00  0.00000000000E+00  0.20922350133E+04  0.20922350133E+04  0.00000000000E+00 0. -1.
         -1   -1    0    0    0  501 -0.00000000000E+00 -0.00000000000E+00 -0.36011190833E+03  0.36011190833E+03  0.00000000000E+00 0.  1.
         23    2    1    2    0    0 -0.52983483610E+02 -0.41968517906E+03 -0.28057124402E+02  0.43339512150E+03  0.90006833363E+02 0.  0.
        254    2    1    2    0    0  0.52983483610E+02  0.41968517906E+03  0.17601802294E+04  0.20189518001E+04  0.89386186421E+03 0.  0.
         23    2    4    4    0    0 -0.28706716978E+02  0.52788042029E+03  0.17811574677E+04  0.18605507715E+04  0.98211173564E+02 0.  0.
         23    2    4    4    0    0  0.81690200587E+02 -0.10819524122E+03 -0.20977238363E+02  0.15840102866E+03  0.79191806737E+02 0.  0.
          4    1    3    3  502    0 -0.22359778057E+02 -0.69754337161E+02 -0.36891189783E+02  0.82015773551E+02  0.00000000000E+00 0. -1.
         -4    1    3    3    0  502 -0.30623705552E+02 -0.34993084190E+03  0.88340653809E+01  0.35137934795E+03  0.00000000000E+00 0.  1.
         11    1    5    5    0    0  0.34007066131E+02  0.14922323567E+03  0.55594228820E+03  0.57662455933E+03  0.00000000000E+00 0.  1.
        -11    1    5    5    0    0 -0.62713783109E+02  0.37865718461E+03  0.12252151795E+04  0.12839262121E+04  0.00000000000E+00 0. -1.
          3    1    6    6  503    0  0.68341886124E+02 -0.12066470476E+03 -0.17066800422E+02  0.13972065005E+03  0.00000000000E+00 0. -1.
         -3    1    6    6    0  503  0.13348314463E+02  0.12469463537E+02 -0.39104379409E+01  0.18680378604E+02  0.00000000000E+00 0.  1.
<mgrwt>
<rscale>  0 0.17360170E+04</rscale>
<asrwt>0</asrwt>
<pdfrwt beam="1">  1        1 0.32188230E+00 0.17360170E+04</pdfrwt>
<pdfrwt beam="2">  1       -1 0.55401833E-01 0.17360170E+04</pdfrwt>
<totfact> 0.80647903E+00</totfact>
</mgrwt>
</event>
<event>
12    2  0.3518828E-008  0.2138125E+04  0.7818608E-02  0.8544633E-01
          2   -1    0    0  501    0  0.00000000000E+00  0.00000000000E+00  0.15163818936E+04  0.15163818936E+04  0.00000000000E+00 0. -1.
         -2   -1    0    0    0  501 -0.00000000000E+00 -0.00000000000E+00 -0.75369835674E+03  0.75369835674E+03  0.00000000000E+00 0.  1.
         23    2    1    2    0    0  0.54026354605E+03 -0.35961369802E+03  0.93733942977E+03  0.11438558516E+04  0.92705402415E+02 0.  0.
        254    2    1    2    0    0 -0.54026354605E+03  0.35961369802E+03 -0.17465589292E+03  0.11262243987E+04  0.90369796082E+03 0.  0.
         23    2    4    4    0    0 -0.16005281559E+03  0.61603413767E+03 -0.11715908378E+03  0.65527499813E+03  0.10268451546E+03 0.  0.
         23    2    4    4    0    0 -0.38021073046E+03 -0.25642043964E+03 -0.57496809146E+02  0.47094940061E+03  0.90420204875E+02 0.  0.
          4    1    3    3  502    0  0.52466524412E+03 -0.32382824004E+03  0.88099375072E+03  0.10753084842E+04  0.00000000000E+00 0. -1.
         -4    1    3    3    0  502  0.15598301926E+02 -0.35785457987E+02  0.56345679048E+02  0.68547367372E+02  0.00000000000E+00 0.  1.
         11    1    5    5    0    0 -0.17270124479E+02  0.84219341991E+02 -0.52768202929E+02  0.10087436743E+03  0.00000000000E+00 0.  1.
        -11    1    5    5    0    0 -0.14278269111E+03  0.53181479568E+03 -0.64390880847E+02  0.55440063070E+03  0.00000000000E+00 0. -1.
          1    1    6    6  503    0 -0.29746178585E+03 -0.23907764059E+03 -0.60254442670E+02  0.38635764536E+03  0.00000000000E+00 0. -1.
         -1    1    6    6    0  503 -0.82748944610E+02 -0.17342799058E+02  0.27576335236E+01  0.84591755248E+02  0.00000000000E+00 0.  1.
<mgrwt>
<rscale>  0 0.21381249E+04</rscale>
<asrwt>0</asrwt>
<pdfrwt beam="1">  1        2 0.23328952E+00 0.21381249E+04</pdfrwt>
<pdfrwt beam="2">  1       -2 0.11595359E+00 0.21381249E+04</pdfrwt>
<totfact> 0.65977635E+00</totfact>
</mgrwt>
</event>
<event>
12    2  0.3518828E-008  0.2086394E+04  0.7818608E-02  0.8567261E-01
         -1   -1    0    0    0  501 -0.00000000000E+00  0.00000000000E+00  0.64941324113E+03  0.64941324113E+03  0.00000000000E+00 0.  1.
          1   -1    0    0  501    0  0.00000000000E+00 -0.00000000000E+00 -0.16757581441E+04  0.16757581441E+04  0.00000000000E+00 0. -1.
         23    2    1    2    0    0  0.41726507888E+03 -0.17478390119E+02  0.36314754659E+03  0.56230376136E+03  0.99467277423E+02 0.  0.
        254    2    1    2    0    0 -0.41726507888E+03  0.17478390119E+02 -0.13894924495E+04  0.17628676238E+04  0.10012978337E+04 0.  0.
         23    2    4    4    0    0 -0.69583777687E+03 -0.96007551259E+02 -0.12025847779E+04  0.13956811849E+04  0.91149109737E+02 0.  0.
         23    2    4    4    0    0  0.27857269799E+03  0.11348594138E+03 -0.18690767161E+03  0.36718643893E+03  0.97003073533E+02 0.  0.
          4    1    3    3  502    0  0.36415319600E+03 -0.42484903998E+02  0.33722874749E+03  0.49813225689E+03  0.00000000000E+00 0.  1.
         -4    1    3    3    0  502  0.53111882883E+02  0.25006513879E+02  0.25918799103E+02  0.64171504476E+02  0.00000000000E+00 0. -1.
         11    1    5    5    0    0 -0.54194707791E+03 -0.10859172190E+03 -0.97235972189E+03  0.11184731673E+04  0.00000000000E+00 0.  1.
        -11    1    5    5    0    0 -0.15389069896E+03  0.12584170637E+02 -0.23022505602E+03  0.27720801756E+03  0.00000000000E+00 0. -1.
          2    1    6    6  503    0  0.45286751900E+02  0.83179064785E+01 -0.74744470216E+02  0.87788457633E+02  0.00000000000E+00 0. -1.
         -2    1    6    6    0  503  0.23328594609E+03  0.10516803490E+03 -0.11216320139E+03  0.27939798130E+03  0.00000000000E+00 0.  1.
<mgrwt>
<rscale>  0 0.20863936E+04</rscale>
<asrwt>0</asrwt>
<pdfrwt beam="1">  1        1 0.25780894E+00 0.20863936E+04</pdfrwt>
<pdfrwt beam="2">  1       -1 0.99909732E-01 0.20863936E+04</pdfrwt>
<totfact> 0.43538567E+00</totfact>
</mgrwt>
</event>
<event>
12    2  0.3518828E-008  0.2060832E+04  0.7818608E-02  0.8578696E-01
          2   -1    0    0  501    0  0.00000000000E+00  0.00000000000E+00  0.29352151978E+04  0.29352151978E+04  0.00000000000E+00 0. -1.
         -2   -1    0    0    0  501 -0.00000000000E+00 -0.00000000000E+00 -0.36173048478E+03  0.36173048478E+03  0.00000000000E+00 0.  1.
         23    2    1    2    0    0  0.88604609978E+02 -0.79530635066E+03  0.13850092414E+04  0.16020830032E+04  0.89757350877E+02 0.  0.
        254    2    1    2    0    0 -0.88604609978E+02  0.79530635066E+03  0.11884754716E+04  0.16948626794E+04  0.90538532515E+03 0.  0.
         23    2    4    4    0    0  0.26736279270E+03  0.49858954887E+02  0.60514860200E+02  0.29432647299E+03  0.94853814335E+02 0.  0.
         23    2    4    4    0    0 -0.35596740268E+03  0.74544739577E+03  0.11279606114E+04  0.14005362064E+04  0.82473710196E+02 0.  0.
          3    1    3    3  502    0  0.17778131313E+02 -0.37928969602E+02  0.10580478855E+03  0.11379508763E+03  0.00000000000E+00 0. -1.
         -3    1    3    3    0  502  0.70826478665E+02 -0.75737738105E+03  0.12792044529E+04  0.14882879156E+04  0.00000000000E+00 0.  1.
         11    1    5    5    0    0  0.16928514850E+03  0.75535818171E+02  0.25773311979E+02  0.18715604436E+03  0.00000000000E+00 0. -1.
        -11    1    5    5    0    0  0.98077644199E+02 -0.25676863284E+02  0.34741548221E+02  0.10717042863E+03  0.00000000000E+00 0.  1.
          3    1    6    6  503    0 -0.33937038394E+03  0.66549885321E+03  0.10403228736E+04  0.12807547238E+04  0.00000000000E+00 0. -1.
         -3    1    6    6    0  503 -0.16597018738E+02  0.79948542555E+02  0.87637737748E+02  0.11978148256E+03  0.00000000000E+00 0.  1.
<mgrwt>
<rscale>  0 0.20608317E+04</rscale>
<asrwt>0</asrwt>
<pdfrwt beam="1">  1        2 0.45157155E+00 0.20608317E+04</pdfrwt>
<pdfrwt beam="2">  1       -2 0.55650846E-01 0.20608317E+04</pdfrwt>
<totfact> 0.53686148E+00</totfact>
</mgrwt>
</event>
<event>
12    2  0.3518828E-008  0.1035461E+04  0.7818608E-02  0.9270484E-01
         -1   -1    0    0    0  501 -0.00000000000E+00  0.00000000000E+00  0.24418483315E+03  0.24418483315E+03  0.00000000000E+00 0.  1.
          1   -1    0    0  501    0  0.00000000000E+00 -0.00000000000E+00 -0.10977138272E+04  0.10977138272E+04  0.00000000000E+00 0. -1.
         23    2    1    2    0    0  0.99405017244E+00  0.15104463914E+02  0.16080778032E+02  0.95096265930E+02  0.92496353474E+02 0.  0.
        254    2    1    2    0    0 -0.99405017244E+00 -0.15104463914E+02 -0.86960977207E+03  0.12468023944E+04  0.89334535430E+03 0.  0.
         23    2    4    4    0    0  0.27190899442E+03 -0.34421644468E+03 -0.35767060527E+03  0.57315487059E+03  0.90325975083E+02 0.  0.
         23    2    4    4    0    0 -0.27290304459E+03  0.32911198077E+03 -0.51193916680E+03  0.67364752382E+03  0.94490783713E+02 0.  0.
          3    1    3    3  502    0  0.49411089924E+01 -0.38959008674E+02  0.33478287667E+01  0.39413536664E+02  0.00000000000E+00 0. -1.
         -3    1    3    3    0  502 -0.39470588199E+01  0.54063472588E+02  0.12732949265E+02  0.55682729266E+02  0.00000000000E+00 0.  1.
         11    1    5    5    0    0  0.62349983770E+02 -0.14167556653E+03 -0.10120263227E+03  0.18493636583E+03  0.00000000000E+00 0. -1.
        -11    1    5    5    0    0  0.20955901065E+03 -0.20254087815E+03 -0.25646797300E+03  0.38821850477E+03  0.00000000000E+00 0.  1.
          3    1    6    6  503    0 -0.10093886030E+03  0.14118744875E+03 -0.27837346737E+03  0.32804624146E+03  0.00000000000E+00 0. -1.
         -3    1    6    6    0  503 -0.17196418429E+03  0.18792453202E+03 -0.23356569943E+03  0.34560128236E+03  0.00000000000E+00 0.  1.
<mgrwt>
<rscale>  0 0.10354614E+04</rscale>
<asrwt>0</asrwt>
<pdfrwt beam="1">  1        1 0.16887905E+00 0.10354614E+04</pdfrwt>
<pdfrwt beam="2">  1       -1 0.37566897E-01 0.10354614E+04</pdfrwt>
<totfact> 0.86894480E+01</totfact>
</mgrwt>
</event>
<event>
12    2  0.3518828E-008  0.4271218E+04  0.7818608E-02  0.7951962E-01
         -1   -1    0    0    0  501 -0.00000000000E+00  0.00000000000E+00  0.20054702903E+04  0.20054702903E+04  0.00000000000E+00 0.  1.
          1   -1    0    0  501    0  0.00000000000E+00 -0.00000000000E+00 -0.22741924740E+04  0.22741924740E+04  0.00000000000E+00 0. -1.
         23    2    1    2    0    0 -0.32129964765E+03  0.95343432756E+03 -0.19083680151E+04  0.21592388232E+04  0.90406493244E+02 0.  0.
        254    2    1    2    0    0  0.32129964765E+03 -0.95343432756E+03  0.16396458315E+04  0.21204239410E+04  0.89190176387E+03 0.  0.
         23    2    4    4    0    0  0.73697246517E+01  0.15557171398E+03  0.14811511605E+03  0.23313407197E+03  0.90313547596E+02 0.  0.
         23    2    4    4    0    0  0.31392992299E+03 -0.11090060415E+04  0.14915307154E+04  0.18872898690E+04  0.93556282665E+02 0.  0.
          2    1    3    3  502    0 -0.13074686074E+03  0.38859949717E+03 -0.87406488844E+03  0.96545001942E+03  0.00000000000E+00 0.  1.
         -2    1    3    3    0  502 -0.19055278691E+03  0.56483483039E+03 -0.10343031267E+04  0.11937888038E+04  0.00000000000E+00 0. -1.
         11    1    5    5    0    0  0.66982086149E+01  0.13904712666E+03  0.74909385360E+02  0.15808347620E+03  0.00000000000E+00 0.  1.
        -11    1    5    5    0    0  0.67151603687E+00  0.16524587315E+02  0.73205730693E+02  0.75050595774E+02  0.00000000000E+00 0. -1.
          1    1    6    6  503    0  0.74464063988E+02 -0.42419777493E+03  0.57347382037E+03  0.71718956471E+03  0.00000000000E+00 0. -1.
         -1    1    6    6    0  503  0.23946585901E+03 -0.68480826661E+03  0.91805689504E+03  0.11701003043E+04  0.00000000000E+00 0.  1.
<mgrwt>
<rscale>  0 0.42712178E+04</rscale>
<asrwt>0</asrwt>
<pdfrwt beam="1">  1        1 0.34987576E+00 0.42712178E+04</pdfrwt>
<pdfrwt beam="2">  1       -1 0.30853389E+00 0.42712178E+04</pdfrwt>
<totfact> 0.43137004E-02</totfact>
</mgrwt>
</event>
<event>
12    2  0.3518828E-008  0.1539949E+04  0.7818608E-02  0.8858313E-01
         -1   -1    0    0    0  501 -0.00000000000E+00  0.00000000000E+00  0.47024805784E+03  0.47024805784E+03  0.00000000000E+00 0.  1.
          1   -1    0    0  501    0  0.00000000000E+00 -0.00000000000E+00 -0.12607405922E+04  0.12607405922E+04  0.00000000000E+00 0. -1.
         23    2    1    2    0    0  0.14637477156E+02 -0.48030686391E+03 -0.93495871656E+02  0.49804184353E+03  0.91625654887E+02 0.  0.
        254    2    1    2    0    0 -0.14637477156E+02  0.48030686391E+03 -0.69699666266E+03  0.12329468065E+04  0.89635067946E+03 0.  0.
         23    2    4    4    0    0 -0.31227666716E+03 -0.77073293842E+02 -0.41946047231E+03  0.53658806201E+03  0.92318205091E+02 0.  0.
         23    2    4    4    0    0  0.29763919001E+03  0.55738015776E+03 -0.27753619035E+03  0.69635874446E+03  0.92883994004E+02 0.  0.
          3    1    3    3  502    0 -0.28657884268E+02 -0.32179738463E+03 -0.82052695350E+02  0.33332788048E+03  0.00000000000E+00 0. -1.
         -3    1    3    3    0  502  0.43295361424E+02 -0.15850947928E+03 -0.11443176306E+02  0.16471396306E+03  0.00000000000E+00 0.  1.
         11    1    5    5    0    0 -0.15050605464E+03 -0.84200530456E+02 -0.20600390850E+03  0.26866226406E+03  0.00000000000E+00 0. -1.
        -11    1    5    5    0    0 -0.16177061252E+03  0.71272366144E+01 -0.21345656381E+03  0.26792579796E+03  0.00000000000E+00 0.  1.
          4    1    6    6  503    0  0.24861779781E+03  0.52099351900E+03 -0.24420141595E+03  0.62680091559E+03  0.00000000000E+00 0. -1.
         -4    1    6    6    0  503  0.49021392196E+02  0.36386638751E+02 -0.33334774406E+02  0.69557828870E+02  0.00000000000E+00 0.  1.
<mgrwt>
<rscale>  0 0.15399491E+04</rscale>
<asrwt>0</asrwt>
<pdfrwt beam="1">  1        1 0.19396009E+00 0.15399491E+04</pdfrwt>
<pdfrwt beam="2">  1       -1 0.72345856E-01 0.15399491E+04</pdfrwt>
<totfact> 0.17939733E+01</totfact>
</mgrwt>
</event>
<event>
12    2  0.3518828E-008  0.1474576E+04  0.7818608E-02  0.8901538E-01
         -2   -1    0    0    0  501 -0.00000000000E+00  0.00000000000E+00  0.77654906969E+03  0.77654906969E+03  0.00000000000E+00 0.  1.
          2   -1    0    0  501    0  0.00000000000E+00 -0.00000000000E+00 -0.70001179356E+03  0.70001179356E+03  0.00000000000E+00 0. -1.
         23    2    1    2    0    0  0.27977519446E+03  0.21872002606E+01 -0.35029928794E+03  0.45750087343E+03  0.91205892220E+02 0.  0.
        254    2    1    2    0    0 -0.27977519446E+03 -0.21872002606E+01  0.42683656407E+03  0.10190599898E+04  0.88205151049E+03 0.  0.
         23    2    4    4    0    0 -0.97867907830E+00 -0.22834256749E+02 -0.25744614206E+03  0.27442181262E+03  0.92230440118E+02 0.  0.
         23    2    4    4    0    0 -0.27879651538E+03  0.20647056489E+02  0.68428270613E+03  0.74463817720E+03  0.89941064633E+02 0.  0.
          2    1    3    3  502    0  0.27422816521E+03  0.51789635224E+01 -0.35572401512E+03  0.44918535505E+03  0.00000000000E+00 0. -1.
         -2    1    3    3    0  502  0.55470292484E+01 -0.29917632618E+01  0.54247271803E+01  0.83155183770E+01  0.00000000000E+00 0.  1.
         11    1    5    5    0    0  0.19570579116E+02 -0.17921223959E+02 -0.25090450408E+03  0.25230388028E+03  0.00000000000E+00 0.  1.
        -11    1    5    5    0    0 -0.20549258194E+02 -0.49130327906E+01 -0.65416379801E+01  0.22117932340E+02  0.00000000000E+00 0. -1.
          4    1    6    6  503    0 -0.83385577277E+02 -0.46416061085E+00  0.32031973383E+03  0.33099562206E+03  0.00000000000E+00 0. -1.
         -4    1    6    6    0  503 -0.19541093810E+03  0.21111217099E+02  0.36396297231E+03  0.41364255515E+03  0.00000000000E+00 0.  1.
<mgrwt>
<rscale>  0 0.14745759E+04</rscale>
<asrwt>0</asrwt>
<pdfrwt beam="1">  1        2 0.10769412E+00 0.14745759E+04</pdfrwt>
<pdfrwt beam="2">  1       -2 0.11946909E+00 0.14745759E+04</pdfrwt>
<totfact> 0.21291467E+01</totfact>
</mgrwt>
</event>
<event>
12    2  0.3518828E-008  0.1818934E+04  0.7818608E-02  0.8696295E-01
          2   -1    0    0  501    0  0.00000000000E+00  0.00000000000E+00  0.80694067444E+03  0.80694067444E+03  0.00000000000E+00 0. -1.
         -2   -1    0    0    0  501 -0.00000000000E+00 -0.00000000000E+00 -0.10250199051E+04  0.10250199051E+04  0.00000000000E+00 0.  1.
         23    2    1    2    0    0 -0.10385640891E+03  0.43784780918E+03 -0.60096673719E+03  0.75630872739E+03  0.91351049479E+02 0.  0.
        254    2    1    2    0    0  0.10385640891E+03 -0.43784780918E+03  0.38288750651E+03  0.10756518522E+04  0.89884771055E+03 0.  0.
         23    2    4    4    0    0  0.12176823790E+03 -0.69668293622E+03  0.36341113789E+03  0.80022654038E+03  0.90001352238E+02 0.  0.
         23    2    4    4    0    0 -0.17911828985E+02  0.25883512704E+03  0.19476368619E+02  0.27542531178E+03  0.90351075414E+02 0.  0.
          4    1    3    3  502    0 -0.41120423347E+02  0.14476217862E+03 -0.13442122785E+03  0.20178216985E+03  0.00000000000E+00 0. -1.
         -4    1    3    3    0  502 -0.62735985566E+02  0.29308563057E+03 -0.46654550934E+03  0.55452655754E+03  0.00000000000E+00 0.  1.
         11    1    5    5    0    0  0.12514199774E+03 -0.55188713191E+03  0.31412048149E+03  0.64723380849E+03  0.00000000000E+00 0. -1.
        -11    1    5    5    0    0 -0.33737598383E+01 -0.14479580432E+03  0.49290656394E+02  0.15299273189E+03  0.00000000000E+00 0.  1.
          4    1    6    6  503    0  0.29451101026E+02  0.15154424894E+03 -0.93243588726E+01  0.15466082376E+03  0.00000000000E+00 0. -1.
         -4    1    6    6    0  503 -0.47362930011E+02  0.10729087810E+03  0.28800727492E+02  0.12076448802E+03  0.00000000000E+00 0.  1.
<mgrwt>
<rscale>  0 0.18189340E+04</rscale>
<asrwt>0</asrwt>
<pdfrwt beam="1">  1        2 0.12414472E+00 0.18189340E+04</pdfrwt>
<pdfrwt beam="2">  1       -2 0.15769537E+00 0.18189340E+04</pdfrwt>
<totfact> 0.84068996E+00</totfact>
</mgrwt>
</event>
<event>
12    2  0.3518828E-008  0.1467036E+04  0.7818608E-02  0.8906674E-01
          2   -1    0    0  501    0  0.00000000000E+00  0.00000000000E+00  0.48346586111E+03  0.48346586111E+03  0.00000000000E+00 0. -1.
         -2   -1    0    0    0  501 -0.00000000000E+00 -0.00000000000E+00 -0.11128993867E+04  0.11128993867E+04  0.00000000000E+00 0.  1.
         23    2    1    2    0    0  0.43779968245E+03  0.13250584209E+03 -0.26981131676E+03  0.53874645080E+03  0.90682034930E+02 0.  0.
        254    2    1    2    0    0 -0.43779968245E+03 -0.13250584209E+03 -0.35962220880E+03  0.10576187970E+04  0.88317780006E+03 0.  0.
         23    2    4    4    0    0 -0.36685700488E+03 -0.48804626993E+03 -0.26262218342E+03  0.67090519534E+03  0.91488503560E+02 0.  0.
         23    2    4    4    0    0 -0.70942677566E+02  0.35554042784E+03 -0.97000025384E+02  0.38671360164E+03  0.93255270326E+02 0.  0.
          1    1    3    3  502    0  0.11533358026E+03  0.79581568998E+01 -0.34759514432E+02  0.12072030004E+03  0.00000000000E+00 0. -1.
         -1    1    3    3    0  502  0.32246610219E+03  0.12454768519E+03 -0.23505180233E+03  0.41802615077E+03  0.00000000000E+00 0.  1.
         11    1    5    5    0    0 -0.27985481590E+02 -0.68724167208E+01 -0.13560562647E+02  0.31848173428E+02  0.00000000000E+00 0.  1.
        -11    1    5    5    0    0 -0.33887152329E+03 -0.48117385321E+03 -0.24906162077E+03  0.63905702191E+03  0.00000000000E+00 0. -1.
          1    1    6    6  503    0 -0.63889089051E+02  0.16974949266E+03 -0.85271112726E+02  0.20041923217E+03  0.00000000000E+00 0. -1.
         -1    1    6    6    0  503 -0.70535885148E+01  0.18579093517E+03 -0.11728912658E+02  0.18629436947E+03  0.00000000000E+00 0.  1.
<mgrwt>
<rscale>  0 0.14670363E+04</rscale>
<asrwt>0</asrwt>
<pdfrwt beam="1">  1        2 0.74379365E-01 0.14670363E+04</pdfrwt>
<pdfrwt beam="2">  1       -2 0.17121529E+00 0.14670363E+04</pdfrwt>
<totfact> 0.12944013E+01</totfact>
</mgrwt>
</event>
<event>
12    2  0.3518828E-008  0.1469035E+04  0.7818608E-02  0.8905309E-01
         -2   -1    0    0    0  501 -0.00000000000E+00  0.00000000000E+00  0.37923885509E+03  0.37923885509E+03  0.00000000000E+00 0. -1.
          2   -1    0    0  501    0  0.00000000000E+00 -0.00000000000E+00 -0.14226288845E+04  0.14226288845E+04  0.00000000000E+00 0.  1.
         23    2    1    2    0    0 -0.35967132302E+03  0.13205386218E+03 -0.62352373923E+03  0.73758293527E+03  0.91896952628E+02 0.  0.
        254    2    1    2    0    0  0.35967132302E+03 -0.13205386218E+03 -0.41986629017E+03  0.10642848043E+04  0.89978484092E+03 0.  0.
         23    2    4    4    0    0 -0.18668775023E+03 -0.32921724519E+03 -0.18586094938E+03  0.43123147147E+03  0.90443235600E+02 0.  0.
         23    2    4    4    0    0  0.54635907326E+03  0.19716338301E+03 -0.23400534080E+03  0.63305333284E+03  0.92824491230E+02 0.  0.
          2    1    3    3  502    0 -0.32516614706E+03  0.96407531812E+02 -0.49713662875E+03  0.60180749666E+03  0.00000000000E+00 0. -1.
         -2    1    3    3    0  502 -0.34505175961E+02  0.35646330371E+02 -0.12638711047E+03  0.13577543862E+03  0.00000000000E+00 0.  1.
         11    1    5    5    0    0 -0.19380046403E+03 -0.28878642699E+03 -0.17119248256E+03  0.38763782885E+03  0.00000000000E+00 0. -1.
        -11    1    5    5    0    0  0.71127137971E+01 -0.40430818207E+02 -0.14668466815E+02  0.43593642623E+02  0.00000000000E+00 0.  1.
          3    1    6    6  503    0  0.43150500148E+03  0.16377294961E+03 -0.22400510808E+03  0.51302673787E+03  0.00000000000E+00 0. -1.
         -3    1    6    6    0  503  0.11485407177E+03  0.33390433401E+02 -0.10000232723E+02  0.12002659497E+03  0.00000000000E+00 0.  1.
<mgrwt>
<rscale>  0 0.14690353E+04</rscale>
<asrwt>0</asrwt>
<pdfrwt beam="1">  1        2 0.21886598E+00 0.14690353E+04</pdfrwt>
<pdfrwt beam="2">  1       -2 0.58344439E-01 0.14690353E+04</pdfrwt>
<totfact> 0.37367553E+01</totfact>
</mgrwt>
</event>
<event>
12    2  0.3518828E-008  0.2218972E+04  0.7818608E-02  0.8510573E-01
          1   -1    0    0  501    0  0.00000000000E+00  0.00000000000E+00  0.93265838012E+03  0.93265838012E+03  0.00000000000E+00 0. -1.
         -1   -1    0    0    0  501 -0.00000000000E+00 -0.00000000000E+00 -0.13198397287E+04  0.13198397287E+04  0.00000000000E+00 0.  1.
         23    2    1    2    0    0  0.18818304728E+03 -0.88467085953E+03 -0.36994976347E+03  0.98147754260E+03  0.91542067716E+02 0.  0.
        254    2    1    2    0    0 -0.18818304728E+03  0.88467085953E+03 -0.17231585110E+02  0.12710205662E+04  0.89282751035E+03 0.  0.
         23    2    4    4    0    0  0.45364015926E+01  0.95111471858E+03 -0.20566676946E+03  0.97830345999E+03  0.10069286442E+03 0.  0.
         23    2    4    4    0    0 -0.19271944887E+03 -0.66443859047E+02  0.18843518435E+03  0.29271710623E+03  0.92843487645E+02 0.  0.
          1    1    3    3  502    0  0.71110465683E+02 -0.21732409106E+03 -0.59961686821E+02  0.23639344909E+03  0.00000000000E+00 0. -1.
         -1    1    3    3    0  502  0.11707258159E+03 -0.66734676847E+03 -0.30998807665E+03  0.74508409352E+03  0.00000000000E+00 0.  1.
         11    1    5    5    0    0  0.25363916402E+02  0.11761410931E+03 -0.34341832065E+01  0.12036694139E+03  0.00000000000E+00 0.  1.
        -11    1    5    5    0    0 -0.20827514809E+02  0.83350060926E+03 -0.20223258625E+03  0.85793651861E+03  0.00000000000E+00 0. -1.
          1    1    6    6  503    0 -0.19211091007E+03 -0.61984613484E+02  0.14377440011E+03  0.24783012772E+03  0.00000000000E+00 0. -1.
         -1    1    6    6    0  503 -0.60853879502E+00 -0.44592455630E+01  0.44660784239E+02  0.44886978505E+02  0.00000000000E+00 0.  1.
<mgrwt>
<rscale>  0 0.22189724E+04</rscale>
<asrwt>0</asrwt>
<pdfrwt beam="1">  1        1 0.14348590E+00 0.22189724E+04</pdfrwt>
<pdfrwt beam="2">  1       -1 0.20305227E+00 0.22189724E+04</pdfrwt>
<totfact> 0.22338114E+00</totfact>
</mgrwt>
</event>
<event>
12    2  0.3518828E-008  0.3319955E+04  0.7818608E-02  0.8157836E-01
         -2   -1    0    0    0  501 -0.00000000000E+00  0.00000000000E+00  0.19478360460E+04  0.19478360460E+04  0.00000000000E+00 0.  1.
          2   -1    0    0  501    0  0.00000000000E+00 -0.00000000000E+00 -0.14146594920E+04  0.14146594920E+04  0.00000000000E+00 0. -1.
         23    2    1    2    0    0 -0.91901379859E+02  0.88272827558E+03  0.15178271575E+04  0.17606289075E+04  0.91431930666E+02 0.  0.
        254    2    1    2    0    0  0.91901379859E+02 -0.88272827558E+03 -0.98465060348E+03  0.16018666305E+04  0.89932464604E+03 0.  0.
         23    2    4    4    0    0 -0.41559786919E+00 -0.59283164475E+03 -0.11083716233E+04  0.12607955958E+04  0.98327755336E+02 0.  0.
         23    2    4    4    0    0  0.92316977728E+02 -0.28989663083E+03  0.12372101979E+03  0.34107103470E+03  0.91978687916E+02 0.  0.
          4    1    3    3  502    0 -0.54843257406E+02  0.63358405046E+03  0.10055699137E+04  0.11897930001E+04  0.00000000000E+00 0. -1.
         -4    1    3    3    0  502 -0.37058122452E+02  0.24914422512E+03  0.51225724379E+03  0.57083590739E+03  0.00000000000E+00 0.  1.
         11    1    5    5    0    0 -0.46594678186E+01 -0.53372612751E+03 -0.92336977900E+03  0.10665350621E+04  0.00000000000E+00 0.  1.
        -11    1    5    5    0    0  0.42438699494E+01 -0.59105517238E+02 -0.18500184427E+03  0.19426053378E+03  0.00000000000E+00 0. -1.
          1    1    6    6  503    0  0.66427337832E+02 -0.88197207195E+02  0.70024216759E+02  0.13074681450E+03  0.00000000000E+00 0. -1.
         -1    1    6    6    0  503  0.25889639896E+02 -0.20169942364E+03  0.53696803033E+02  0.21032422021E+03  0.00000000000E+00 0.  1.
<mgrwt>
<rscale>  0 0.33199547E+04</rscale>
<asrwt>0</asrwt>
<pdfrwt beam="1">  1        2 0.21763992E+00 0.33199547E+04</pdfrwt>
<pdfrwt beam="2">  1       -2 0.29966708E+00 0.33199547E+04</pdfrwt>
<totfact> 0.37790235E-01</totfact>
</mgrwt>
</event>
<event>
12    2  0.3518828E-008  0.1615213E+04  0.7818608E-02  0.8811256E-01
         -1   -1    0    0    0  501 -0.00000000000E+00  0.00000000000E+00  0.82885746473E+03  0.82885746473E+03  0.00000000000E+00 0.  1.
          1   -1    0    0  501    0  0.00000000000E+00 -0.00000000000E+00 -0.78689999174E+03  0.78689999174E+03  0.00000000000E+00 0. -1.
         23    2    1    2    0    0  0.98894962990E+00 -0.52710282285E+03  0.11899616164E+03  0.54804155882E+03  0.91384352262E+02 0.  0.
        254    2    1    2    0    0 -0.98894962990E+00  0.52710282285E+03 -0.77038688650E+02  0.10677158976E+04  0.92533448799E+03 0.  0.
         23    2    4    4    0    0 -0.15827470647E+03  0.47149469758E+03  0.34037605935E+03  0.60954912354E+03  0.91302462570E+02 0.  0.
         23    2    4    4    0    0  0.15728575684E+03  0.55608125262E+02 -0.41741474800E+03  0.45816677411E+03  0.88603883362E+02 0.  0.
          3    1    3    3  502    0  0.25714728383E+02 -0.15615230430E+03  0.19126678575E+01  0.15826701391E+03  0.00000000000E+00 0. -1.
         -3    1    3    3    0  502 -0.24725778753E+02 -0.37095051854E+03  0.11708349379E+03  0.38977454491E+03  0.00000000000E+00 0.  1.
         11    1    5    5    0    0 -0.55872536825E+01  0.37885058309E+02  0.59712670010E+02  0.70937282204E+02  0.00000000000E+00 0. -1.
        -11    1    5    5    0    0 -0.15268745279E+03  0.43360963928E+03  0.28066338934E+03  0.53861184134E+03  0.00000000000E+00 0.  1.
          3    1    6    6  503    0  0.78694564499E+02  0.37386290370E+02 -0.32017613913E+03  0.33181821719E+03  0.00000000000E+00 0. -1.
         -3    1    6    6    0  503  0.78591192343E+02  0.18221834892E+02 -0.97238608873E+02  0.12634855692E+03  0.00000000000E+00 0.  1.
<mgrwt>
<rscale>  0 0.16152126E+04</rscale>
<asrwt>0</asrwt>
<pdfrwt beam="1">  1        1 0.12106154E+00 0.16152126E+04</pdfrwt>
<pdfrwt beam="2">  1       -1 0.12751653E+00 0.16152126E+04</pdfrwt>
<totfact> 0.11585979E+01</totfact>
</mgrwt>
</event>
<event>
12    2  0.3518828E-008  0.1320821E+04  0.7818608E-02  0.9013215E-01
         -2   -1    0    0    0  501 -0.00000000000E+00  0.00000000000E+00  0.18560380223E+03  0.18560380223E+03  0.00000000000E+00 0.  1.
          2   -1    0    0  501    0  0.00000000000E+00 -0.00000000000E+00 -0.23498542010E+04  0.23498542010E+04  0.00000000000E+00 0. -1.
         23    2    1    2    0    0  0.29070874485E+03  0.15219661585E+03 -0.79186296193E+03  0.86223601704E+03  0.93427053890E+02 0.  0.
        254    2    1    2    0    0 -0.29070874485E+03 -0.15219661585E+03 -0.13723874368E+04  0.16732219862E+04  0.89919361322E+03 0.  0.
         23    2    4    4    0    0  0.13346777649E+03 -0.89434495532E+02 -0.11799777930E+04  0.11942733885E+04  0.90161844050E+02 0.  0.
         23    2    4    4    0    0 -0.42417652133E+03 -0.62762120314E+02 -0.19240964378E+03  0.47894859765E+03  0.92225176454E+02 0.  0.
          3    1    3    3  502    0  0.45612096597E+02  0.28368019412E+01 -0.19027360293E+03  0.19568483532E+03  0.00000000000E+00 0. -1.
         -3    1    3    3    0  502  0.24509664825E+03  0.14935981390E+03 -0.60158935899E+03  0.66655118172E+03  0.00000000000E+00 0.  1.
         11    1    5    5    0    0  0.93784014545E+02 -0.10447390368E+03 -0.96354037939E+03  0.97371469160E+03  0.00000000000E+00 0. -1.
        -11    1    5    5    0    0  0.39683761940E+02  0.15039408152E+02 -0.21643741365E+03  0.22055869692E+03  0.00000000000E+00 0.  1.
          2    1    6    6  503    0 -0.62003244698E+02  0.22776703948E+02 -0.21729232413E+02  0.69536610048E+02  0.00000000000E+00 0. -1.
         -2    1    6    6    0  503 -0.36217327663E+03 -0.85538824262E+02 -0.17068041137E+03  0.40941198760E+03  0.00000000000E+00 0.  1.
<mgrwt>
<rscale>  0 0.13208208E+04</rscale>
<asrwt>0</asrwt>
<pdfrwt beam="1">  1        2 0.36151601E+00 0.13208208E+04</pdfrwt>
<pdfrwt beam="2">  1       -2 0.28554432E-01 0.13208208E+04</pdfrwt>
<totfact> 0.46874758E+01</totfact>
</mgrwt>
</event>
<event>
12    2  0.3518828E-008  0.1320358E+04  0.7818608E-02  0.9013575E-01
          2   -1    0    0  501    0  0.00000000000E+00  0.00000000000E+00  0.29882236882E+03  0.29882236882E+03  0.00000000000E+00 0. -1.
         -2   -1    0    0    0  501 -0.00000000000E+00 -0.00000000000E+00 -0.14585138896E+04  0.14585138896E+04  0.00000000000E+00 0.  1.
         23    2    1    2    0    0  0.22569708307E+03  0.23065754690E+03 -0.18006729118E+03  0.38087396872E+03  0.92188250063E+02 0.  0.
        254    2    1    2    0    0 -0.22569708307E+03 -0.23065754690E+03 -0.97962422965E+03  0.13764622897E+04  0.91150574684E+03 0.  0.
         23    2    4    4    0    0  0.15962399489E+03  0.86576147301E+02  0.62681512532E+02  0.21717937463E+03  0.10130478629E+03 0.  0.
         23    2    4    4    0    0 -0.38532107796E+03 -0.31723369421E+03 -0.10423057422E+04  0.11592829151E+04  0.91793612247E+02 0.  0.
          2    1    3    3  502    0  0.36096557087E+02  0.60774766446E+02 -0.29522747941E+01  0.70747788634E+02  0.00000000000E+00 0. -1.
         -2    1    3    3    0  502  0.18960052598E+03  0.16988278046E+03 -0.17711501638E+03  0.31012618009E+03  0.00000000000E+00 0.  1.
         11    1    5    5    0    0 -0.13743445050E+02  0.87684729488E+00  0.90826769623E+01  0.16496853149E+02  0.00000000000E+00 0. -1.
        -11    1    5    5    0    0  0.17336743994E+03  0.85699300006E+02  0.53598835569E+02  0.20068252148E+03  0.00000000000E+00 0.  1.
          3    1    6    6  503    0 -0.38454595588E+02 -0.43283340530E+01 -0.10749686824E+03  0.11425002004E+03  0.00000000000E+00 0. -1.
         -3    1    6    6    0  503 -0.34686648237E+03 -0.31290536015E+03 -0.93480887394E+03  0.10450328951E+04  0.00000000000E+00 0.  1.
<mgrwt>
<rscale>  0 0.13203584E+04</rscale>
<asrwt>0</asrwt>
<pdfrwt beam="1">  1        2 0.45972671E-01 0.13203584E+04</pdfrwt>
<pdfrwt beam="2">  1       -2 0.22438676E+00 0.13203584E+04</pdfrwt>
<totfact> 0.10008964E+01</totfact>
</mgrwt>
</event>
<event>
12    2  0.3518828E-008  0.1509736E+04  0.7818608E-02  0.8878005E-01
         -1   -1    0    0    0  501 -0.00000000000E+00  0.00000000000E+00  0.46010462466E+03  0.46010462466E+03  0.00000000000E+00 0.  1.
          1   -1    0    0  501    0  0.00000000000E+00 -0.00000000000E+00 -0.12384690763E+04  0.12384690763E+04  0.00000000000E+00 0. -1.
         23    2    1    2    0    0 -0.48051104025E+03 -0.32561265300E+02 -0.26975392756E+03  0.55980955423E+03  0.93104563676E+02 0.  0.
        254    2    1    2    0    0  0.48051104025E+03  0.32561265300E+02 -0.50861052407E+03  0.11387641467E+04  0.89785746131E+03 0.  0.
         23    2    4    4    0    0  0.36614487689E+02  0.24813558103E+03  0.15321799605E+03  0.30818275272E+03  0.92676682490E+02 0.  0.
         23    2    4    4    0    0  0.44389655256E+03 -0.21557431573E+03 -0.66182852012E+03  0.83058139399E+03  0.91279937677E+02 0.  0.
          2    1    3    3  502    0 -0.22146057713E+03 -0.17265302481E+02 -0.17769844888E+03  0.28446373517E+03  0.00000000000E+00 0. -1.
         -2    1    3    3    0  502 -0.25905046312E+03 -0.15295962819E+02 -0.92055478680E+02  0.27534581906E+03  0.00000000000E+00 0.  1.
         11    1    5    5    0    0 -0.31369077398E+02  0.83461513508E+02  0.47582816029E+02  0.10106417582E+03  0.00000000000E+00 0.  1.
        -11    1    5    5    0    0  0.67983565088E+02  0.16467406752E+03  0.10563518002E+03  0.20711857689E+03  0.00000000000E+00 0. -1.
          4    1    6    6  503    0  0.28365047454E+03 -0.15015758280E+03 -0.49666644817E+03  0.59133954047E+03  0.00000000000E+00 0. -1.
         -4    1    6    6    0  503  0.16024607802E+03 -0.65416732929E+02 -0.16516207195E+03  0.23924185352E+03  0.00000000000E+00 0.  1.
<mgrwt>
<rscale>  0 0.15097355E+04</rscale>
<asrwt>0</asrwt>
<pdfrwt beam="1">  1        1 0.19053370E+00 0.15097355E+04</pdfrwt>
<pdfrwt beam="2">  1       -1 0.70785328E-01 0.15097355E+04</pdfrwt>
<totfact> 0.19524896E+01</totfact>
</mgrwt>
</event>
<event>
12    2  0.3518828E-008  0.1233843E+04  0.7818608E-02  0.9083739E-01
         -1   -1    0    0    0  501 -0.00000000000E+00  0.00000000000E+00  0.17364187807E+04  0.17364187807E+04  0.00000000000E+00 0.  1.
          1   -1    0    0  501    0  0.00000000000E+00 -0.00000000000E+00 -0.21918217667E+03  0.21918217667E+03  0.00000000000E+00 0. -1.
         23    2    1    2    0    0  0.28308972068E+03 -0.25275826799E+02  0.31419968627E+03  0.43312527857E+03  0.89985591688E+02 0.  0.
        254    2    1    2    0    0 -0.28308972068E+03  0.25275826799E+02  0.12030369177E+04  0.15224756788E+04  0.88873826835E+03 0.  0.
         23    2    4    4    0    0 -0.58393339132E+03 -0.33066238558E+02  0.92870614121E+03  0.11014224891E+04  0.92546318360E+02 0.  0.
         23    2    4    4    0    0  0.30084367064E+03  0.58342065357E+02  0.27433077651E+03  0.42105318970E+03  0.90098295562E+02 0.  0.
          4    1    3    3  502    0  0.25321394415E+02 -0.25092870635E+02  0.16338782306E+02  0.39214550604E+02  0.00000000000E+00 0. -1.
         -4    1    3    3    0  502  0.25776832626E+03 -0.18295616383E+00  0.29786090397E+03  0.39391072797E+03  0.00000000000E+00 0.  1.
         11    1    5    5    0    0 -0.22036249384E+03 -0.42656482694E+02  0.41796925424E+03  0.47442333596E+03  0.00000000000E+00 0. -1.
        -11    1    5    5    0    0 -0.36357089748E+03  0.95902441359E+01  0.51073688697E+03  0.62699915310E+03  0.00000000000E+00 0.  1.
          3    1    6    6  503    0  0.21341504799E+03  0.82107574510E+02  0.19055230354E+03  0.29765385414E+03  0.00000000000E+00 0. -1.
         -3    1    6    6    0  503  0.87428622649E+02 -0.23765509152E+02  0.83778472966E+02  0.12339933556E+03  0.00000000000E+00 0.  1.
<mgrwt>
<rscale>  0 0.12338429E+04</rscale>
<asrwt>0</asrwt>
<pdfrwt beam="1">  1        1 0.33720336E-01 0.12338429E+04</pdfrwt>
<pdfrwt beam="2">  1       -1 0.26714134E+00 0.12338429E+04</pdfrwt>
<totfact> 0.70511885E+00</totfact>
</mgrwt>
</event>
<event>
12    2  0.3518828E-008  0.2275632E+04  0.7818608E-02  0.8487591E-01
         -1   -1    0    0    0  501 -0.00000000000E+00  0.00000000000E+00  0.40536734356E+03  0.40536734356E+03  0.00000000000E+00 0.  1.
          1   -1    0    0  501    0  0.00000000000E+00 -0.00000000000E+00 -0.31937098086E+04  0.31937098086E+04  0.00000000000E+00 0. -1.
         23    2    1    2    0    0 -0.11912718239E+03 -0.73841780520E+03 -0.20941458390E+04  0.22255454877E+04  0.90298294725E+02 0.  0.
        254    2    1    2    0    0  0.11912718239E+03  0.73841780520E+03 -0.69419662597E+03  0.13735316644E+04  0.91936289737E+03 0.  0.
         23    2    4    4    0    0 -0.14558662467E+03  0.64707468392E+03 -0.56828415816E+02  0.67172504322E+03  0.89910805687E+02 0.  0.
         23    2    4    4    0    0  0.26471380706E+03  0.91343121276E+02 -0.63736821016E+03  0.70180662121E+03  0.88754339651E+02 0.  0.
          4    1    3    3  502    0 -0.64037529027E+02 -0.28040325645E+03 -0.92471919684E+03  0.96841746389E+03  0.00000000000E+00 0. -1.
         -4    1    3    3    0  502 -0.55089653364E+02 -0.45801454875E+03 -0.11694266422E+04  0.12571280238E+04  0.00000000000E+00 0.  1.
         11    1    5    5    0    0 -0.92964238029E+02  0.40353527044E+03  0.83206114661E+01  0.41418872102E+03  0.00000000000E+00 0.  1.
        -11    1    5    5    0    0 -0.52622386641E+02  0.24353941348E+03 -0.65149027282E+02  0.25753632220E+03  0.00000000000E+00 0. -1.
          1    1    6    6  503    0  0.11648132801E+03 -0.38248159212E+01 -0.22506042479E+03  0.25344570188E+03  0.00000000000E+00 0. -1.
         -1    1    6    6    0  503  0.14823247905E+03  0.95167937197E+02 -0.41230778537E+03  0.44836091934E+03  0.00000000000E+00 0.  1.
<mgrwt>
<rscale>  0 0.22756324E+04</rscale>
<asrwt>0</asrwt>
<pdfrwt beam="1">  1        1 0.49133998E+00 0.22756324E+04</pdfrwt>
<pdfrwt beam="2">  1       -1 0.62364205E-01 0.22756324E+04</pdfrwt>
<totfact> 0.10162376E+00</totfact>
</mgrwt>
</event>
<event>
12    2  0.3518828E-008  0.1233411E+04  0.7818608E-02  0.9084104E-01
         -1   -1    0    0    0  501 -0.00000000000E+00  0.00000000000E+00  0.15307461694E+03  0.15307461694E+03  0.00000000000E+00 0.  1.
          1   -1    0    0  501    0  0.00000000000E+00 -0.00000000000E+00 -0.24845787411E+04  0.24845787411E+04  0.00000000000E+00 0. -1.
         23    2    1    2    0    0 -0.50807616007E+02 -0.13059643695E+03 -0.37530247070E+02  0.17048604835E+03  0.89555178787E+02 0.  0.
        254    2    1    2    0    0  0.50807616007E+02  0.13059643695E+03 -0.22939738771E+04  0.24671673097E+04  0.89719649021E+03 0.  0.
         23    2    4    4    0    0  0.29215689796E+03  0.40267306269E+03 -0.16061005775E+04  0.16840045052E+04  0.93866181663E+02 0.  0.
         23    2    4    4    0    0 -0.24134928196E+03 -0.27207662574E+03 -0.68787329961E+03  0.78316280450E+03  0.88877082917E+02 0.  0.
          4    1    3    3  502    0 -0.65386230074E+02 -0.13540711619E+03 -0.29777899350E+02  0.15328786478E+03  0.00000000000E+00 0.  1.
         -4    1    3    3    0  502  0.14578614066E+02  0.48106792426E+01 -0.77523477198E+01  0.17198183568E+02  0.00000000000E+00 0. -1.
         11    1    5    5    0    0  0.52485153377E+02  0.56649884351E+02 -0.37695104057E+03  0.38478044091E+03  0.00000000000E+00 0.  1.
        -11    1    5    5    0    0  0.23967174459E+03  0.34602317834E+03 -0.12291495369E+04  0.12992240643E+04  0.00000000000E+00 0. -1.
          4    1    6    6  503    0 -0.83211156785E+02 -0.77889846375E+02 -0.13826022382E+03  0.17918374444E+03  0.00000000000E+00 0.  1.
         -4    1    6    6    0  503 -0.15813812517E+03 -0.19418677936E+03 -0.54961307579E+03  0.60397906006E+03  0.00000000000E+00 0. -1.
<mgrwt>
<rscale>  0 0.12334114E+04</rscale>
<asrwt>0</asrwt>
<pdfrwt beam="1">  1        1 0.38224288E+00 0.12334114E+04</pdfrwt>
<pdfrwt beam="2">  1       -1 0.23549941E-01 0.12334114E+04</pdfrwt>
<totfact> 0.21390403E+01</totfact>
</mgrwt>
</event>
<event>
12    2  0.3518828E-008  0.2897524E+04  0.7818608E-02  0.8273615E-01
         -2   -1    0    0    0  501 -0.00000000000E+00  0.00000000000E+00  0.18927344910E+04  0.18927344910E+04  0.00000000000E+00 0.  1.
          2   -1    0    0  501    0  0.00000000000E+00 -0.00000000000E+00 -0.11089304846E+04  0.11089304846E+04  0.00000000000E+00 0. -1.
         23    2    1    2    0    0 -0.11608659168E+03  0.25482504531E+01 -0.99120766527E+03  0.10019021803E+04  0.88502841229E+02 0.  0.
        254    2    1    2    0    0  0.11608659168E+03 -0.25482504531E+01  0.17750116716E+04  0.19997627953E+04  0.91372983571E+03 0.  0.
         23    2    4    4    0    0 -0.31568266635E+03  0.14752766835E+03  0.35863124539E+03  0.50865703724E+03  0.93250483102E+02 0.  0.
         23    2    4    4    0    0  0.43176925802E+03 -0.15007591881E+03  0.14163804262E+04  0.14911057580E+04  0.91188794843E+02 0.  0.
          1    1    3    3  502    0 -0.74502291225E+02  0.30725536398E+01 -0.88032206124E+03  0.88347437059E+03  0.00000000000E+00 0. -1.
         -1    1    3    3    0  502 -0.41584300453E+02 -0.52430318673E+00 -0.11088560404E+03  0.11842780974E+03  0.00000000000E+00 0.  1.
         11    1    5    5    0    0 -0.28327764491E+03  0.13596641240E+03  0.35495914325E+03  0.47405599120E+03  0.00000000000E+00 0. -1.
        -11    1    5    5    0    0 -0.32405021431E+02  0.11561255949E+02  0.36721021404E+01  0.34601046042E+02  0.00000000000E+00 0.  1.
          3    1    6    6  503    0  0.25312339544E+03 -0.61707304884E+02  0.67913840888E+03  0.72739825626E+03  0.00000000000E+00 0. -1.
         -3    1    6    6    0  503  0.17864586259E+03 -0.88368613921E+02  0.73724201735E+03  0.76370750179E+03  0.00000000000E+00 0.  1.
<mgrwt>
<rscale>  0 0.28975238E+04</rscale>
<asrwt>0</asrwt>
<pdfrwt beam="1">  1        2 0.17060469E+00 0.28975238E+04</pdfrwt>
<pdfrwt beam="2">  1       -2 0.29118992E+00 0.28975238E+04</pdfrwt>
<totfact> 0.66814876E-01</totfact>
</mgrwt>
</event>
<event>
12    2  0.3518828E-008  0.2436164E+04  0.7818608E-02  0.8426087E-01
          1   -1    0    0  501    0  0.00000000000E+00  0.00000000000E+00  0.16882161979E+04  0.16882161979E+04  0.00000000000E+00 0. -1.
         -1   -1    0    0    0  501 -0.00000000000E+00 -0.00000000000E+00 -0.87887050467E+03  0.87887050467E+03  0.00000000000E+00 0.  1.
         23    2    1    2    0    0 -0.84562246249E+03 -0.42478638232E+03  0.82913328436E+03  0.12616240264E+04  0.93340028945E+02 0.  0.
        254    2    1    2    0    0  0.84562246249E+03  0.42478638232E+03 -0.19787591090E+02  0.13054626762E+04  0.89906642168E+03 0.  0.
         23    2    4    4    0    0  0.87308107442E+03  0.50399192313E+03 -0.25269029381E+03  0.10431461394E+04  0.89571549086E+02 0.  0.
         23    2    4    4    0    0 -0.27458611934E+02 -0.79205540810E+02  0.23290270272E+03  0.26231653686E+03  0.86826283530E+02 0.  0.
          1    1    3    3  502    0 -0.55294813746E+03 -0.27867619671E+03  0.48237493642E+03  0.78491887774E+03  0.00000000000E+00 0. -1.
         -1    1    3    3    0  502 -0.29267432503E+03 -0.14611018561E+03  0.34675834793E+03  0.47670514863E+03  0.00000000000E+00 0.  1.
         11    1    5    5    0    0  0.85863480409E+03  0.48250653828E+03 -0.25425673879E+03  0.10172083245E+04  0.00000000000E+00 0. -1.
        -11    1    5    5    0    0  0.14446270332E+02  0.21485384855E+02  0.15664449801E+01  0.25937814842E+02  0.00000000000E+00 0.  1.
          2    1    6    6  503    0 -0.20274761003E+01 -0.73534158241E+02  0.86217222720E+02  0.11333486922E+03  0.00000000000E+00 0. -1.
         -2    1    6    6    0  503 -0.25431135833E+02 -0.56713825689E+01  0.14668548000E+03  0.14898166764E+03  0.00000000000E+00 0.  1.
<mgrwt>
<rscale>  0 0.24361637E+04</rscale>
<asrwt>0</asrwt>
<pdfrwt beam="1">  1        1 0.25972557E+00 0.24361637E+04</pdfrwt>
<pdfrwt beam="2">  1       -1 0.13521085E+00 0.24361637E+04</pdfrwt>
<totfact> 0.19898465E+00</totfact>
</mgrwt>
</event>
<event>
12    2  0.3518828E-008  0.2262211E+04  0.7818608E-02  0.8492972E-01
         -1   -1    0    0    0  501 -0.00000000000E+00  0.00000000000E+00  0.97319593633E+03  0.97319593633E+03  0.00000000000E+00 0.  1.
          1   -1    0    0  501    0  0.00000000000E+00 -0.00000000000E+00 -0.13146372290E+04  0.13146372290E+04  0.00000000000E+00 0. -1.
         23    2    1    2    0    0 -0.94912851453E+02  0.86527175877E+03  0.26587292197E+03  0.91556278267E+03  0.99313304666E+02 0.  0.
        254    2    1    2    0    0  0.94912851453E+02 -0.86527175877E+03 -0.60731421459E+03  0.13722703826E+04  0.86982284511E+03 0.  0.
         23    2    4    4    0    0  0.31817629633E+03 -0.92203181114E+03 -0.44220454051E+03  0.10747633314E+04  0.90512687212E+02 0.  0.
         23    2    4    4    0    0 -0.22326344488E+03  0.56760052372E+02 -0.16510967409E+03  0.29750705124E+03  0.90448724107E+02 0.  0.
          4    1    3    3  502    0 -0.66601310687E+02  0.25861391089E+03  0.10797109418E+03  0.28805320111E+03  0.00000000000E+00 0. -1.
         -4    1    3    3    0  502 -0.28311540766E+02  0.60665784787E+03  0.15790182779E+03  0.62750958156E+03  0.00000000000E+00 0.  1.
         11    1    5    5    0    0  0.26406043527E+03 -0.82033823678E+03 -0.36388653262E+03  0.93546573685E+03  0.00000000000E+00 0. -1.
        -11    1    5    5    0    0  0.54115861059E+02 -0.10169357436E+03 -0.78318007881E+02  0.13929759453E+03  0.00000000000E+00 0.  1.
          2    1    6    6  503    0 -0.17950876829E+02  0.28385727935E+02 -0.17974511272E+01  0.33633530291E+02  0.00000000000E+00 0.  1.
         -2    1    6    6    0  503 -0.20531256805E+03  0.28374324437E+02 -0.16331222296E+03  0.26387352094E+03  0.00000000000E+00 0. -1.
<mgrwt>
<rscale>  0 0.22622110E+04</rscale>
<asrwt>0</asrwt>
<pdfrwt beam="1">  1        1 0.20225188E+00 0.22622110E+04</pdfrwt>
<pdfrwt beam="2">  1       -1 0.14972245E+00 0.22622110E+04</pdfrwt>
<totfact> 0.28080768E+00</totfact>
</mgrwt>
</event>
<event>
12    2  0.3518828E-008  0.2463833E+04  0.7818608E-02  0.8415985E-01
          2   -1    0    0  501    0  0.00000000000E+00  0.00000000000E+00  0.11084204008E+04  0.11084204008E+04  0.00000000000E+00 0.  1.
         -2   -1    0    0    0  501 -0.00000000000E+00 -0.00000000000E+00 -0.13691717857E+04  0.13691717857E+04  0.00000000000E+00 0. -1.
         23    2    1    2    0    0  0.20865799993E+03 -0.77118050490E+03  0.59527293476E+03  0.10033374893E+04  0.11865377592E+03 0.  0.
        254    2    1    2    0    0 -0.20865799993E+03  0.77118050490E+03 -0.85602431966E+03  0.14742546972E+04  0.89576321887E+03 0.  0.
         23    2    4    4    0    0 -0.45913358918E+03  0.79062527050E+03 -0.74771545973E+03  0.11844777008E+04  0.89537946865E+02 0.  0.
         23    2    4    4    0    0  0.25047558925E+03 -0.19444765603E+02 -0.10830885993E+03  0.28977699638E+03  0.95518473464E+02 0.  0.
          4    1    3    3  502    0  0.19405518896E+03 -0.62600429440E+03  0.53270752081E+03  0.84458042583E+03  0.00000000000E+00 0.  1.
         -4    1    3    3    0  502  0.14602810966E+02 -0.14517621050E+03  0.62565413945E+02  0.15875706348E+03  0.00000000000E+00 0. -1.
         11    1    5    5    0    0 -0.42748238337E+03  0.67790014153E+03 -0.65899517650E+03  0.10375762298E+04  0.00000000000E+00 0. -1.
        -11    1    5    5    0    0 -0.31651205806E+02  0.11272512897E+03 -0.88720283227E+02  0.14690147101E+03  0.00000000000E+00 0.  1.
          4    1    6    6  503    0  0.14376910126E+03  0.21706171858E+02 -0.23245946302E+02  0.14724498767E+03  0.00000000000E+00 0. -1.
         -4    1    6    6    0  503  0.10670648799E+03 -0.41150937460E+02 -0.85062913627E+02  0.14253200871E+03  0.00000000000E+00 0.  1.
<mgrwt>
<rscale>  0 0.24638327E+04</rscale>
<asrwt>0</asrwt>
<pdfrwt beam="1">  1        2 0.17052621E+00 0.24638327E+04</pdfrwt>
<pdfrwt beam="2">  1       -2 0.21064181E+00 0.24638327E+04</pdfrwt>
<totfact> 0.21839446E+00</totfact>
</mgrwt>
</event>
<event>
12    2  0.3518828E-008  0.1327025E+04  0.7818608E-02  0.9008405E-01
         -1   -1    0    0    0  501 -0.00000000000E+00  0.00000000000E+00  0.19780196238E+03  0.19780196238E+03  0.00000000000E+00 0.  1.
          1   -1    0    0  501    0  0.00000000000E+00 -0.00000000000E+00 -0.22257044503E+04  0.22257044503E+04  0.00000000000E+00 0. -1.
         23    2    1    2    0    0  0.22694679200E+03 -0.15580090296E+03 -0.95019638478E+03  0.99317161058E+03  0.87965394544E+02 0.  0.
        254    2    1    2    0    0 -0.22694679200E+03  0.15580090296E+03 -0.10777061031E+04  0.14303348021E+04  0.89923769584E+03 0.  0.
         23    2    4    4    0    0 -0.17404749827E+03 -0.35778398966E+03 -0.38435380888E+03  0.56098031464E+03  0.93108260093E+02 0.  0.
         23    2    4    4    0    0 -0.52899293731E+02  0.51358489262E+03 -0.69335229424E+03  0.86935448746E+03  0.92043705517E+02 0.  0.
          1    1    3    3  502    0  0.21936528890E+03 -0.12697694802E+03 -0.77323168102E+03  0.81371463539E+03  0.00000000000E+00 0. -1.
         -1    1    3    3    0  502  0.75815030988E+01 -0.28823954942E+02 -0.17696470376E+03  0.17945697519E+03  0.00000000000E+00 0.  1.
         11    1    5    5    0    0  0.40796586649E+01 -0.30082006132E+02 -0.86313423863E+01  0.31560589017E+02  0.00000000000E+00 0. -1.
        -11    1    5    5    0    0 -0.17812715693E+03 -0.32770198353E+03 -0.37572246650E+03  0.52941972562E+03  0.00000000000E+00 0.  1.
          1    1    6    6  503    0 -0.58274042159E+02  0.22854541017E+03 -0.36422310734E+03  0.43392089190E+03  0.00000000000E+00 0. -1.
         -1    1    6    6    0  503  0.53747484276E+01  0.28503948245E+03 -0.32912918690E+03  0.43543359556E+03  0.00000000000E+00 0.  1.
<mgrwt>
<rscale>  0 0.13270248E+04</rscale>
<asrwt>0</asrwt>
<pdfrwt beam="1">  1        1 0.34241605E+00 0.13270248E+04</pdfrwt>
<pdfrwt beam="2">  1       -1 0.30431073E-01 0.13270248E+04</pdfrwt>
<totfact> 0.20462965E+01</totfact>
</mgrwt>
</event>
<event>
12    2  0.3518828E-008  0.1960116E+04  0.7818608E-02  0.8625498E-01
          2   -1    0    0  501    0  0.00000000000E+00  0.00000000000E+00  0.32608227834E+04  0.32608227834E+04  0.00000000000E+00 0. -1.
         -2   -1    0    0    0  501 -0.00000000000E+00 -0.00000000000E+00 -0.29456162519E+03  0.29456162519E+03  0.00000000000E+00 0.  1.
         23    2    1    2    0    0 -0.26406299391E+03 -0.63366548539E+03  0.54209624692E+03  0.87928285541E+03  0.89491825158E+02 0.  0.
        254    2    1    2    0    0  0.26406299391E+03  0.63366548539E+03  0.24241649113E+04  0.26761015532E+04  0.90204367616E+03 0.  0.
         23    2    4    4    0    0 -0.15577286210E+03  0.66168027385E+03  0.17059020473E+04  0.18386399360E+04  0.91700871302E+02 0.  0.
         23    2    4    4    0    0  0.41983585601E+03 -0.28014788467E+02  0.71826286405E+03  0.83746161727E+03  0.91615741858E+02 0.  0.
          3    1    3    3  502    0 -0.59222742033E+02 -0.21540016688E+03  0.21596078987E+03  0.31071470488E+03  0.00000000000E+00 0. -1.
         -3    1    3    3    0  502 -0.20484025188E+03 -0.41826531850E+03  0.32613545705E+03  0.56856815053E+03  0.00000000000E+00 0.  1.
         11    1    5    5    0    0 -0.15516024625E+03  0.56765070155E+03  0.14011715748E+04  0.15197314904E+04  0.00000000000E+00 0. -1.
        -11    1    5    5    0    0 -0.61261584557E+00  0.94029572304E+02  0.30473047252E+03  0.31890844555E+03  0.00000000000E+00 0.  1.
          3    1    6    6  503    0  0.34524218737E+03 -0.10109758254E+00  0.63131674178E+03  0.71955055876E+03  0.00000000000E+00 0. -1.
         -3    1    6    6    0  503  0.74593668641E+02 -0.27913690884E+02  0.86946122266E+02  0.11791105850E+03  0.00000000000E+00 0.  1.
<mgrwt>
<rscale>  0 0.19601156E+04</rscale>
<asrwt>0</asrwt>
<pdfrwt beam="1">  1        2 0.50166502E+00 0.19601156E+04</pdfrwt>
<pdfrwt beam="2">  1       -2 0.45317176E-01 0.19601156E+04</pdfrwt>
<totfact> 0.51120098E+00</totfact>
</mgrwt>
</event>
<event>
12    2  0.3518828E-008  0.1188465E+04  0.7818608E-02  0.9123014E-01
         -1   -1    0    0    0  501 -0.00000000000E+00  0.00000000000E+00  0.13807323665E+04  0.13807323665E+04  0.00000000000E+00 0.  1.
          1   -1    0    0  501    0  0.00000000000E+00 -0.00000000000E+00 -0.25574256260E+03  0.25574256260E+03  0.00000000000E+00 0. -1.
         23    2    1    2    0    0 -0.22444253617E+03 -0.24831067488E+02  0.15696979795E+03  0.29017301108E+03  0.92573348959E+02 0.  0.
        254    2    1    2    0    0  0.22444253617E+03  0.24831067488E+02  0.96802000591E+03  0.13463019180E+04  0.90800610600E+03 0.  0.
         23    2    4    4    0    0  0.12971719249E+03 -0.32368925601E+03  0.59665617804E+02  0.36491398564E+03  0.89448009935E+02 0.  0.
         23    2    4    4    0    0  0.94725343685E+02  0.34852032350E+03  0.90835438810E+03  0.98138793233E+03  0.87036042608E+02 0.  0.
          3    1    3    3  502    0 -0.22683984359E+03 -0.27823151206E+02  0.16459272663E+03  0.28164021028E+03  0.00000000000E+00 0. -1.
         -3    1    3    3    0  502  0.23973074224E+01  0.29920837186E+01 -0.76229286846E+01  0.85328008056E+01  0.00000000000E+00 0.  1.
         11    1    5    5    0    0  0.85376388912E+02 -0.28547598268E+03  0.68431210640E+02  0.30572617661E+03  0.00000000000E+00 0. -1.
        -11    1    5    5    0    0  0.44340803573E+02 -0.38213273328E+02 -0.87655928365E+01  0.59187809030E+02  0.00000000000E+00 0.  1.
          2    1    6    6  503    0  0.89520198423E+02  0.26228680841E+03  0.59562726847E+03  0.65694754641E+03  0.00000000000E+00 0. -1.
         -2    1    6    6    0  503  0.52051452621E+01  0.86233515088E+02  0.31272711964E+03  0.32444038592E+03  0.00000000000E+00 0.  1.
<mgrwt>
<rscale>  0 0.11884646E+04</rscale>
<asrwt>0</asrwt>
<pdfrwt beam="1">  1        1 0.39345010E-01 0.11884646E+04</pdfrwt>
<pdfrwt beam="2">  1       -1 0.21242036E+00 0.11884646E+04</pdfrwt>
<totfact> 0.13247850E+01</totfact>
</mgrwt>
</event>
<event>
12    2  0.3518828E-008  0.2339225E+04  0.7818608E-02  0.8462614E-01
         -2   -1    0    0    0  501 -0.00000000000E+00  0.00000000000E+00  0.82556223299E+03  0.82556223299E+03  0.00000000000E+00 0.  1.
          2   -1    0    0  501    0  0.00000000000E+00 -0.00000000000E+00 -0.16570443613E+04  0.16570443613E+04  0.00000000000E+00 0. -1.
         23    2    1    2    0    0  0.59641347872E+03 -0.52376643485E+03  0.28111011020E+03  0.84687094094E+03  0.90150877246E+02 0.  0.
        254    2    1    2    0    0 -0.59641347872E+03  0.52376643485E+03 -0.11125922385E+04  0.16357356534E+04  0.89873762722E+03 0.  0.
         23    2    4    4    0    0 -0.30213991414E+03  0.31200702415E+03  0.18719129937E+02  0.44423512194E+03  0.91419510509E+02 0.  0.
         23    2    4    4    0    0 -0.29427356458E+03  0.21175941071E+03 -0.11313113685E+04  0.11915005314E+04  0.91482922647E+02 0.  0.
          3    1    3    3  502    0  0.22956300739E+03 -0.18971212571E+03  0.15117860662E+03  0.33398328716E+03  0.00000000000E+00 0. -1.
         -3    1    3    3    0  502  0.36685047133E+03 -0.33405430914E+03  0.12993150358E+03  0.51288765377E+03  0.00000000000E+00 0.  1.
         11    1    5    5    0    0 -0.14736691800E+03  0.94229151739E+02  0.26691620356E+02  0.17694231873E+03  0.00000000000E+00 0. -1.
        -11    1    5    5    0    0 -0.15477299614E+03  0.21777787241E+03 -0.79724904190E+01  0.26729280321E+03  0.00000000000E+00 0.  1.
          3    1    6    6  503    0 -0.67981138560E+01  0.31694731048E+02 -0.66802882868E+02  0.74252242307E+02  0.00000000000E+00 0. -1.
         -3    1    6    6    0  503 -0.28747545072E+03  0.18006467966E+03 -0.10645084856E+04  0.11172482891E+04  0.00000000000E+00 0.  1.
<mgrwt>
<rscale>  0 0.23392249E+04</rscale>
<asrwt>0</asrwt>
<pdfrwt beam="1">  1        2 0.25492990E+00 0.23392249E+04</pdfrwt>
<pdfrwt beam="2">  1       -2 0.12700957E+00 0.23392249E+04</pdfrwt>
<totfact> 0.43142246E+00</totfact>
</mgrwt>
</event>
<event>
12    2  0.3518828E-008  0.1309063E+04  0.7818608E-02  0.9022408E-01
          2   -1    0    0  501    0  0.00000000000E+00  0.00000000000E+00  0.10373120423E+04  0.10373120423E+04  0.00000000000E+00 0. -1.
         -2   -1    0    0    0  501 -0.00000000000E+00 -0.00000000000E+00 -0.41300186178E+03  0.41300186178E+03  0.00000000000E+00 0.  1.
         23    2    1    2    0    0 -0.14421031673E+03  0.16161971632E+03 -0.11942696787E+03  0.26297681852E+03  0.89311019868E+02 0.  0.
        254    2    1    2    0    0  0.14421031673E+03 -0.16161971632E+03  0.74373714840E+03  0.11873370856E+04  0.89983713011E+03 0.  0.
         23    2    4    4    0    0  0.38225239442E+03 -0.39129849920E+03  0.31551227048E+03  0.63822430117E+03  0.92470845514E+02 0.  0.
         23    2    4    4    0    0 -0.23804207769E+03  0.22967878288E+03  0.42822487791E+03  0.54911278440E+03  0.93444795878E+02 0.  0.
          2    1    3    3  502    0 -0.11067776472E+03  0.57143122858E+02 -0.62288455320E+02  0.13926505578E+03  0.00000000000E+00 0. -1.
         -2    1    3    3    0  502 -0.33532552011E+02  0.10447659346E+03 -0.57138512546E+02  0.12371176274E+03  0.00000000000E+00 0.  1.
         11    1    5    5    0    0  0.36505252800E+03 -0.37082881232E+03  0.27202491013E+03  0.58717536390E+03  0.00000000000E+00 0.  1.
        -11    1    5    5    0    0  0.17199866423E+02 -0.20469686874E+02  0.43487360356E+02  0.51048937270E+02  0.00000000000E+00 0. -1.
          1    1    6    6  503    0 -0.93212503328E+02  0.69225632536E+02  0.86583082624E+02  0.14483573169E+03  0.00000000000E+00 0. -1.
         -1    1    6    6    0  503 -0.14482957436E+03  0.16045315034E+03  0.34164179529E+03  0.40427705272E+03  0.00000000000E+00 0.  1.
<mgrwt>
<rscale>  0 0.13090635E+04</rscale>
<asrwt>0</asrwt>
<pdfrwt beam="1">  1        2 0.15958647E+00 0.13090635E+04</pdfrwt>
<pdfrwt beam="2">  1       -2 0.63538748E-01 0.13090635E+04</pdfrwt>
<totfact> 0.53551251E+01</totfact>
</mgrwt>
</event>
<event>
12    2  0.3518828E-008  0.2410866E+04  0.7818608E-02  0.8435447E-01
          1   -1    0    0  501    0  0.00000000000E+00  0.00000000000E+00  0.23800186503E+04  0.23800186503E+04  0.00000000000E+00 0. -1.
         -1   -1    0    0    0  501 -0.00000000000E+00 -0.00000000000E+00 -0.61052828682E+03  0.61052828682E+03  0.00000000000E+00 0.  1.
         23    2    1    2    0    0  0.44595231557E+03  0.80846964477E+03  0.18194011484E+03  0.94564364357E+03  0.92968064242E+02 0.  0.
        254    2    1    2    0    0 -0.44595231557E+03 -0.80846964477E+03  0.15875502486E+04  0.20449032935E+04  0.89934256750E+03 0.  0.
         23    2    4    4    0    0  0.20861171680E+02 -0.47874704061E+03  0.13199931591E+04  0.14072697472E+04  0.91609409919E+02 0.  0.
         23    2    4    4    0    0 -0.46681348725E+03 -0.32972260415E+03  0.26755708949E+03  0.63763354629E+03  0.91421636626E+02 0.  0.
          2    1    3    3  502    0  0.13094426431E+03  0.16779972553E+03  0.62198806969E+02  0.22174724312E+03  0.00000000000E+00 0. -1.
         -2    1    3    3    0  502  0.31500805126E+03  0.64066991924E+03  0.11974130787E+03  0.72389640045E+03  0.00000000000E+00 0.  1.
         11    1    5    5    0    0 -0.33424752564E+02 -0.16580359141E+03  0.41414627843E+03  0.44735353463E+03  0.00000000000E+00 0.  1.
        -11    1    5    5    0    0  0.54285924244E+02 -0.31294344920E+03  0.90584688069E+03  0.95991621261E+03  0.00000000000E+00 0. -1.
          3    1    6    6  503    0 -0.33955402135E+03 -0.19743280913E+03  0.20919256804E+03  0.44501480656E+03  0.00000000000E+00 0. -1.
         -3    1    6    6    0  503 -0.12725946591E+03 -0.13228979502E+03  0.58364521449E+02  0.19261873973E+03  0.00000000000E+00 0.  1.
<mgrwt>
<rscale>  0 0.24108660E+04</rscale>
<asrwt>0</asrwt>
<pdfrwt beam="1">  1        1 0.36615671E+00 0.24108660E+04</pdfrwt>
<pdfrwt beam="2">  1       -1 0.93927430E-01 0.24108660E+04</pdfrwt>
<totfact> 0.16121988E+00</totfact>
</mgrwt>
</event>
<event>
12    2  0.3518828E-008  0.2335597E+04  0.7818608E-02  0.8464017E-01
         -2   -1    0    0    0  501 -0.00000000000E+00  0.00000000000E+00  0.11765478723E+04  0.11765478723E+04  0.00000000000E+00 0.  1.
          2   -1    0    0  501    0  0.00000000000E+00 -0.00000000000E+00 -0.11591137282E+04  0.11591137282E+04  0.00000000000E+00 0. -1.
         23    2    1    2    0    0  0.95951301252E+03 -0.22013068022E+03  0.14620296286E+03  0.99946603060E+03  0.91838458205E+02 0.  0.
        254    2    1    2    0    0 -0.95951301252E+03  0.22013068022E+03 -0.12876881872E+03  0.13361955699E+04  0.89426755205E+03 0.  0.
         23    2    4    4    0    0 -0.10074364138E+04  0.32235034042E+03  0.97458177527E+02  0.10662358002E+04  0.92319094863E+02 0.  0.
         23    2    4    4    0    0  0.47923401328E+02 -0.10221966020E+03 -0.22622699625E+03  0.26995976969E+03  0.94626170218E+02 0.  0.
          2    1    3    3  502    0  0.17266211890E+03 -0.31266032381E+02  0.61099544592E+02  0.18580346184E+03  0.00000000000E+00 0. -1.
         -2    1    3    3    0  502  0.78685089362E+03 -0.18886464784E+03  0.85103418265E+02  0.81366256875E+03  0.00000000000E+00 0.  1.
         11    1    5    5    0    0 -0.66925992063E+02  0.15851691403E+01  0.18200433910E+02  0.69374757436E+02  0.00000000000E+00 0. -1.
        -11    1    5    5    0    0 -0.94051042178E+03  0.32076517128E+03  0.79257743618E+02  0.99686104273E+03  0.00000000000E+00 0.  1.
          4    1    6    6  503    0 -0.26935627644E+02 -0.23355529060E+02 -0.81330389260E+02  0.88801131701E+02  0.00000000000E+00 0. -1.
         -4    1    6    6    0  503  0.74859028971E+02 -0.78864131142E+02 -0.14489660699E+03  0.18115863798E+03  0.00000000000E+00 0.  1.
<mgrwt>
<rscale>  0 0.23355965E+04</rscale>
<asrwt>0</asrwt>
<pdfrwt beam="1">  1        2 0.17832519E+00 0.23355965E+04</pdfrwt>
<pdfrwt beam="2">  1       -2 0.18100736E+00 0.23355965E+04</pdfrwt>
<totfact> 0.32334890E+00</totfact>
</mgrwt>
</event>
<event>
12    2  0.3518828E-008  0.2243796E+04  0.7818608E-02  0.8500417E-01
          2   -1    0    0  501    0  0.00000000000E+00  0.00000000000E+00  0.67202263365E+03  0.67202263365E+03  0.00000000000E+00 0. -1.
         -2   -1    0    0    0  501 -0.00000000000E+00 -0.00000000000E+00 -0.18729352418E+04  0.18729352418E+04  0.00000000000E+00 0.  1.
         23    2    1    2    0    0  0.64243855819E+03  0.30199209903E+03  0.16955638312E+03  0.73448454858E+03  0.82411504777E+02 0.  0.
        254    2    1    2    0    0 -0.64243855819E+03 -0.30199209903E+03 -0.13704689912E+04  0.18104733268E+04  0.94641528005E+03 0.  0.
         23    2    4    4    0    0 -0.28297491669E+03 -0.45024239708E+03 -0.12967831296E+04  0.14045200513E+04  0.90758303348E+02 0.  0.
         23    2    4    4    0    0 -0.35946364150E+03  0.14825029805E+03 -0.73685861607E+02  0.40595327553E+03  0.90422316266E+02 0.  0.
          1    1    3    3  502    0  0.24649589366E+03  0.10904238022E+03  0.24007588515E+02  0.27060456497E+03  0.00000000000E+00 0. -1.
         -1    1    3    3    0  502  0.39594266452E+03  0.19294971880E+03  0.14554879461E+03  0.46387998360E+03  0.00000000000E+00 0.  1.
         11    1    5    5    0    0 -0.71622971146E+01 -0.30174838219E+01 -0.34024490828E+01  0.84841244884E+01  0.00000000000E+00 0.  1.
        -11    1    5    5    0    0 -0.27581261958E+03 -0.44722491325E+03 -0.12933806806E+04  0.13960359268E+04  0.00000000000E+00 0. -1.
          1    1    6    6  503    0 -0.35656308435E+03  0.13139028002E+03 -0.61490598667E+02  0.38494380438E+03  0.00000000000E+00 0. -1.
         -1    1    6    6    0  503 -0.29005571490E+01  0.16860018032E+02 -0.12195262939E+02  0.21009471150E+02  0.00000000000E+00 0.  1.
<mgrwt>
<rscale>  0 0.22437958E+04</rscale>
<asrwt>0</asrwt>
<pdfrwt beam="1">  1        2 0.10338810E+00 0.22437958E+04</pdfrwt>
<pdfrwt beam="2">  1       -2 0.28814388E+00 0.22437958E+04</pdfrwt>
<totfact> 0.14759013E+00</totfact>
</mgrwt>
</event>
<event>
12    2  0.3518828E-008  0.2909288E+04  0.7818608E-02  0.8270119E-01
          2   -1    0    0  501    0  0.00000000000E+00  0.00000000000E+00  0.37158791044E+04  0.37158791044E+04  0.00000000000E+00 0. -1.
         -2   -1    0    0    0  501 -0.00000000000E+00 -0.00000000000E+00 -0.56944522257E+03  0.56944522257E+03  0.00000000000E+00 0.  1.
         23    2    1    2    0    0  0.56949216614E+03  0.85129779285E+03  0.26388126197E+04  0.28321362646E+04  0.92922116226E+02 0.  0.
        254    2    1    2    0    0 -0.56949216614E+03 -0.85129779285E+03  0.50762126205E+03  0.14531880623E+04  0.89724408017E+03 0.  0.
         23    2    4    4    0    0  0.13797128845E+03 -0.18322674908E+03 -0.13715154138E+03  0.28210674065E+03  0.90363431763E+02 0.  0.
         23    2    4    4    0    0 -0.70746345459E+03 -0.66807104377E+03  0.64477280343E+03  0.11710813217E+04  0.94212710607E+02 0.  0.
          1    1    3    3  502    0  0.55755902040E+03  0.84898967222E+03  0.25958865284E+04  0.27875226265E+04  0.00000000000E+00 0. -1.
         -1    1    3    3    0  502  0.11933145739E+02  0.23081206286E+01  0.42926091338E+02  0.44613638112E+02  0.00000000000E+00 0.  1.
         11    1    5    5    0    0 -0.69464649113E+01 -0.21635137479E+02 -0.36159973403E+02  0.42706863910E+02  0.00000000000E+00 0.  1.
        -11    1    5    5    0    0  0.14491775336E+03 -0.16159161160E+03 -0.10099156798E+03  0.23939987674E+03  0.00000000000E+00 0. -1.
          4    1    6    6  503    0 -0.61119937983E+03 -0.54138464047E+03  0.56640080471E+03  0.99371619813E+03  0.00000000000E+00 0. -1.
         -4    1    6    6    0  503 -0.96264074764E+02 -0.12668640329E+03  0.78371998723E+02  0.17736512355E+03  0.00000000000E+00 0.  1.
<mgrwt>
<rscale>  0 0.29092883E+04</rscale>
<asrwt>0</asrwt>
<pdfrwt beam="1">  1        2 0.57167369E+00 0.29092883E+04</pdfrwt>
<pdfrwt beam="2">  1       -2 0.87606959E-01 0.29092883E+04</pdfrwt>
<totfact> 0.55070301E-01</totfact>
</mgrwt>
</event>
<event>
12    2  0.3518828E-008  0.2026692E+04  0.7818608E-02  0.8594242E-01
         -2   -1    0    0    0  501 -0.00000000000E+00  0.00000000000E+00  0.14585950448E+04  0.14585950448E+04  0.00000000000E+00 0.  1.
          2   -1    0    0  501    0  0.00000000000E+00 -0.00000000000E+00 -0.70401320712E+03  0.70401320712E+03  0.00000000000E+00 0. -1.
         23    2    1    2    0    0 -0.48484086931E+02  0.73648013764E+03 -0.59184159076E+02  0.74561330561E+03  0.87651223634E+02 0.  0.
        254    2    1    2    0    0  0.48484086931E+02 -0.73648013764E+03  0.81376599677E+03  0.14169949463E+04  0.89493345037E+03 0.  0.
         23    2    4    4    0    0 -0.37538616069E+03 -0.58034412482E+03  0.53240546449E+03  0.87716544692E+03  0.90827142435E+02 0.  0.
         23    2    4    4    0    0  0.42387024762E+03 -0.15613601281E+03  0.28136053229E+03  0.53982949941E+03  0.90596346443E+02 0.  0.
          1    1    3    3  502    0 -0.71318125092E+02  0.56446832166E+03 -0.30823861632E+02  0.56979019961E+03  0.00000000000E+00 0. -1.
         -1    1    3    3    0  502  0.22834038160E+02  0.17201181598E+03 -0.28360297444E+02  0.17582310601E+03  0.00000000000E+00 0.  1.
         11    1    5    5    0    0 -0.32507643032E+03 -0.43477765418E+03  0.42393685991E+03  0.68878788848E+03  0.00000000000E+00 0. -1.
        -11    1    5    5    0    0 -0.50309730363E+02 -0.14556647065E+03  0.10846860458E+03  0.18837755844E+03  0.00000000000E+00 0.  1.
          4    1    6    6  503    0  0.20593347193E+03 -0.12278750711E+03  0.15879049511E+03  0.28757570846E+03  0.00000000000E+00 0. -1.
         -4    1    6    6    0  503  0.21793677569E+03 -0.33348505703E+02  0.12257003718E+03  0.25225379094E+03  0.00000000000E+00 0.  1.
<mgrwt>
<rscale>  0 0.20266921E+04</rscale>
<asrwt>0</asrwt>
<pdfrwt beam="1">  1        2 0.10830972E+00 0.20266921E+04</pdfrwt>
<pdfrwt beam="2">  1       -2 0.22439924E+00 0.20266921E+04</pdfrwt>
<totfact> 0.34942541E+00</totfact>
</mgrwt>
</event>
<event>
12    2  0.3518828E-008  0.1441493E+04  0.7818608E-02  0.8924319E-01
          2   -1    0    0  501    0  0.00000000000E+00  0.00000000000E+00  0.71659298399E+03  0.71659298399E+03  0.00000000000E+00 0. -1.
         -2   -1    0    0    0  501 -0.00000000000E+00 -0.00000000000E+00 -0.72492426486E+03  0.72492426486E+03  0.00000000000E+00 0.  1.
         23    2    1    2    0    0 -0.34567436865E+03 -0.20934727403E+03 -0.15935049081E+03  0.44366756859E+03  0.90173622608E+02 0.  0.
        254    2    1    2    0    0  0.34567436865E+03  0.20934727403E+03  0.15101920993E+03  0.99784968026E+03  0.89976670995E+03 0.  0.
         23    2    4    4    0    0  0.31683635856E+03  0.47347086057E+03  0.32827917607E+03  0.66379419825E+03  0.91080109140E+02 0.  0.
         23    2    4    4    0    0  0.28838010088E+02 -0.26412358654E+03 -0.17725996613E+03  0.33405548201E+03  0.97872721812E+02 0.  0.
          2    1    3    3  502    0 -0.87851791143E+02 -0.10180159139E+03 -0.58914561646E+02  0.14680744801E+03  0.00000000000E+00 0. -1.
         -2    1    3    3    0  502 -0.25782257750E+03 -0.10754568264E+03 -0.10043592916E+03  0.29686012058E+03  0.00000000000E+00 0.  1.
         11    1    5    5    0    0  0.24586319022E+03  0.33795997871E+03  0.19620280743E+03  0.46169383487E+03  0.00000000000E+00 0.  1.
        -11    1    5    5    0    0  0.70973168337E+02  0.13551088186E+03  0.13207636864E+03  0.20210036338E+03  0.00000000000E+00 0. -1.
          3    1    6    6  503    0  0.12733845186E+02 -0.20067143374E+01 -0.30743758445E+02  0.33337012449E+02  0.00000000000E+00 0. -1.
         -3    1    6    6    0  503  0.16104164902E+02 -0.26211687220E+03 -0.14651620769E+03  0.30071846956E+03  0.00000000000E+00 0.  1.
<mgrwt>
<rscale>  0 0.14414932E+04</rscale>
<asrwt>0</asrwt>
<pdfrwt beam="1">  1        2 0.11024508E+00 0.14414932E+04</pdfrwt>
<pdfrwt beam="2">  1       -2 0.11152681E+00 0.14414932E+04</pdfrwt>
<totfact> 0.24521552E+01</totfact>
</mgrwt>
</event>
<event>
12    2  0.3518828E-008  0.2119953E+04  0.7818608E-02  0.8552505E-01
          2   -1    0    0  501    0  0.00000000000E+00  0.00000000000E+00  0.53117846041E+03  0.53117846041E+03  0.00000000000E+00 0. -1.
         -2   -1    0    0    0  501 -0.00000000000E+00 -0.00000000000E+00 -0.21152025070E+04  0.21152025070E+04  0.00000000000E+00 0.  1.
         23    2    1    2    0    0  0.70099770344E+03  0.12598640825E+03 -0.12608026968E+04  0.14509166665E+04  0.90914122128E+02 0.  0.
        254    2    1    2    0    0 -0.70099770344E+03 -0.12598640825E+03 -0.32322134986E+03  0.11954643010E+04  0.90409761563E+03 0.  0.
         23    2    4    4    0    0 -0.31099238657E+03  0.22075576399E+02  0.29868938967E+03  0.44137224001E+03  0.91599711652E+02 0.  0.
         23    2    4    4    0    0 -0.39000531688E+03 -0.14806198465E+03 -0.62191073953E+03  0.75409206096E+03  0.88630525023E+02 0.  0.
          4    1    3    3  502    0  0.68509326385E+02  0.17110356895E+02 -0.18764248257E+03  0.20048938471E+03  0.00000000000E+00 0. -1.
         -4    1    3    3    0  502  0.63248837706E+03  0.10887605136E+03 -0.10731602142E+04  0.12504272818E+04  0.00000000000E+00 0.  1.
         11    1    5    5    0    0 -0.29357080021E+03 -0.36406316018E+01  0.27545286038E+03  0.40258085800E+03  0.00000000000E+00 0. -1.
        -11    1    5    5    0    0 -0.17421586360E+02  0.25716208000E+02  0.23236529286E+02  0.38791382013E+02  0.00000000000E+00 0.  1.
          1    1    6    6  503    0 -0.24167938727E+03 -0.93263834435E+02 -0.45902911456E+03  0.52708139510E+03  0.00000000000E+00 0. -1.
         -1    1    6    6    0  503 -0.14832592961E+03 -0.54798150215E+02 -0.16288162496E+03  0.22701066585E+03  0.00000000000E+00 0.  1.
<mgrwt>
<rscale>  0 0.21199528E+04</rscale>
<asrwt>0</asrwt>
<pdfrwt beam="1">  1        2 0.81719766E-01 0.21199528E+04</pdfrwt>
<pdfrwt beam="2">  1       -2 0.32541576E+00 0.21199528E+04</pdfrwt>
<totfact> 0.11713885E+00</totfact>
</mgrwt>
</event>
<event>
12    2  0.3518828E-008  0.1777986E+04  0.7818608E-02  0.8718095E-01
          1   -1    0    0  501    0  0.00000000000E+00  0.00000000000E+00  0.55479098445E+03  0.55479098445E+03  0.00000000000E+00 0. -1.
         -1   -1    0    0    0  501 -0.00000000000E+00 -0.00000000000E+00 -0.14245159274E+04  0.14245159274E+04  0.00000000000E+00 0.  1.
         23    2    1    2    0    0  0.14675516942E+03  0.50737500143E+03  0.10624609350E+03  0.54692538347E+03  0.94194855857E+02 0.  0.
        254    2    1    2    0    0 -0.14675516942E+03 -0.50737500143E+03 -0.97597103647E+03  0.14323815284E+04  0.90566600193E+03 0.  0.
         23    2    4    4    0    0  0.32578591219E+03 -0.54501945844E+02 -0.14955069066E+03  0.37374432415E+03  0.90622779020E+02 0.  0.
         23    2    4    4    0    0 -0.47254108161E+03 -0.45287305559E+03 -0.82642034581E+03  0.10586372042E+04  0.96711240066E+02 0.  0.
          1    1    3    3  502    0  0.47504647390E+02  0.97693461247E+02  0.56563877201E+02  0.12247520605E+03  0.00000000000E+00 0. -1.
         -1    1    3    3    0  502  0.99250522027E+02  0.40968154019E+03  0.49682216301E+02  0.42445017742E+03  0.00000000000E+00 0.  1.
         11    1    5    5    0    0 -0.27871564656E+01  0.24254613437E+01  0.49882513266E+01  0.62075562979E+01  0.00000000000E+00 0. -1.
        -11    1    5    5    0    0  0.32857306866E+03 -0.56927407188E+02 -0.15453894198E+03  0.36753676786E+03  0.00000000000E+00 0.  1.
          2    1    6    6  503    0 -0.18007285953E+03 -0.21773531502E+03 -0.29954295594E+03  0.41177771261E+03  0.00000000000E+00 0. -1.
         -2    1    6    6    0  503 -0.29246822207E+03 -0.23513774057E+03 -0.52687738987E+03  0.64685949164E+03  0.00000000000E+00 0.  1.
<mgrwt>
<rscale>  0 0.17779860E+04</rscale>
<asrwt>0</asrwt>
<pdfrwt beam="1">  1        1 0.85352461E-01 0.17779860E+04</pdfrwt>
<pdfrwt beam="2">  1       -1 0.21915629E+00 0.17779860E+04</pdfrwt>
<totfact> 0.40381717E+00</totfact>
</mgrwt>
</event>
<event>
12    2  0.3518828E-008  0.1831000E+04  0.7818608E-02  0.8689985E-01
         -1   -1    0    0    0  501 -0.00000000000E+00  0.00000000000E+00  0.76749458664E+03  0.76749458664E+03  0.00000000000E+00 0.  1.
          1   -1    0    0  501    0  0.00000000000E+00 -0.00000000000E+00 -0.10920473398E+04  0.10920473398E+04  0.00000000000E+00 0. -1.
         23    2    1    2    0    0 -0.54997425393E+03  0.36268652868E+03  0.95325878595E+02  0.67174748764E+03  0.90246694895E+02 0.  0.
        254    2    1    2    0    0  0.54997425393E+03 -0.36268652868E+03 -0.41987863176E+03  0.11877944388E+04  0.89473144873E+03 0.  0.
         23    2    4    4    0    0 -0.38331050518E+02 -0.53906923772E+01  0.22258584377E+03  0.24179319444E+03  0.86146166680E+02 0.  0.
         23    2    4    4    0    0  0.58830530445E+03 -0.35729583630E+03 -0.64246447552E+03  0.94600124436E+03  0.91620446025E+02 0.  0.
          2    1    3    3  502    0 -0.31948050144E+03  0.22192590686E+03  0.12276071119E+02  0.38919095680E+03  0.00000000000E+00 0. -1.
         -2    1    3    3    0  502 -0.23049375250E+03  0.14076062182E+03  0.83049807476E+02  0.28255653083E+03  0.00000000000E+00 0.  1.
         11    1    5    5    0    0 -0.10929101746E+02  0.28328599304E+02  0.24549836030E+02  0.39046757261E+02  0.00000000000E+00 0.  1.
        -11    1    5    5    0    0 -0.27401948772E+02 -0.33719291682E+02  0.19803600774E+03  0.20274643718E+03  0.00000000000E+00 0. -1.
          4    1    6    6  503    0  0.58702356014E+03 -0.34755054720E+03 -0.64094594302E+03  0.93605541764E+03  0.00000000000E+00 0. -1.
         -4    1    6    6    0  503  0.12817443137E+01 -0.97452891012E+01 -0.15185325044E+01  0.99458267188E+01  0.00000000000E+00 0.  1.
<mgrwt>
<rscale>  0 0.18310002E+04</rscale>
<asrwt>0</asrwt>
<pdfrwt beam="1">  1        1 0.16800728E+00 0.18310002E+04</pdfrwt>
<pdfrwt beam="2">  1       -1 0.11807609E+00 0.18310002E+04</pdfrwt>
<totfact> 0.77928157E+00</totfact>
</mgrwt>
</event>
<event>
12    2  0.3518828E-008  0.1516359E+04  0.7818608E-02  0.8873647E-01
          1   -1    0    0  501    0  0.00000000000E+00  0.00000000000E+00  0.11315825784E+04  0.11315825784E+04  0.00000000000E+00 0. -1.
         -1   -1    0    0    0  501 -0.00000000000E+00 -0.00000000000E+00 -0.50799324831E+03  0.50799324831E+03  0.00000000000E+00 0.  1.
         23    2    1    2    0    0  0.26010004292E+03  0.28502613999E+03 -0.12217724051E+03  0.41490202809E+03  0.91238599359E+02 0.  0.
        254    2    1    2    0    0 -0.26010004292E+03 -0.28502613999E+03  0.74576657059E+03  0.12246737986E+04  0.89149660816E+03 0.  0.
         23    2    4    4    0    0  0.14408618368E+03 -0.39660675615E+03  0.89214508961E+02  0.44090154369E+03  0.91527019339E+02 0.  0.
         23    2    4    4    0    0 -0.40418622661E+03  0.11158061616E+03  0.65655206163E+03  0.78377225491E+03  0.86148698527E+02 0.  0.
          3    1    3    3  502    0  0.15548144368E+01  0.36777739144E+02 -0.21373384966E+02  0.42565727168E+02  0.00000000000E+00 0. -1.
         -3    1    3    3    0  502  0.25854522848E+03  0.24824840085E+03 -0.10080385554E+03  0.37233630093E+03  0.00000000000E+00 0.  1.
         11    1    5    5    0    0  0.93091018708E+02 -0.33575760610E+03  0.95459946812E+02  0.36126404369E+03  0.00000000000E+00 0.  1.
        -11    1    5    5    0    0  0.50995164977E+02 -0.60849150052E+02 -0.62454378505E+01  0.79637500004E+02  0.00000000000E+00 0. -1.
          2    1    6    6  503    0 -0.23909930055E+03  0.38398589323E+02  0.43586701917E+03  0.49862108418E+03  0.00000000000E+00 0. -1.
         -2    1    6    6    0  503 -0.16508692605E+03  0.73182026834E+02  0.22068504247E+03  0.28515117074E+03  0.00000000000E+00 0.  1.
<mgrwt>
<rscale>  0 0.15163592E+04</rscale>
<asrwt>0</asrwt>
<pdfrwt beam="1">  1        1 0.17408963E+00 0.15163592E+04</pdfrwt>
<pdfrwt beam="2">  1       -1 0.78152808E-01 0.15163592E+04</pdfrwt>
<totfact> 0.19015565E+01</totfact>
</mgrwt>
</event>
<event>
12    2  0.3518828E-008  0.1679383E+04  0.7818608E-02  0.8773211E-01
          1   -1    0    0  501    0  0.00000000000E+00  0.00000000000E+00  0.31376975264E+04  0.31376975264E+04  0.00000000000E+00 0. -1.
         -1   -1    0    0    0  501 -0.00000000000E+00 -0.00000000000E+00 -0.22471303793E+03  0.22471303793E+03  0.00000000000E+00 0.  1.
         23    2    1    2    0    0 -0.18681473223E+03  0.57477972112E+00  0.21649613281E+04  0.21749590478E+04  0.92137032715E+02 0.  0.
        254    2    1    2    0    0  0.18681473223E+03 -0.57477972112E+00  0.74802316036E+03  0.11874515165E+04  0.90310707071E+03 0.  0.
         23    2    4    4    0    0  0.50179288685E+03  0.11844877419E+03  0.25297460942E+03  0.58153307547E+03  0.91424020054E+02 0.  0.
         23    2    4    4    0    0 -0.31497815463E+03 -0.11902355391E+03  0.49504855094E+03  0.60591844108E+03  0.93200027794E+02 0.  0.
          4    1    3    3  502    0 -0.13077130026E+03  0.91893870023E+01  0.18704960089E+04  0.18750842373E+04  0.00000000000E+00 0. -1.
         -4    1    3    3    0  502 -0.56043431966E+02 -0.86146072812E+01  0.29446531923E+03  0.29987481047E+03  0.00000000000E+00 0.  1.
         11    1    5    5    0    0  0.10218993945E+03  0.21898207092E+02  0.12476993374E+02  0.10525203353E+03  0.00000000000E+00 0.  1.
        -11    1    5    5    0    0  0.39960294740E+03  0.96550567098E+02  0.24049761605E+03  0.47628104193E+03  0.00000000000E+00 0. -1.
          4    1    6    6  503    0 -0.17262709241E+03 -0.83553323476E+02  0.35288620701E+03  0.40163409467E+03  0.00000000000E+00 0.  1.
         -4    1    6    6    0  503 -0.14235106221E+03 -0.35470230435E+02  0.14216234393E+03  0.20428434642E+03  0.00000000000E+00 0. -1.
<mgrwt>
<rscale>  0 0.16793827E+04</rscale>
<asrwt>0</asrwt>
<pdfrwt beam="1">  1        1 0.48272266E+00 0.16793827E+04</pdfrwt>
<pdfrwt beam="2">  1       -1 0.34571239E-01 0.16793827E+04</pdfrwt>
<totfact> 0.35969431E+00</totfact>
</mgrwt>
</event>
<event>
12    2  0.3518828E-008  0.1762770E+04  0.7818608E-02  0.8726352E-01
          2   -1    0    0  501    0  0.00000000000E+00  0.00000000000E+00  0.99016047566E+03  0.99016047566E+03  0.00000000000E+00 0. -1.
         -2   -1    0    0    0  501 -0.00000000000E+00 -0.00000000000E+00 -0.78455944519E+03  0.78455944519E+03  0.00000000000E+00 0.  1.
         23    2    1    2    0    0  0.35326521399E+03 -0.44421485778E+03 -0.23051937967E+03  0.61946848525E+03  0.92080771752E+02 0.  0.
        254    2    1    2    0    0 -0.35326521399E+03  0.44421485778E+03  0.43612041014E+03  0.11552514356E+04  0.90679750552E+03 0.  0.
         23    2    4    4    0    0 -0.22628070414E+03 -0.11666929863E+03  0.50145512582E+03  0.56919294200E+03  0.87799087142E+02 0.  0.
         23    2    4    4    0    0 -0.12698450985E+03  0.56088415641E+03 -0.65334715684E+02  0.58605849360E+03  0.92085993460E+02 0.  0.
          1    1    3    3  502    0  0.11300265929E+03 -0.16399089671E+03 -0.12663310713E+03  0.23600542161E+03  0.00000000000E+00 0. -1.
         -1    1    3    3    0  502  0.24026255470E+03 -0.28022396107E+03 -0.10388627253E+03  0.38346306364E+03  0.00000000000E+00 0.  1.
         11    1    5    5    0    0 -0.18994892048E+03 -0.12895143488E+03  0.44802105423E+03  0.50342023199E+03  0.00000000000E+00 0.  1.
        -11    1    5    5    0    0 -0.36331783653E+02  0.12282136253E+02  0.53434071595E+02  0.65772710006E+02  0.00000000000E+00 0. -1.
          4    1    6    6  503    0 -0.58642119883E+02  0.10750100551E+03  0.29812631632E+01  0.12249184602E+03  0.00000000000E+00 0. -1.
         -4    1    6    6    0  503 -0.68342389970E+02  0.45338315090E+03 -0.68315978847E+02  0.46356664758E+03  0.00000000000E+00 0.  1.
<mgrwt>
<rscale>  0 0.17627703E+04</rscale>
<asrwt>0</asrwt>
<pdfrwt beam="1">  1        2 0.15233238E+00 0.17627703E+04</pdfrwt>
<pdfrwt beam="2">  1       -2 0.12070145E+00 0.17627703E+04</pdfrwt>
<totfact> 0.12666416E+01</totfact>
</mgrwt>
</event>
<event>
12    2  0.3518828E-008  0.1260306E+04  0.7818608E-02  0.9061649E-01
         -1   -1    0    0    0  501 -0.00000000000E+00  0.00000000000E+00  0.76289881850E+03  0.76289881850E+03  0.00000000000E+00 0.  1.
          1   -1    0    0  501    0  0.00000000000E+00 -0.00000000000E+00 -0.52050492518E+03  0.52050492518E+03  0.00000000000E+00 0. -1.
         23    2    1    2    0    0  0.25440611621E+03  0.14959388919E+03  0.77645825277E+02  0.32048780870E+03  0.97891560927E+02 0.  0.
        254    2    1    2    0    0 -0.25440611621E+03 -0.14959388919E+03  0.16474806804E+03  0.96291593498E+03  0.90164536725E+03 0.  0.
         23    2    4    4    0    0 -0.27805650185E+03 -0.15226257124E+03  0.50804098082E+03  0.60681324543E+03  0.98068179418E+02 0.  0.
         23    2    4    4    0    0  0.23650385646E+02  0.26686820515E+01 -0.34329291277E+03  0.35610268956E+03  0.91611347238E+02 0.  0.
          4    1    3    3  502    0  0.11028793150E+03  0.76138706819E+02 -0.13707431293E+02  0.13471608732E+03  0.00000000000E+00 0. -1.
         -4    1    3    3    0  502  0.14411818470E+03  0.73455182366E+02  0.91353256571E+02  0.18577172138E+03  0.00000000000E+00 0.  1.
         11    1    5    5    0    0 -0.21721185828E+03 -0.67480073395E+02  0.35204136651E+03  0.41912727830E+03  0.00000000000E+00 0.  1.
        -11    1    5    5    0    0 -0.60844643574E+02 -0.84782497842E+02  0.15599961431E+03  0.18768596713E+03  0.00000000000E+00 0. -1.
          2    1    6    6  503    0  0.22277627206E+01  0.45973474047E+02 -0.15309145527E+03  0.15986092994E+03  0.00000000000E+00 0. -1.
         -2    1    6    6    0  503  0.21422622926E+02 -0.43304791995E+02 -0.19020145750E+03  0.19624175962E+03  0.00000000000E+00 0.  1.
<mgrwt>
<rscale>  0 0.12603057E+04</rscale>
<asrwt>0</asrwt>
<pdfrwt beam="1">  1        1 0.80077681E-01 0.12603057E+04</pdfrwt>
<pdfrwt beam="2">  1       -1 0.11736905E+00 0.12603057E+04</pdfrwt>
<totfact> 0.27001638E+01</totfact>
</mgrwt>
</event>
<event>
12    2  0.3518828E-008  0.1993749E+04  0.7818608E-02  0.8609549E-01
         -1   -1    0    0    0  501 -0.00000000000E+00  0.00000000000E+00  0.11588426531E+04  0.11588426531E+04  0.00000000000E+00 0.  1.
          1   -1    0    0  501    0  0.00000000000E+00 -0.00000000000E+00 -0.85754419490E+03  0.85754419490E+03  0.00000000000E+00 0. -1.
         23    2    1    2    0    0 -0.12920823731E+02  0.11242071317E+03 -0.66496627748E+03  0.68063792479E+03  0.91008076753E+02 0.  0.
        254    2    1    2    0    0  0.12920823731E+02 -0.11242071317E+03  0.96626473569E+03  0.13357489232E+04  0.91528808690E+03 0.  0.
         23    2    4    4    0    0  0.37480815535E+03 -0.20759362118E+03  0.20865321111E+03  0.48528660171E+03  0.91600537245E+02 0.  0.
         23    2    4    4    0    0 -0.36188733162E+03  0.95172908008E+02  0.75761152458E+03  0.85046232152E+03  0.96387836012E+02 0.  0.
          4    1    3    3  502    0  0.29451918543E+01  0.11500281723E+03 -0.64412601951E+03  0.65431846308E+03  0.00000000000E+00 0. -1.
         -4    1    3    3    0  502 -0.15866015585E+02 -0.25821040576E+01 -0.20840257975E+02  0.26319461703E+02  0.00000000000E+00 0.  1.
         11    1    5    5    0    0  0.35095754874E+03 -0.16318322278E+03  0.17563934247E+03  0.42502840357E+03  0.00000000000E+00 0.  1.
        -11    1    5    5    0    0  0.23850606613E+02 -0.44410398393E+02  0.33013868638E+02  0.60258198145E+02  0.00000000000E+00 0. -1.
          1    1    6    6  503    0 -0.18343587796E+03  0.39674715467E+02  0.48405403553E+03  0.51916386014E+03  0.00000000000E+00 0. -1.
         -1    1    6    6    0  503 -0.17845145366E+03  0.55498192541E+02  0.27355748906E+03  0.33129846137E+03  0.00000000000E+00 0.  1.
<mgrwt>
<rscale>  0 0.19937490E+04</rscale>
<asrwt>0</asrwt>
<pdfrwt beam="1">  1        1 0.13192987E+00 0.19937490E+04</pdfrwt>
<pdfrwt beam="2">  1       -1 0.17828349E+00 0.19937490E+04</pdfrwt>
<totfact> 0.39222620E+00</totfact>
</mgrwt>
</event>
<event>
12    2  0.3518828E-008  0.1289103E+04  0.7818608E-02  0.9038252E-01
         -2   -1    0    0    0  501 -0.00000000000E+00  0.00000000000E+00  0.50952312830E+03  0.50952312830E+03  0.00000000000E+00 0.  1.
          2   -1    0    0  501    0  0.00000000000E+00 -0.00000000000E+00 -0.81536337900E+03  0.81536337900E+03  0.00000000000E+00 0. -1.
         23    2    1    2    0    0 -0.53774261540E+02  0.24888116127E+03 -0.27554531577E+03  0.38634874997E+03  0.92231404218E+02 0.  0.
        254    2    1    2    0    0  0.53774261540E+02 -0.24888116127E+03 -0.30294934931E+02  0.93853775733E+03  0.90282990381E+03 0.  0.
         23    2    4    4    0    0 -0.12964125619E+03 -0.81625514573E+02 -0.42625875074E+03  0.46260708921E+03  0.94017107294E+02 0.  0.
         23    2    4    4    0    0  0.18341551773E+03 -0.16725564670E+03  0.39596381581E+03  0.47593066812E+03  0.90038624678E+02 0.  0.
          1    1    3    3  502    0 -0.63736449399E+02  0.24158277215E+03 -0.27798027545E+03  0.37376142701E+03  0.00000000000E+00 0. -1.
         -1    1    3    3    0  502  0.99621878591E+01  0.72983891180E+01  0.24349596819E+01  0.12587322960E+02  0.00000000000E+00 0.  1.
         11    1    5    5    0    0 -0.80615368974E+02 -0.94626700236E+02 -0.34611856290E+03  0.36776501967E+03  0.00000000000E+00 0. -1.
        -11    1    5    5    0    0 -0.49025887212E+02  0.13001185663E+02 -0.80140187847E+02  0.94842069535E+02  0.00000000000E+00 0.  1.
          3    1    6    6  503    0  0.77817778724E+02 -0.12694983362E+03  0.25447707141E+03  0.29483969681E+03  0.00000000000E+00 0. -1.
         -3    1    6    6    0  503  0.10559773900E+03 -0.40305813080E+02  0.14148674440E+03  0.18109097132E+03  0.00000000000E+00 0.  1.
<mgrwt>
<rscale>  0 0.12891028E+04</rscale>
<asrwt>0</asrwt>
<pdfrwt beam="1">  1        2 0.12544052E+00 0.12891028E+04</pdfrwt>
<pdfrwt beam="2">  1       -2 0.78388174E-01 0.12891028E+04</pdfrwt>
<totfact> 0.47681265E+01</totfact>
</mgrwt>
</event>
<event>
12    2  0.3518828E-008  0.4146872E+04  0.7818608E-02  0.7975556E-01
         -2   -1    0    0    0  501 -0.00000000000E+00  0.00000000000E+00  0.18314350206E+04  0.18314350206E+04  0.00000000000E+00 0. -1.
          2   -1    0    0  501    0  0.00000000000E+00 -0.00000000000E+00 -0.23474147104E+04  0.23474147104E+04  0.00000000000E+00 0.  1.
         23    2    1    2    0    0  0.78149067572E+03  0.36133472172E+03 -0.20355950833E+04  0.22120367848E+04  0.90382171535E+02 0.  0.
        254    2    1    2    0    0 -0.78149067572E+03 -0.36133472172E+03  0.15196153935E+04  0.19668129462E+04  0.90434051323E+03 0.  0.
         23    2    4    4    0    0 -0.36237779943E+03  0.11413142492E+03  0.11764579718E+04  0.12397062692E+04  0.92057715399E+02 0.  0.
         23    2    4    4    0    0 -0.41911287629E+03 -0.47546614663E+03  0.34315742174E+03  0.72710667698E+03  0.95934581619E+02 0.  0.
          3    1    3    3  502    0  0.98696122251E+02  0.76187338231E+02 -0.25636590262E+03  0.28507702657E+03  0.00000000000E+00 0. -1.
         -3    1    3    3    0  502  0.68279455347E+03  0.28514738349E+03 -0.17792291807E+04  0.19269597582E+04  0.00000000000E+00 0.  1.
         11    1    5    5    0    0 -0.14666988661E+03  0.15649216519E+00  0.41912018723E+03  0.44404257844E+03  0.00000000000E+00 0.  1.
        -11    1    5    5    0    0 -0.21570791282E+03  0.11397493275E+03  0.75733778455E+03  0.79566369080E+03  0.00000000000E+00 0. -1.
          2    1    6    6  503    0 -0.27488725219E+03 -0.29342435608E+03  0.26716447755E+03  0.48273979764E+03  0.00000000000E+00 0. -1.
         -2    1    6    6    0  503 -0.14422562409E+03 -0.18204179055E+03  0.75992944191E+02  0.24436687934E+03  0.00000000000E+00 0.  1.
<mgrwt>
<rscale>  0 0.41468723E+04</rscale>
<asrwt>0</asrwt>
<pdfrwt beam="1">  1        2 0.36114072E+00 0.41468723E+04</pdfrwt>
<pdfrwt beam="2">  1       -2 0.28175923E+00 0.41468723E+04</pdfrwt>
<totfact> 0.13646959E-01</totfact>
</mgrwt>
</event>
<event>
12    2  0.3518828E-008  0.1374850E+04  0.7818608E-02  0.8972227E-01
         -2   -1    0    0    0  501 -0.00000000000E+00  0.00000000000E+00  0.87418593988E+03  0.87418593988E+03  0.00000000000E+00 0.  1.
          2   -1    0    0  501    0  0.00000000000E+00 -0.00000000000E+00 -0.54056363748E+03  0.54056363748E+03  0.00000000000E+00 0. -1.
         23    2    1    2    0    0  0.55921116067E+02 -0.27668572081E+03 -0.17701062641E+03  0.34397576380E+03  0.85465811287E+02 0.  0.
        254    2    1    2    0    0 -0.55921116067E+02  0.27668572081E+03  0.51063292881E+03  0.10707738135E+04  0.89784654172E+03 0.  0.
         23    2    4    4    0    0 -0.40046288874E+03 -0.39304641511E+02  0.41410949705E+03  0.58461259263E+03  0.91486763092E+02 0.  0.
         23    2    4    4    0    0  0.34454177267E+03  0.31599036232E+03  0.96523431761E+02  0.48616122092E+03  0.92070720918E+02 0.  0.
          1    1    3    3  502    0  0.30354289775E+02 -0.19578092221E+03 -0.16589152357E+03  0.25840191563E+03  0.00000000000E+00 0. -1.
         -1    1    3    3    0  502  0.25566826292E+02 -0.80904798600E+02 -0.11119102843E+02  0.85573848174E+02  0.00000000000E+00 0.  1.
         11    1    5    5    0    0 -0.22255106725E+03 -0.66756249455E+02  0.22239689674E+03  0.32162984012E+03  0.00000000000E+00 0.  1.
        -11    1    5    5    0    0 -0.17791182149E+03  0.27451607944E+02  0.19171260031E+03  0.26298275251E+03  0.00000000000E+00 0. -1.
          1    1    6    6  503    0  0.23426627706E+03  0.15381141825E+03  0.62068131743E+02  0.28703848858E+03  0.00000000000E+00 0. -1.
         -1    1    6    6    0  503  0.11027549561E+03  0.16217894407E+03  0.34455300018E+02  0.19912273233E+03  0.00000000000E+00 0.  1.
<mgrwt>
<rscale>  0 0.13748500E+04</rscale>
<asrwt>0</asrwt>
<pdfrwt beam="1">  1        2 0.83163636E-01 0.13748500E+04</pdfrwt>
<pdfrwt beam="2">  1       -2 0.13449014E+00 0.13748500E+04</pdfrwt>
<totfact> 0.21813303E+01</totfact>
</mgrwt>
</event>
<event>
12    2  0.3518828E-008  0.1677549E+04  0.7818608E-02  0.8774274E-01
          1   -1    0    0  501    0  0.00000000000E+00  0.00000000000E+00  0.10911197409E+04  0.10911197409E+04  0.00000000000E+00 0. -1.
         -1   -1    0    0    0  501 -0.00000000000E+00 -0.00000000000E+00 -0.64478942171E+03  0.64478942171E+03  0.00000000000E+00 0.  1.
         23    2    1    2    0    0  0.35641386116E+03 -0.69403162077E+01 -0.33205857724E+03  0.49574862876E+03  0.91786686312E+02 0.  0.
        254    2    1    2    0    0 -0.35641386116E+03  0.69403162077E+01  0.77838889642E+03  0.12401605338E+04  0.89723456645E+03 0.  0.
         23    2    4    4    0    0 -0.64333450405E+03 -0.56395791377E+02  0.45762666695E+03  0.79668989417E+03  0.90735063701E+02 0.  0.
         23    2    4    4    0    0  0.28692064289E+03  0.63336107585E+02  0.32076222947E+03  0.44347063968E+03  0.86272142418E+02 0.  0.
          1    1    3    3  502    0 -0.91594033096E-01 -0.11340200155E+02 -0.13512903411E+02  0.17641062542E+02  0.00000000000E+00 0. -1.
         -1    1    3    3    0  502  0.35650545519E+03  0.43998839471E+01 -0.31854567383E+03  0.47810756622E+03  0.00000000000E+00 0.  1.
         11    1    5    5    0    0 -0.60848469608E+03 -0.43153914744E+02  0.40507656880E+03  0.73225877415E+03  0.00000000000E+00 0. -1.
        -11    1    5    5    0    0 -0.34849807966E+02 -0.13241876634E+02  0.52550098145E+02  0.64431120021E+02  0.00000000000E+00 0.  1.
          1    1    6    6  503    0  0.27701054780E+03  0.53686665027E+02  0.32360963584E+03  0.42934869047E+03  0.00000000000E+00 0. -1.
         -1    1    6    6    0  503  0.99100950925E+01  0.96494425578E+01 -0.28474063731E+01  0.14121949209E+02  0.00000000000E+00 0.  1.
<mgrwt>
<rscale>  0 0.16775488E+04</rscale>
<asrwt>0</asrwt>
<pdfrwt beam="1">  1        1 0.16786457E+00 0.16775488E+04</pdfrwt>
<pdfrwt beam="2">  1       -1 0.99198373E-01 0.16775488E+04</pdfrwt>
<totfact> 0.11919923E+01</totfact>
</mgrwt>
</event>
<event>
12    2  0.3518828E-008  0.2534657E+04  0.7818608E-02  0.8390742E-01
         -1   -1    0    0    0  501 -0.00000000000E+00  0.00000000000E+00  0.12984693905E+04  0.12984693905E+04  0.00000000000E+00 0.  1.
          1   -1    0    0  501    0  0.00000000000E+00 -0.00000000000E+00 -0.12369341567E+04  0.12369341567E+04  0.00000000000E+00 0. -1.
         23    2    1    2    0    0 -0.48982609065E+03 -0.92890715265E+03  0.39232165111E+03  0.11247379854E+04  0.91220395295E+02 0.  0.
        254    2    1    2    0    0  0.48982609065E+03  0.92890715265E+03 -0.33078641733E+03  0.14106655618E+04  0.88190678428E+03 0.  0.
         23    2    4    4    0    0  0.17917685047E+03 -0.13004009689E+03  0.39508573237E+02  0.24309032044E+03  0.92288709971E+02 0.  0.
         23    2    4    4    0    0  0.31064924019E+03  0.10589472495E+04 -0.37029499057E+03  0.11675752414E+04  0.90781807570E+02 0.  0.
          1    1    3    3  502    0 -0.14959183999E+03 -0.21836166044E+03  0.12589584361E+03  0.29310287747E+03  0.00000000000E+00 0. -1.
         -1    1    3    3    0  502 -0.34023425066E+03 -0.71054549221E+03  0.26642580751E+03  0.83163510792E+03  0.00000000000E+00 0.  1.
         11    1    5    5    0    0  0.12447840518E+02  0.41012209312E+01 -0.17283456208E+02  0.21690703197E+02  0.00000000000E+00 0.  1.
        -11    1    5    5    0    0  0.16672900995E+03 -0.13414131782E+03  0.56792029445E+02  0.22139961724E+03  0.00000000000E+00 0. -1.
          1    1    6    6  503    0  0.25191270060E+03  0.95566159430E+03 -0.33693740598E+03  0.10441627781E+04  0.00000000000E+00 0. -1.
         -1    1    6    6    0  503  0.58736539583E+02  0.10328565524E+03 -0.33357584583E+02  0.12341246335E+03  0.00000000000E+00 0.  1.
<mgrwt>
<rscale>  0 0.25346567E+04</rscale>
<asrwt>0</asrwt>
<pdfrwt beam="1">  1        1 0.19029756E+00 0.25346567E+04</pdfrwt>
<pdfrwt beam="2">  1       -1 0.19976452E+00 0.25346567E+04</pdfrwt>
<totfact> 0.13439235E+00</totfact>
</mgrwt>
</event>
<event>
12    2  0.3518828E-008  0.1487049E+04  0.7818608E-02  0.8893111E-01
         -1   -1    0    0    0  501 -0.00000000000E+00  0.00000000000E+00  0.29273929228E+03  0.29273929228E+03  0.00000000000E+00 0.  1.
          1   -1    0    0  501    0  0.00000000000E+00 -0.00000000000E+00 -0.18884670887E+04  0.18884670887E+04  0.00000000000E+00 0. -1.
         23    2    1    2    0    0  0.32300604895E+03 -0.21372681233E+03 -0.85417005446E+03  0.94232695524E+03  0.91441515014E+02 0.  0.
        254    2    1    2    0    0 -0.32300604895E+03  0.21372681233E+03 -0.74155774192E+03  0.12388794257E+04  0.91372987739E+03 0.  0.
         23    2    4    4    0    0  0.12964514110E+03 -0.27309563187E+03 -0.18012666377E+03  0.36353936288E+03  0.91247830691E+02 0.  0.
         23    2    4    4    0    0 -0.45265119005E+03  0.48682244419E+03 -0.56143107815E+03  0.87534006281E+03  0.95531031771E+02 0.  0.
          2    1    3    3  502    0  0.14795180038E+03 -0.15240387382E+03 -0.44712621174E+03  0.49501366165E+03  0.00000000000E+00 0. -1.
         -2    1    3    3    0  502  0.17505424857E+03 -0.61322938510E+02 -0.40704384272E+03  0.44731329359E+03  0.00000000000E+00 0.  1.
         11    1    5    5    0    0  0.12546010177E+03 -0.21331690386E+03 -0.10867774530E+03  0.27028723783E+03  0.00000000000E+00 0.  1.
        -11    1    5    5    0    0  0.41850393326E+01 -0.59778728003E+02 -0.71448918471E+02  0.93252125051E+02  0.00000000000E+00 0. -1.
          2    1    6    6  503    0 -0.10392688129E+03  0.59242696323E+02 -0.10822953125E+03  0.16131994656E+03  0.00000000000E+00 0.  1.
         -2    1    6    6    0  503 -0.34872430876E+03  0.42757974787E+03 -0.45320154690E+03  0.71402011626E+03  0.00000000000E+00 0. -1.
<mgrwt>
<rscale>  0 0.14870488E+04</rscale>
<asrwt>0</asrwt>
<pdfrwt beam="1">  1        1 0.29053340E+00 0.14870488E+04</pdfrwt>
<pdfrwt beam="2">  1       -1 0.45036815E-01 0.14870488E+04</pdfrwt>
<totfact> 0.16804691E+01</totfact>
</mgrwt>
</event>
<event>
12    2  0.3518828E-008  0.1237003E+04  0.7818608E-02  0.9081071E-01
         -1   -1    0    0    0  501 -0.00000000000E+00  0.00000000000E+00  0.13428835201E+04  0.13428835201E+04  0.00000000000E+00 0.  1.
          1   -1    0    0  501    0  0.00000000000E+00 -0.00000000000E+00 -0.28486761343E+03  0.28486761343E+03  0.00000000000E+00 0. -1.
         23    2    1    2    0    0  0.75025425801E+01  0.26863526302E+03  0.15282380822E+03  0.32282508307E+03  0.92950122188E+02 0.  0.
        254    2    1    2    0    0 -0.75025425801E+01 -0.26863526302E+03  0.90519209842E+03  0.13049260504E+04  0.90068755370E+03 0.  0.
         23    2    4    4    0    0  0.43301275284E+03 -0.64862129996E+02  0.41412277434E+03  0.60804872848E+03  0.80736880997E+02 0.  0.
         23    2    4    4    0    0 -0.44051529542E+03 -0.20377313303E+03  0.49106932408E+03  0.69687732196E+03  0.94401830326E+02 0.  0.
          2    1    3    3  502    0 -0.20466842334E+02  0.17216111415E+03  0.13736535140E+03  0.22119579703E+03  0.00000000000E+00 0. -1.
         -2    1    3    3    0  502  0.27969384914E+02  0.96474148875E+02  0.15458456829E+02  0.10162928604E+03  0.00000000000E+00 0.  1.
         11    1    5    5    0    0  0.74964097477E+02 -0.42003797278E+02  0.91900145838E+02  0.12581562582E+03  0.00000000000E+00 0. -1.
        -11    1    5    5    0    0  0.35804865536E+03 -0.22858332717E+02  0.32222262850E+03  0.48223310266E+03  0.00000000000E+00 0.  1.
          1    1    6    6  503    0 -0.14838071662E+03 -0.10673195673E+03  0.22589483334E+03  0.29058049381E+03  0.00000000000E+00 0.  1.
         -1    1    6    6    0  503 -0.29213457880E+03 -0.97041176298E+02  0.26517449074E+03  0.40629682815E+03  0.00000000000E+00 0. -1.
<mgrwt>
<rscale>  0 0.12370029E+04</rscale>
<asrwt>0</asrwt>
<pdfrwt beam="1">  1        1 0.43825787E-01 0.12370029E+04</pdfrwt>
<pdfrwt beam="2">  1       -1 0.20659746E+00 0.12370029E+04</pdfrwt>
<totfact> 0.12560200E+01</totfact>
</mgrwt>
</event>
<event>
12    2  0.3518828E-008  0.1636739E+04  0.7818608E-02  0.8798290E-01
         -1   -1    0    0    0  501 -0.00000000000E+00  0.00000000000E+00  0.47254607793E+03  0.47254607793E+03  0.00000000000E+00 0.  1.
          1   -1    0    0  501    0  0.00000000000E+00 -0.00000000000E+00 -0.14172771802E+04  0.14172771802E+04  0.00000000000E+00 0. -1.
         23    2    1    2    0    0  0.44372846762E+03 -0.14132218534E+03  0.34843929597E+02  0.47287698939E+03  0.74374959643E+02 0.  0.
        254    2    1    2    0    0 -0.44372846762E+03  0.14132218534E+03 -0.97957503188E+03  0.14169462687E+04  0.91175795712E+03 0.  0.
         23    2    4    4    0    0 -0.64847288605E+03 -0.13459809828E+03 -0.63535451217E+03  0.92228404905E+03  0.91097634416E+02 0.  0.
         23    2    4    4    0    0  0.20474441844E+03  0.27592028362E+03 -0.34422051971E+03  0.49466221969E+03  0.90281036791E+02 0.  0.
          1    1    3    3  502    0  0.20058163514E+03 -0.33390507977E+02 -0.76147148126E+01  0.20348440299E+03  0.00000000000E+00 0. -1.
         -1    1    3    3    0  502  0.24314683247E+03 -0.10793167737E+03  0.42458644410E+02  0.26939258640E+03  0.00000000000E+00 0.  1.
         11    1    5    5    0    0 -0.22566899178E+03 -0.29593804715E+02 -0.16462091220E+03  0.28089558889E+03  0.00000000000E+00 0. -1.
        -11    1    5    5    0    0 -0.42280389428E+03 -0.10500429356E+03 -0.47073359998E+03  0.64138846016E+03  0.00000000000E+00 0.  1.
          4    1    6    6  503    0  0.61852419274E+02  0.35546102938E+02 -0.41427319515E+02  0.82495272631E+02  0.00000000000E+00 0. -1.
         -4    1    6    6    0  503  0.14289199916E+03  0.24037418069E+03 -0.30279320019E+03  0.41216694706E+03  0.00000000000E+00 0.  1.
<mgrwt>
<rscale>  0 0.16367392E+04</rscale>
<asrwt>0</asrwt>
<pdfrwt beam="1">  1        1 0.21804264E+00 0.16367392E+04</pdfrwt>
<pdfrwt beam="2">  1       -1 0.72699397E-01 0.16367392E+04</pdfrwt>
<totfact> 0.13636363E+01</totfact>
</mgrwt>
</event>
<event>
12    2  0.3518828E-008  0.1254775E+04  0.7818608E-02  0.9066219E-01
          2   -1    0    0  501    0  0.00000000000E+00  0.00000000000E+00  0.65526798658E+03  0.65526798658E+03  0.00000000000E+00 0. -1.
         -2   -1    0    0    0  501 -0.00000000000E+00 -0.00000000000E+00 -0.60069305004E+03  0.60069305004E+03  0.00000000000E+00 0.  1.
         23    2    1    2    0    0  0.32919023477E+02 -0.27820218329E+03  0.15463618415E+03  0.33228472836E+03  0.89558217716E+02 0.  0.
        254    2    1    2    0    0 -0.32919023477E+02  0.27820218329E+03 -0.10006124761E+03  0.92367630826E+03  0.87446300795E+03 0.  0.
         23    2    4    4    0    0  0.20820094608E+03  0.21351332696E+03  0.30668053530E+03  0.43731672132E+03  0.90870178163E+02 0.  0.
         23    2    4    4    0    0 -0.24111996956E+03  0.64688856331E+02 -0.40674178291E+03  0.48635958694E+03  0.93719165555E+02 0.  0.
          1    1    3    3  502    0  0.10465448752E+02 -0.22676336292E+03  0.83960433872E+02  0.24203409437E+03  0.00000000000E+00 0. -1.
         -1    1    3    3    0  502  0.22453574725E+02 -0.51438820371E+02  0.70675750282E+02  0.90250633998E+02  0.00000000000E+00 0.  1.
         11    1    5    5    0    0 -0.66809660268E+01  0.31675231413E+01  0.22103803099E+02  0.23307651562E+02  0.00000000000E+00 0.  1.
        -11    1    5    5    0    0  0.21488191211E+03  0.21034580382E+03  0.28457673220E+03  0.41400906976E+03  0.00000000000E+00 0. -1.
          3    1    6    6  503    0 -0.23773748193E+03  0.53404897165E+02 -0.33832028104E+03  0.41693141632E+03  0.00000000000E+00 0. -1.
         -3    1    6    6    0  503 -0.33824876276E+01  0.11283959165E+02 -0.68421501872E+02  0.69428170619E+02  0.00000000000E+00 0.  1.
<mgrwt>
<rscale>  0 0.12547748E+04</rscale>
<asrwt>0</asrwt>
<pdfrwt beam="1">  1        2 0.10081046E+00 0.12547748E+04</pdfrwt>
<pdfrwt beam="2">  1       -2 0.92414315E-01 0.12547748E+04</pdfrwt>
<totfact> 0.43517234E+01</totfact>
</mgrwt>
</event>
<event>
12    2  0.3518828E-008  0.2617462E+04  0.7818608E-02  0.8362294E-01
         -2   -1    0    0    0  501 -0.00000000000E+00  0.00000000000E+00  0.50325650119E+03  0.50325650119E+03  0.00000000000E+00 0. -1.
          2   -1    0    0  501    0  0.00000000000E+00 -0.00000000000E+00 -0.34033865976E+04  0.34033865976E+04  0.00000000000E+00 0.  1.
         23    2    1    2    0    0  0.10200600470E+04  0.39514458236E+03 -0.10116821060E+04  0.14928712129E+04  0.92206477162E+02 0.  0.
        254    2    1    2    0    0 -0.10200600470E+04 -0.39514458236E+03 -0.18884479904E+04  0.24137718858E+04  0.10312115031E+04 0.  0.
         23    2    4    4    0    0  0.12914658906E+03  0.10719562048E+03 -0.52458648376E+03  0.55859082988E+03  0.93075204865E+02 0.  0.
         23    2    4    4    0    0 -0.11492066360E+04 -0.50234020284E+03 -0.13638615066E+04  0.18551810560E+04  0.92503889054E+02 0.  0.
          4    1    3    3  502    0  0.95507576123E+03  0.35620315513E+03 -0.91279768508E+03  0.13683018714E+04  0.00000000000E+00 0.  1.
         -4    1    3    3    0  502  0.64984285718E+02  0.38941427221E+02 -0.98884420925E+02  0.12456934152E+03  0.00000000000E+00 0. -1.
         11    1    5    5    0    0  0.26918608878E+02  0.43013101938E+02 -0.59998386408E+02  0.78578271894E+02  0.00000000000E+00 0. -1.
        -11    1    5    5    0    0  0.10222798018E+03  0.64182518546E+02 -0.46458809736E+03  0.48001255799E+03  0.00000000000E+00 0.  1.
          2    1    6    6  503    0 -0.81221454272E+01 -0.12528303330E+02 -0.24917322782E+02  0.29048246166E+02  0.00000000000E+00 0. -1.
         -2    1    6    6    0  503 -0.11410844906E+04 -0.48981189951E+03 -0.13389441838E+04  0.18261328098E+04  0.00000000000E+00 0.  1.
<mgrwt>
<rscale>  0 0.26174617E+04</rscale>
<asrwt>0</asrwt>
<pdfrwt beam="1">  1        2 0.52359794E+00 0.26174617E+04</pdfrwt>
<pdfrwt beam="2">  1       -2 0.77424077E-01 0.26174617E+04</pdfrwt>
<totfact> 0.12465986E+00</totfact>
</mgrwt>
</event>
<event>
12    2  0.3518828E-008  0.5061973E+04  0.7818608E-02  0.7819018E-01
          2   -1    0    0  501    0  0.00000000000E+00  0.00000000000E+00  0.36215099848E+04  0.36215099848E+04  0.00000000000E+00 0. -1.
         -2   -1    0    0    0  501 -0.00000000000E+00 -0.00000000000E+00 -0.17688460299E+04  0.17688460299E+04  0.00000000000E+00 0.  1.
         23    2    1    2    0    0 -0.18985747577E+04 -0.16691230815E+03  0.25406503750E+04  0.31773550038E+04  0.90745044181E+02 0.  0.
        254    2    1    2    0    0  0.18985747577E+04  0.16691230815E+03 -0.68798642002E+03  0.22130010110E+04  0.88972036690E+03 0.  0.
         23    2    4    4    0    0  0.44103489592E+03  0.34652543054E+03  0.43913863222E+02  0.56952047691E+03  0.88507021234E+02 0.  0.
         23    2    4    4    0    0  0.14575398618E+04 -0.17961312239E+03 -0.73190028324E+03  0.16434805341E+04  0.93096287973E+02 0.  0.
          2    1    3    3  502    0 -0.51672288504E+03 -0.85858750369E+02  0.69063528421E+03  0.86680526114E+03  0.00000000000E+00 0. -1.
         -2    1    3    3    0  502 -0.13818518726E+04 -0.81053557782E+02  0.18500150907E+04  0.23105497426E+04  0.00000000000E+00 0.  1.
         11    1    5    5    0    0  0.34116915233E+02  0.59800503258E+02 -0.66597862212E+01  0.69169479161E+02  0.00000000000E+00 0.  1.
        -11    1    5    5    0    0  0.40691798068E+03  0.28672492728E+03  0.50573649444E+02  0.50035099775E+03  0.00000000000E+00 0. -1.
          3    1    6    6  503    0  0.14296191438E+04 -0.17857587106E+03 -0.73089881423E+03  0.16155226134E+04  0.00000000000E+00 0. -1.
         -3    1    6    6    0  503  0.27920718015E+02 -0.10372513261E+01 -0.10014690165E+01  0.27957920613E+02  0.00000000000E+00 0.  1.
<mgrwt>
<rscale>  0 0.50619734E+04</rscale>
<asrwt>0</asrwt>
<pdfrwt beam="1">  1        2 0.55715538E+00 0.50619734E+04</pdfrwt>
<pdfrwt beam="2">  1       -2 0.27213016E+00 0.50619734E+04</pdfrwt>
<totfact> 0.22643030E-02</totfact>
</mgrwt>
</event>
<event>
12    2  0.3518828E-008  0.1250783E+04  0.7818608E-02  0.9069532E-01
          1   -1    0    0  501    0  0.00000000000E+00  0.00000000000E+00  0.28482908713E+03  0.28482908713E+03  0.00000000000E+00 0. -1.
         -1   -1    0    0    0  501 -0.00000000000E+00 -0.00000000000E+00 -0.13731557082E+04  0.13731557082E+04  0.00000000000E+00 0.  1.
         23    2    1    2    0    0 -0.13428798002E+03  0.25058415783E+03 -0.37002250099E+03  0.47444709236E+03  0.85777097669E+02 0.  0.
        254    2    1    2    0    0  0.13428798002E+03 -0.25058415783E+03 -0.71830412013E+03  0.11835377030E+04  0.89664653220E+03 0.  0.
         23    2    4    4    0    0  0.46690116078E+03  0.53675155588E+02 -0.34108742466E+03  0.58678528796E+03  0.84253347972E+02 0.  0.
         23    2    4    4    0    0 -0.33261318076E+03 -0.30425931342E+03 -0.37721669548E+03  0.59675241505E+03  0.10303277001E+03 0.  0.
          1    1    3    3  502    0 -0.46107710776E+02  0.14506781764E+03 -0.24590214899E+03  0.28920314587E+03  0.00000000000E+00 0. -1.
         -1    1    3    3    0  502 -0.88180269239E+02  0.10551634020E+03 -0.12412035200E+03  0.18524394649E+03  0.00000000000E+00 0.  1.
         11    1    5    5    0    0  0.11189364232E+03 -0.10689168932E+02 -0.11605315798E+03  0.16156355097E+03  0.00000000000E+00 0. -1.
        -11    1    5    5    0    0  0.35500751845E+03  0.64364324520E+02 -0.22503426667E+03  0.42522173699E+03  0.00000000000E+00 0.  1.
          1    1    6    6  503    0 -0.49034506533E+02 -0.48701769113E+02 -0.15435556520E+02  0.70813145325E+02  0.00000000000E+00 0. -1.
         -1    1    6    6    0  503 -0.28357867423E+03 -0.25555754431E+03 -0.36178113896E+03  0.52593926972E+03  0.00000000000E+00 0.  1.
<mgrwt>
<rscale>  0 0.12507833E+04</rscale>
<asrwt>0</asrwt>
<pdfrwt beam="1">  1        1 0.43819860E-01 0.12507833E+04</pdfrwt>
<pdfrwt beam="2">  1       -1 0.21125472E+00 0.12507833E+04</pdfrwt>
<totfact> 0.11667613E+01</totfact>
</mgrwt>
</event>
<event>
12    2  0.3518828E-008  0.2392882E+04  0.7818608E-02  0.8442173E-01
         -2   -1    0    0    0  501 -0.00000000000E+00  0.00000000000E+00  0.53430234736E+03  0.53430234736E+03  0.00000000000E+00 0.  1.
          2   -1    0    0  501    0  0.00000000000E+00 -0.00000000000E+00 -0.26791409943E+04  0.26791409943E+04  0.00000000000E+00 0. -1.
         23    2    1    2    0    0  0.34937242019E+03  0.64091184549E+03 -0.18919921051E+04  0.20298437090E+04  0.88330490323E+02 0.  0.
        254    2    1    2    0    0 -0.34937242019E+03 -0.64091184549E+03 -0.25284654190E+03  0.11835996327E+04  0.89674279209E+03 0.  0.
         23    2    4    4    0    0 -0.37114765529E+03 -0.27713224372E+03  0.26695903579E+03  0.54237925201E+03  0.91407131464E+02 0.  0.
         23    2    4    4    0    0  0.21775235097E+02 -0.36377960176E+03 -0.51980557769E+03  0.64122038072E+03  0.90310456425E+02 0.  0.
          1    1    3    3  502    0  0.34882655046E+03  0.62197159476E+03 -0.18664547426E+04  0.19980445273E+04  0.00000000000E+00 0. -1.
         -1    1    3    3    0  502  0.54586973229E+00  0.18940250727E+02 -0.25537362461E+02  0.31799181638E+02  0.00000000000E+00 0.  1.
         11    1    5    5    0    0 -0.25057241918E+01 -0.13757638162E+02 -0.39123887853E+01  0.14520952019E+02  0.00000000000E+00 0.  1.
        -11    1    5    5    0    0 -0.36864193110E+03 -0.26337460556E+03  0.27087142457E+03  0.52785829999E+03  0.00000000000E+00 0. -1.
          2    1    6    6  503    0 -0.13833198439E+02 -0.30777375880E+03 -0.44469546095E+03  0.54098992317E+03  0.00000000000E+00 0. -1.
         -2    1    6    6    0  503  0.35608433535E+02 -0.56005842958E+02 -0.75110116739E+02  0.10023045755E+03  0.00000000000E+00 0.  1.
<mgrwt>
<rscale>  0 0.23928822E+04</rscale>
<asrwt>0</asrwt>
<pdfrwt beam="1">  1        2 0.41217554E+00 0.23928822E+04</pdfrwt>
<pdfrwt beam="2">  1       -2 0.82200361E-01 0.23928822E+04</pdfrwt>
<totfact> 0.31966254E+00</totfact>
</mgrwt>
</event>
<event>
12    2  0.3518828E-008  0.2229321E+04  0.7818608E-02  0.8506322E-01
          1   -1    0    0  501    0  0.00000000000E+00  0.00000000000E+00  0.10016915926E+04  0.10016915926E+04  0.00000000000E+00 0. -1.
         -1   -1    0    0    0  501 -0.00000000000E+00 -0.00000000000E+00 -0.12403698681E+04  0.12403698681E+04  0.00000000000E+00 0.  1.
         23    2    1    2    0    0  0.21485406519E+03  0.89598665217E+02 -0.99676084702E+03  0.10275631842E+04  0.90353313243E+02 0.  0.
        254    2    1    2    0    0 -0.21485406519E+03 -0.89598665217E+02  0.75808257153E+03  0.12144982765E+04  0.91985144898E+03 0.  0.
         23    2    4    4    0    0  0.25833700382E+03  0.20429106485E+03  0.11807008373E+03  0.36129650155E+03  0.90120866849E+02 0.  0.
         23    2    4    4    0    0 -0.47319106900E+03 -0.29388973007E+03  0.64001248781E+03  0.85320177494E+03  0.89757021937E+02 0.  0.
          4    1    3    3  502    0  0.78864038919E+02 -0.77804613317E+00 -0.45305647817E+03  0.45986988856E+03  0.00000000000E+00 0. -1.
         -4    1    3    3    0  502  0.13599002627E+03  0.90376711350E+02 -0.54370436885E+03  0.56769329564E+03  0.00000000000E+00 0.  1.
         11    1    5    5    0    0  0.19647126697E+03  0.15332783912E+03  0.12861858622E+03  0.28045164595E+03  0.00000000000E+00 0.  1.
        -11    1    5    5    0    0  0.61865736847E+02  0.50963225727E+02 -0.10548502491E+02  0.80844855600E+02  0.00000000000E+00 0. -1.
          1    1    6    6  503    0 -0.13533869331E+03 -0.89033182567E+02  0.25092701272E+03  0.29867680729E+03  0.00000000000E+00 0. -1.
         -1    1    6    6    0  503 -0.33785237569E+03 -0.20485654750E+03  0.38908547509E+03  0.55452496764E+03  0.00000000000E+00 0.  1.
<mgrwt>
<rscale>  0 0.22293210E+04</rscale>
<asrwt>0</asrwt>
<pdfrwt beam="1">  1        1 0.15410640E+00 0.22293210E+04</pdfrwt>
<pdfrwt beam="2">  1       -1 0.19082613E+00 0.22293210E+04</pdfrwt>
<totfact> 0.23918323E+00</totfact>
</mgrwt>
</event>
<event>
12    2  0.3518828E-008  0.1621545E+04  0.7818608E-02  0.8807420E-01
         -1   -1    0    0    0  501 -0.00000000000E+00  0.00000000000E+00  0.14464614093E+04  0.14464614093E+04  0.00000000000E+00 0.  1.
          1   -1    0    0  501    0  0.00000000000E+00 -0.00000000000E+00 -0.45445553492E+03  0.45445553492E+03  0.00000000000E+00 0. -1.
         23    2    1    2    0    0  0.35902509838E+03  0.17964666917E+03 -0.10460703553E+03  0.42501851259E+03  0.92337192688E+02 0.  0.
        254    2    1    2    0    0 -0.35902509838E+03 -0.17964666917E+03  0.10966129099E+04  0.14758984316E+04  0.90252111294E+03 0.  0.
         23    2    4    4    0    0 -0.62344211312E+03 -0.13276947858E+03  0.50156079989E+03  0.81653363148E+03  0.94107026834E+02 0.  0.
         23    2    4    4    0    0  0.26441701474E+03 -0.46877190585E+02  0.59505211002E+03  0.65936480015E+03  0.92526198206E+02 0.  0.
          4    1    3    3  502    0  0.32913376247E+03  0.15301327086E+03 -0.65066726640E+02  0.36874893026E+03  0.00000000000E+00 0. -1.
         -4    1    3    3    0  502  0.29891335911E+02  0.26633398308E+02 -0.39540308893E+02  0.56269582328E+02  0.00000000000E+00 0.  1.
         11    1    5    5    0    0 -0.33948514024E+02  0.14022054984E+02  0.32115201367E+02  0.48790427229E+02  0.00000000000E+00 0. -1.
        -11    1    5    5    0    0 -0.58949359909E+03 -0.14679153357E+03  0.46944559852E+03  0.76774320425E+03  0.00000000000E+00 0.  1.
          4    1    6    6  503    0  0.23245750318E+02  0.97007225015E+01  0.13033512133E+03  0.13274679950E+03  0.00000000000E+00 0. -1.
         -4    1    6    6    0  503  0.24117126442E+03 -0.56577913086E+02  0.46471698869E+03  0.52661800065E+03  0.00000000000E+00 0.  1.
<mgrwt>
<rscale>  0 0.16215454E+04</rscale>
<asrwt>0</asrwt>
<pdfrwt beam="1">  1        1 0.69916237E-01 0.16215454E+04</pdfrwt>
<pdfrwt beam="2">  1       -1 0.22253252E+00 0.16215454E+04</pdfrwt>
<totfact> 0.51214251E+00</totfact>
</mgrwt>
</event>
<event>
12    2  0.3518828E-008  0.1684216E+04  0.7818608E-02  0.8770418E-01
         -2   -1    0    0    0  501 -0.00000000000E+00  0.00000000000E+00  0.20450097621E+03  0.20450097621E+03  0.00000000000E+00 0. -1.
          2   -1    0    0  501    0  0.00000000000E+00 -0.00000000000E+00 -0.34676886095E+04  0.34676886095E+04  0.00000000000E+00 0.  1.
         23    2    1    2    0    0 -0.30088511173E+02 -0.51101779979E+03 -0.49635383943E+03  0.71888402114E+03  0.91556494708E+02 0.  0.
        254    2    1    2    0    0  0.30088511173E+02  0.51101779979E+03 -0.27668337938E+04  0.29533055645E+04  0.89699498583E+03 0.  0.
         23    2    4    4    0    0  0.85454713522E+01 -0.17235683041E+03 -0.14914706744E+03  0.24623680194E+03  0.92778299369E+02 0.  0.
         23    2    4    4    0    0  0.21543039821E+02  0.68337463020E+03 -0.26176867264E+04  0.27070687626E+04  0.92046184744E+02 0.  0.
          3    1    3    3  502    0  0.11638276408E+02 -0.34860222653E+03 -0.29477415795E+03  0.45667358804E+03  0.00000000000E+00 0. -1.
         -3    1    3    3    0  502 -0.41726787581E+02 -0.16241557326E+03 -0.20157968148E+03  0.26221043310E+03  0.00000000000E+00 0.  1.
         11    1    5    5    0    0 -0.21956327308E+02 -0.12271480165E+03 -0.13965990388E+03  0.18720547963E+03  0.00000000000E+00 0. -1.
        -11    1    5    5    0    0  0.30501798660E+02 -0.49642028761E+02 -0.94871635619E+01  0.59031322309E+02  0.00000000000E+00 0.  1.
          2    1    6    6  503    0  0.24981754153E+02  0.13818403707E+03 -0.42406755772E+03  0.44671267013E+03  0.00000000000E+00 0. -1.
         -2    1    6    6    0  503 -0.34387143322E+01  0.54519059313E+03 -0.21936191687E+04  0.22603560925E+04  0.00000000000E+00 0.  1.
<mgrwt>
<rscale>  0 0.16842158E+04</rscale>
<asrwt>0</asrwt>
<pdfrwt beam="1">  1        2 0.53349050E+00 0.16842158E+04</pdfrwt>
<pdfrwt beam="2">  1       -2 0.31461692E-01 0.16842158E+04</pdfrwt>
<totfact> 0.77274073E+00</totfact>
</mgrwt>
</event>
<event>
12    2  0.3518828E-008  0.2555601E+04  0.7818608E-02  0.8383441E-01
          1   -1    0    0  501    0  0.00000000000E+00  0.00000000000E+00  0.16440874039E+04  0.16440874039E+04  0.00000000000E+00 0. -1.
         -1   -1    0    0    0  501 -0.00000000000E+00 -0.00000000000E+00 -0.99311851682E+03  0.99311851682E+03  0.00000000000E+00 0.  1.
         23    2    1    2    0    0  0.94844112922E+03  0.58255381321E+03  0.18261019620E+03  0.11315784332E+04  0.90629718904E+02 0.  0.
        254    2    1    2    0    0 -0.94844112922E+03 -0.58255381321E+03  0.46835869092E+03  0.15056274875E+04  0.89924676642E+03 0.  0.
         23    2    4    4    0    0 -0.90714948992E+03 -0.54936789725E+03  0.42074186846E+02  0.10658536245E+04  0.97716057936E+02 0.  0.
         23    2    4    4    0    0 -0.41291639300E+02 -0.33185915958E+02  0.42628450407E+03  0.43977386305E+03  0.94213946532E+02 0.  0.
          3    1    3    3  502    0  0.76882255963E+03  0.45782206418E+03  0.18077831312E+03  0.91289099521E+03  0.00000000000E+00 0. -1.
         -3    1    3    3    0  502  0.17961856959E+03  0.12473174903E+03  0.18318830799E+01  0.21868743804E+03  0.00000000000E+00 0.  1.
         11    1    5    5    0    0 -0.70842465420E+03 -0.40165779814E+03  0.66306670944E+02  0.81706245299E+03  0.00000000000E+00 0. -1.
        -11    1    5    5    0    0 -0.19872483572E+03 -0.14771009912E+03 -0.24232484098E+02  0.24879117147E+03  0.00000000000E+00 0.  1.
          3    1    6    6  503    0  0.10670659701E+02 -0.27826268475E+02  0.39519241712E+02  0.49496814657E+02  0.00000000000E+00 0. -1.
         -3    1    6    6    0  503 -0.51962299001E+02 -0.53596474825E+01  0.38676526236E+03  0.39027704840E+03  0.00000000000E+00 0.  1.
<mgrwt>
<rscale>  0 0.25556006E+04</rscale>
<asrwt>0</asrwt>
<pdfrwt beam="1">  1        1 0.25293652E+00 0.25556006E+04</pdfrwt>
<pdfrwt beam="2">  1       -1 0.15278746E+00 0.25556006E+04</pdfrwt>
<totfact> 0.15273486E+00</totfact>
</mgrwt>
</event>
<event>
12    2  0.3518828E-008  0.1620241E+04  0.7818608E-02  0.8808209E-01
         -1   -1    0    0    0  501 -0.00000000000E+00  0.00000000000E+00  0.13631438643E+04  0.13631438643E+04  0.00000000000E+00 0.  1.
          1   -1    0    0  501    0  0.00000000000E+00 -0.00000000000E+00 -0.48145691110E+03  0.48145691110E+03  0.00000000000E+00 0. -1.
         23    2    1    2    0    0  0.84695764850E+02  0.45539344077E+03 -0.31916444675E+02  0.47360155842E+03  0.93398170321E+02 0.  0.
        254    2    1    2    0    0 -0.84695764850E+02 -0.45539344077E+03  0.91360339783E+03  0.13709992169E+04  0.91126896459E+03 0.  0.
         23    2    4    4    0    0 -0.25433896962E+03 -0.20436940271E+03  0.99053189876E+03  0.10459982829E+04  0.80646147225E+02 0.  0.
         23    2    4    4    0    0  0.16964320477E+03 -0.25102403806E+03 -0.76928500926E+02  0.32500093407E+03  0.88970378668E+02 0.  0.
          1    1    3    3  502    0  0.34567633191E+02  0.38102957112E+03 -0.31874176472E+02  0.38391980732E+03  0.00000000000E+00 0. -1.
         -1    1    3    3    0  502  0.50128131659E+02  0.74363869651E+02 -0.42268203118E-01  0.89681751096E+02  0.00000000000E+00 0.  1.
         11    1    5    5    0    0 -0.83543739469E+02 -0.10444909953E+03  0.31860290690E+03  0.34553868536E+03  0.00000000000E+00 0. -1.
        -11    1    5    5    0    0 -0.17079523016E+03 -0.99920303178E+02  0.67192899186E+03  0.70045959750E+03  0.00000000000E+00 0.  1.
          3    1    6    6  503    0  0.24353405222E+02 -0.10126876355E+02  0.13336275109E+02  0.29555003035E+02  0.00000000000E+00 0. -1.
         -3    1    6    6    0  503  0.14528979955E+03 -0.24089716171E+03 -0.90264776035E+02  0.29544593104E+03  0.00000000000E+00 0.  1.
<mgrwt>
<rscale>  0 0.16202408E+04</rscale>
<asrwt>0</asrwt>
<pdfrwt beam="1">  1        1 0.74070295E-01 0.16202408E+04</pdfrwt>
<pdfrwt beam="2">  1       -1 0.20971444E+00 0.16202408E+04</pdfrwt>
<totfact> 0.57750787E+00</totfact>
</mgrwt>
</event>
<event>
12    2  0.3518828E-008  0.2364455E+04  0.7818608E-02  0.8452932E-01
         -2   -1    0    0    0  501 -0.00000000000E+00  0.00000000000E+00  0.13165974921E+04  0.13165974921E+04  0.00000000000E+00 0.  1.
          2   -1    0    0  501    0  0.00000000000E+00 -0.00000000000E+00 -0.10615711174E+04  0.10615711174E+04  0.00000000000E+00 0. -1.
         23    2    1    2    0    0  0.24094971143E+03  0.70677567525E+03 -0.57525402617E+03  0.94706403745E+03  0.91784954375E+02 0.  0.
        254    2    1    2    0    0 -0.24094971143E+03 -0.70677567525E+03  0.83028040089E+03  0.14311045721E+04  0.89504532485E+03 0.  0.
         23    2    4    4    0    0 -0.38711338704E+03 -0.39609681839E+03  0.37623122122E+02  0.56224116198E+03  0.89163675020E+02 0.  0.
         23    2    4    4    0    0  0.14616367561E+03 -0.31067885686E+03  0.79265727876E+03  0.86886341009E+03  0.93449941955E+02 0.  0.
          4    1    3    3  502    0  0.14711227765E+03  0.37751513127E+03 -0.36470590128E+03  0.54513309475E+03  0.00000000000E+00 0. -1.
         -4    1    3    3    0  502  0.93837433780E+02  0.32926054398E+03 -0.21054812489E+03  0.40193094269E+03  0.00000000000E+00 0.  1.
         11    1    5    5    0    0 -0.26803785297E+03 -0.21506790801E+03  0.99292035136E+01  0.34379802903E+03  0.00000000000E+00 0. -1.
        -11    1    5    5    0    0 -0.11907553407E+03 -0.18102891038E+03  0.27693918609E+02  0.21844313295E+03  0.00000000000E+00 0.  1.
          2    1    6    6  503    0  0.99534634241E+02 -0.25148996940E+03  0.52195807800E+03  0.58787293126E+03  0.00000000000E+00 0. -1.
         -2    1    6    6    0  503  0.46629041371E+02 -0.59188887456E+02  0.27069920076E+03  0.28099047883E+03  0.00000000000E+00 0.  1.
<mgrwt>
<rscale>  0 0.23644550E+04</rscale>
<asrwt>0</asrwt>
<pdfrwt beam="1">  1        2 0.16331863E+00 0.23644550E+04</pdfrwt>
<pdfrwt beam="2">  1       -2 0.20255346E+00 0.23644550E+04</pdfrwt>
<totfact> 0.26563404E+00</totfact>
</mgrwt>
</event>
<event>
12    2  0.3518828E-008  0.1506217E+04  0.7818608E-02  0.8880329E-01
         -1   -1    0    0    0  501 -0.00000000000E+00  0.00000000000E+00  0.40350726999E+03  0.40350726999E+03  0.00000000000E+00 0.  1.
          1   -1    0    0  501    0  0.00000000000E+00 -0.00000000000E+00 -0.14056061394E+04  0.14056061394E+04  0.00000000000E+00 0. -1.
         23    2    1    2    0    0  0.22119013282E+02  0.44927030957E+03 -0.11543783472E+03  0.47343725028E+03  0.92107950028E+02 0.  0.
        254    2    1    2    0    0 -0.22119013282E+02 -0.44927030957E+03 -0.88666103472E+03  0.13356761591E+04  0.89192485660E+03 0.  0.
         23    2    4    4    0    0 -0.11763607689E+03 -0.69441992738E+03 -0.54606620382E+03  0.89587274308E+03  0.91336688712E+02 0.  0.
         23    2    4    4    0    0  0.95517063607E+02  0.24514961781E+03 -0.34059483090E+03  0.43980341607E+03  0.90555846849E+02 0.  0.
          1    1    3    3  502    0 -0.10965109291E+02  0.65352287456E+01 -0.12125015903E+02  0.17605648161E+02  0.00000000000E+00 0. -1.
         -1    1    3    3    0  502  0.33084122573E+02  0.44273508082E+03 -0.10331281882E+03  0.45583160212E+03  0.00000000000E+00 0.  1.
         11    1    5    5    0    0 -0.94064843079E+02 -0.49755468364E+03 -0.44100207762E+03  0.67148469110E+03  0.00000000000E+00 0. -1.
        -11    1    5    5    0    0 -0.23571233809E+02 -0.19686524374E+03 -0.10506412620E+03  0.22438805198E+03  0.00000000000E+00 0.  1.
          1    1    6    6  503    0  0.11071444613E+03  0.23551689403E+03 -0.31961713868E+03  0.41216624230E+03  0.00000000000E+00 0. -1.
         -1    1    6    6    0  503 -0.15197382525E+02  0.96327237833E+01 -0.20977692220E+02  0.27637173769E+02  0.00000000000E+00 0.  1.
<mgrwt>
<rscale>  0 0.15062168E+04</rscale>
<asrwt>0</asrwt>
<pdfrwt beam="1">  1        1 0.21624710E+00 0.15062168E+04</pdfrwt>
<pdfrwt beam="2">  1       -1 0.62078042E-01 0.15062168E+04</pdfrwt>
<totfact> 0.19373503E+01</totfact>
</mgrwt>
</event>
<event>
12    2  0.3518828E-008  0.2742273E+04  0.7818608E-02  0.8321418E-01
          2   -1    0    0  501    0  0.00000000000E+00  0.00000000000E+00  0.27048633902E+04  0.27048633902E+04  0.00000000000E+00 0. -1.
         -2   -1    0    0    0  501 -0.00000000000E+00 -0.00000000000E+00 -0.69504980952E+03  0.69504980952E+03  0.00000000000E+00 0.  1.
         23    2    1    2    0    0  0.10878908843E+04  0.28721246643E+03  0.33674793624E+03  0.11791177899E+04  0.10450843393E+03 0.  0.
        254    2    1    2    0    0 -0.10878908843E+04 -0.28721246643E+03  0.16730656445E+04  0.22207954099E+04  0.93101343968E+03 0.  0.
         23    2    4    4    0    0 -0.11639866849E+04 -0.38304829640E+03  0.16619421464E+04  0.20670516820E+04  0.95183813521E+02 0.  0.
         23    2    4    4    0    0  0.76095800624E+02  0.95835829973E+02  0.11123498110E+02  0.15374372784E+03  0.92403054393E+02 0.  0.
          1    1    3    3  502    0  0.18683889018E+03  0.17201979415E+02  0.80740886343E+02  0.20426397065E+03  0.00000000000E+00 0. -1.
         -1    1    3    3    0  502  0.90105199414E+03  0.27001048701E+03  0.25600704990E+03  0.97485381921E+03  0.00000000000E+00 0.  1.
         11    1    5    5    0    0 -0.11178487138E+04 -0.35132938108E+03  0.16047259553E+04  0.19869986091E+04  0.00000000000E+00 0.  1.
        -11    1    5    5    0    0 -0.46137971132E+02 -0.31718915324E+02  0.57216191040E+02  0.80053072937E+02  0.00000000000E+00 0. -1.
          1    1    6    6  503    0 -0.98212046483E+01 -0.11814488161E+02  0.37452735019E+01  0.15813452022E+02  0.00000000000E+00 0. -1.
         -1    1    6    6    0  503  0.85917005273E+02  0.10765031813E+03  0.73782246083E+01  0.13793027582E+03  0.00000000000E+00 0.  1.
<mgrwt>
<rscale>  0 0.27422726E+04</rscale>
<asrwt>0</asrwt>
<pdfrwt beam="1">  1        2 0.41613283E+00 0.27422726E+04</pdfrwt>
<pdfrwt beam="2">  1       -2 0.10693074E+00 0.27422726E+04</pdfrwt>
<totfact> 0.16219708E+00</totfact>
</mgrwt>
</event>
<event>
12    2  0.3518828E-008  0.3348459E+04  0.7818608E-02  0.8150673E-01
          2   -1    0    0  501    0  0.00000000000E+00  0.00000000000E+00  0.23306200692E+04  0.23306200692E+04  0.00000000000E+00 0. -1.
         -2   -1    0    0    0  501 -0.00000000000E+00 -0.00000000000E+00 -0.12027030759E+04  0.12027030759E+04  0.00000000000E+00 0.  1.
         23    2    1    2    0    0  0.12847313352E+04  0.60233581706E+03  0.11726039943E+04  0.18429402195E+04  0.89919325862E+02 0.  0.
        254    2    1    2    0    0 -0.12847313352E+04 -0.60233581706E+03 -0.44687001024E+02  0.16903829256E+04  0.91763525816E+03 0.  0.
         23    2    4    4    0    0 -0.76439502754E+03 -0.18986208589E+02  0.30698269404E+03  0.82938240853E+03  0.94744767126E+02 0.  0.
         23    2    4    4    0    0 -0.52033630763E+03 -0.58334960847E+03 -0.35166969507E+03  0.86100051707E+03  0.81263012642E+02 0.  0.
          4    1    3    3  502    0  0.12096129109E+04  0.56591327642E+03  0.11291325514E+04  0.17488171858E+04  0.00000000000E+00 0. -1.
         -4    1    3    3    0  502  0.75118424241E+02  0.36422540631E+02  0.43471442888E+02  0.94123033701E+02  0.00000000000E+00 0.  1.
         11    1    5    5    0    0 -0.78898650796E+02  0.18100967636E+02  0.56051670396E+02  0.98460306118E+02  0.00000000000E+00 0. -1.
        -11    1    5    5    0    0 -0.68549637675E+03 -0.37087176226E+02  0.25093102365E+03  0.73092210242E+03  0.00000000000E+00 0.  1.
          3    1    6    6  503    0 -0.87477562297E+02 -0.64069568226E+02 -0.31027417801E+02  0.11278268543E+03  0.00000000000E+00 0. -1.
         -3    1    6    6    0  503 -0.43285874534E+03 -0.51928004024E+03 -0.32064227727E+03  0.74821783164E+03  0.00000000000E+00 0.  1.
<mgrwt>
<rscale>  0 0.33484587E+04</rscale>
<asrwt>0</asrwt>
<pdfrwt beam="1">  1        2 0.35855693E+00 0.33484587E+04</pdfrwt>
<pdfrwt beam="2">  1       -2 0.18503124E+00 0.33484587E+04</pdfrwt>
<totfact> 0.60678388E-01</totfact>
</mgrwt>
</event>
<event>
12    2  0.3518828E-008  0.1636639E+04  0.7818608E-02  0.8798350E-01
          1   -1    0    0  501    0  0.00000000000E+00  0.00000000000E+00  0.10575919595E+04  0.10575919595E+04  0.00000000000E+00 0. -1.
         -1   -1    0    0    0  501 -0.00000000000E+00 -0.00000000000E+00 -0.63318062292E+03  0.63318062292E+03  0.00000000000E+00 0.  1.
         23    2    1    2    0    0 -0.45375038313E+03  0.21641820834E+03  0.42506953018E+03  0.66467988144E+03  0.91591419954E+02 0.  0.
        254    2    1    2    0    0  0.45375038313E+03 -0.21641820834E+03 -0.65819362334E+00  0.10260927010E+04  0.89450519655E+03 0.  0.
         23    2    4    4    0    0  0.27120097455E+02  0.31983778492E+03 -0.18815668012E+02  0.33413581918E+03  0.90890087160E+02 0.  0.
         23    2    4    4    0    0  0.42663028568E+03 -0.53625599326E+03  0.18157474389E+02  0.69195688178E+03  0.94290728121E+02 0.  0.
          3    1    3    3  502    0 -0.37524364679E+03  0.20412912883E+03  0.32418031658E+03  0.53625495182E+03  0.00000000000E+00 0. -1.
         -3    1    3    3    0  502 -0.78506736345E+02  0.12289079502E+02  0.10088921361E+03  0.12842492962E+03  0.00000000000E+00 0.  1.
         11    1    5    5    0    0 -0.18881959038E+02  0.83324794468E+02 -0.35708026463E+02  0.92599205742E+02  0.00000000000E+00 0. -1.
        -11    1    5    5    0    0  0.46002056493E+02  0.23651299045E+03  0.16892358451E+02  0.24153661343E+03  0.00000000000E+00 0.  1.
          3    1    6    6  503    0  0.12664341647E+03 -0.13314532911E+03  0.43498292536E+02  0.18883414694E+03  0.00000000000E+00 0. -1.
         -3    1    6    6    0  503  0.29998686921E+03 -0.40311066415E+03 -0.25340818147E+02  0.50312273484E+03  0.00000000000E+00 0.  1.
<mgrwt>
<rscale>  0 0.16366389E+04</rscale>
<asrwt>0</asrwt>
<pdfrwt beam="1">  1        1 0.16270645E+00 0.16366389E+04</pdfrwt>
<pdfrwt beam="2">  1       -1 0.97412404E-01 0.16366389E+04</pdfrwt>
<totfact> 0.13219660E+01</totfact>
</mgrwt>
</event>
<event>
12    2  0.3518828E-008  0.1491617E+04  0.7818608E-02  0.8890047E-01
         -2   -1    0    0    0  501 -0.00000000000E+00  0.00000000000E+00  0.44311569521E+03  0.44311569521E+03  0.00000000000E+00 0.  1.
          2   -1    0    0  501    0  0.00000000000E+00 -0.00000000000E+00 -0.12552706969E+04  0.12552706969E+04  0.00000000000E+00 0. -1.
         23    2    1    2    0    0 -0.35117102986E+03  0.17660641187E+03  0.36538698627E+02  0.40524403531E+03  0.91524503439E+02 0.  0.
        254    2    1    2    0    0  0.35117102986E+03 -0.17660641187E+03 -0.84869370033E+03  0.12931423568E+04  0.89298669702E+03 0.  0.
         23    2    4    4    0    0 -0.10786916326E+03 -0.56804992203E+02  0.13102521150E+03  0.20088234386E+03  0.91233472511E+02 0.  0.
         23    2    4    4    0    0  0.45904019312E+03 -0.11980141967E+03 -0.97971891183E+03  0.10922600129E+04  0.90069476629E+02 0.  0.
          4    1    3    3  502    0 -0.58070045716E+02  0.50485836536E+02 -0.23718481361E+02  0.80520284763E+02  0.00000000000E+00 0. -1.
         -4    1    3    3    0  502 -0.29310098415E+03  0.12612057533E+03  0.60257179987E+02  0.32472375055E+03  0.00000000000E+00 0.  1.
         11    1    5    5    0    0 -0.11271975737E+03 -0.42146034101E+02  0.13870849009E+03  0.18363571852E+03  0.00000000000E+00 0.  1.
        -11    1    5    5    0    0  0.48505941146E+01 -0.14658958102E+02 -0.76832785908E+01  0.17246625345E+02  0.00000000000E+00 0. -1.
          4    1    6    6  503    0  0.81442562702E+02 -0.20864198990E+02 -0.10586906494E+03  0.13519047573E+03  0.00000000000E+00 0. -1.
         -4    1    6    6    0  503  0.37759763042E+03 -0.98937220678E+02 -0.87384984690E+03  0.95706953721E+03  0.00000000000E+00 0.  1.
<mgrwt>
<rscale>  0 0.14916168E+04</rscale>
<asrwt>0</asrwt>
<pdfrwt beam="1">  1        2 0.19311856E+00 0.14916168E+04</pdfrwt>
<pdfrwt beam="2">  1       -2 0.68171647E-01 0.14916168E+04</pdfrwt>
<totfact> 0.33437594E+01</totfact>
</mgrwt>
</event>
<event>
12    2  0.3518828E-008  0.3596039E+04  0.7818608E-02  0.8091400E-01
          1   -1    0    0  501    0  0.00000000000E+00  0.00000000000E+00  0.27976775189E+04  0.27976775189E+04  0.00000000000E+00 0. -1.
         -1   -1    0    0    0  501 -0.00000000000E+00 -0.00000000000E+00 -0.11555563777E+04  0.11555563777E+04  0.00000000000E+00 0.  1.
         23    2    1    2    0    0  0.14624134363E+04  0.55885434115E+03  0.85177118361E+02  0.15706014511E+04  0.92534013011E+02 0.  0.
        254    2    1    2    0    0 -0.14624134363E+04 -0.55885434115E+03  0.15569440228E+04  0.23826324454E+04  0.89548391768E+03 0.  0.
         23    2    4    4    0    0 -0.30576718214E+03 -0.11758941749E+03 -0.59040537560E+02  0.34497627783E+03  0.90564929254E+02 0.  0.
         23    2    4    4    0    0 -0.11566462541E+04 -0.44126492367E+03  0.16159845604E+04  0.20376561676E+04  0.89951476478E+02 0.  0.
          2    1    3    3  502    0  0.12280399459E+04  0.44859401911E+03  0.99513765932E+02  0.13111909442E+04  0.00000000000E+00 0.  1.
         -2    1    3    3    0  502  0.23437349039E+03  0.11026032205E+03 -0.14336647572E+02  0.25941050688E+03  0.00000000000E+00 0. -1.
         11    1    5    5    0    0 -0.16344321239E+02  0.38062235566E+01 -0.23844453823E+02  0.29157883198E+02  0.00000000000E+00 0.  1.
        -11    1    5    5    0    0 -0.28942286090E+03 -0.12139564105E+03 -0.35196083737E+02  0.31581839463E+03  0.00000000000E+00 0. -1.
          3    1    6    6  503    0 -0.55057302158E+03 -0.16350094397E+03  0.76589560776E+03  0.95731880414E+03  0.00000000000E+00 0. -1.
         -3    1    6    6    0  503 -0.60607323254E+03 -0.27776397970E+03  0.85008895259E+03  0.10803373635E+04  0.00000000000E+00 0.  1.
<mgrwt>
<rscale>  0 0.35960390E+04</rscale>
<asrwt>0</asrwt>
<pdfrwt beam="1">  1        1 0.43041192E+00 0.35960390E+04</pdfrwt>
<pdfrwt beam="2">  1       -1 0.17777791E+00 0.35960390E+04</pdfrwt>
<totfact> 0.14613458E-01</totfact>
</mgrwt>
</event>
<event>
12    2  0.3518828E-008  0.4009230E+04  0.7818608E-02  0.8002687E-01
          1   -1    0    0  501    0  0.00000000000E+00  0.00000000000E+00  0.29382135807E+04  0.29382135807E+04  0.00000000000E+00 0. -1.
         -1   -1    0    0    0  501 -0.00000000000E+00 -0.00000000000E+00 -0.13676610627E+04  0.13676610627E+04  0.00000000000E+00 0.  1.
         23    2    1    2    0    0 -0.13257190748E+04  0.13615210055E+04  0.81012221899E+03  0.20677718692E+04  0.90066530554E+02 0.  0.
        254    2    1    2    0    0  0.13257190748E+04 -0.13615210055E+04  0.76043029907E+03  0.22381027741E+04  0.90530617715E+03 0.  0.
         23    2    4    4    0    0  0.10401137576E+04 -0.13847747742E+04  0.41805615753E+03  0.17837730883E+04  0.87393795842E+02 0.  0.
         23    2    4    4    0    0  0.28560531713E+03  0.23253768769E+02  0.34237414153E+03  0.45432968584E+03  0.84168139512E+02 0.  0.
          3    1    3    3  502    0 -0.12598115742E+03  0.16883695089E+03  0.96510106694E+02  0.23171398038E+03  0.00000000000E+00 0. -1.
         -3    1    3    3    0  502 -0.11997379173E+04  0.11926840546E+04  0.71361211229E+03  0.18360578888E+04  0.00000000000E+00 0.  1.
         11    1    5    5    0    0  0.15033451350E+03 -0.18667989867E+03  0.28264549972E+02  0.24134774766E+03  0.00000000000E+00 0. -1.
        -11    1    5    5    0    0  0.88977924414E+03 -0.11980948756E+04  0.38979160756E+03  0.15424253406E+04  0.00000000000E+00 0.  1.
          1    1    6    6  503    0  0.32863088990E+01 -0.13431587876E+02  0.18884600937E+02  0.23405886687E+02  0.00000000000E+00 0. -1.
         -1    1    6    6    0  503  0.28231900823E+03  0.36685356645E+02  0.32348954060E+03  0.43092379915E+03  0.00000000000E+00 0.  1.
<mgrwt>
<rscale>  0 0.40092295E+04</rscale>
<asrwt>0</asrwt>
<pdfrwt beam="1">  1        1 0.45203286E+00 0.40092295E+04</pdfrwt>
<pdfrwt beam="2">  1       -1 0.21040939E+00 0.40092295E+04</pdfrwt>
<totfact> 0.66199011E-02</totfact>
</mgrwt>
</event>
<event>
12    2  0.3518828E-008  0.4902085E+04  0.7818608E-02  0.7843792E-01
         -1   -1    0    0    0  501 -0.00000000000E+00  0.00000000000E+00  0.24724075540E+04  0.24724075540E+04  0.00000000000E+00 0.  1.
          1   -1    0    0  501    0  0.00000000000E+00 -0.00000000000E+00 -0.24298623915E+04  0.24298623915E+04  0.00000000000E+00 0. -1.
         23    2    1    2    0    0  0.14310289964E+04 -0.26808164214E+03 -0.18450217511E+04  0.23522221282E+04  0.95561095975E+02 0.  0.
        254    2    1    2    0    0 -0.14310289964E+04  0.26808164214E+03  0.18875669135E+04  0.25500478173E+04  0.90560657143E+03 0.  0.
         23    2    4    4    0    0 -0.93456270782E+03 -0.26141836637E+03  0.95538811895E+03  0.13649381507E+04  0.92426620725E+02 0.  0.
         23    2    4    4    0    0 -0.49646628859E+03  0.52950000851E+03  0.93217879458E+03  0.11851096667E+04  0.93158908422E+02 0.  0.
          3    1    3    3  502    0  0.11407128778E+04 -0.17494393483E+03 -0.14473270740E+04  0.18511042405E+04  0.00000000000E+00 0. -1.
         -3    1    3    3    0  502  0.29031611865E+03 -0.93137707313E+02 -0.39769467703E+03  0.50111788774E+03  0.00000000000E+00 0.  1.
         11    1    5    5    0    0 -0.19927877339E+03 -0.45525149895E+02  0.25453753916E+03  0.32645662444E+03  0.00000000000E+00 0. -1.
        -11    1    5    5    0    0 -0.73528393443E+03 -0.21589321647E+03  0.70085057978E+03  0.10384815262E+04  0.00000000000E+00 0.  1.
          1    1    6    6  503    0 -0.74228364751E+02  0.38964470737E+02  0.90711303359E+02  0.12351769375E+03  0.00000000000E+00 0. -1.
         -1    1    6    6    0  503 -0.42223792383E+03  0.49053553777E+03  0.84146749123E+03  0.10615919729E+04  0.00000000000E+00 0.  1.
<mgrwt>
<rscale>  0 0.49020853E+04</rscale>
<asrwt>0</asrwt>
<pdfrwt beam="1">  1        1 0.37382499E+00 0.49020853E+04</pdfrwt>
<pdfrwt beam="2">  1       -1 0.38037039E+00 0.49020853E+04</pdfrwt>
<totfact> 0.10725123E-02</totfact>
</mgrwt>
</event>
<event>
12    2  0.3518828E-008  0.2777037E+04  0.7818608E-02  0.8310433E-01
          2   -1    0    0  501    0  0.00000000000E+00  0.00000000000E+00  0.79322280986E+03  0.79322280986E+03  0.00000000000E+00 0. -1.
         -2   -1    0    0    0  501 -0.00000000000E+00 -0.00000000000E+00 -0.24305698252E+04  0.24305698252E+04  0.00000000000E+00 0.  1.
         23    2    1    2    0    0  0.80104411829E+03  0.95782785305E+03 -0.10242729006E+04  0.16174866347E+04  0.89566527769E+02 0.  0.
        254    2    1    2    0    0 -0.80104411829E+03 -0.95782785305E+03 -0.61307411473E+03  0.16063060004E+04  0.80327655336E+03 0.  0.
         23    2    4    4    0    0 -0.15266664010E+03 -0.55767760813E+03 -0.60126236048E+03  0.83911495081E+03  0.91027781065E+02 0.  0.
         23    2    4    4    0    0 -0.64837747819E+03 -0.40015024491E+03 -0.11811754244E+02  0.76719104957E+03  0.89045023859E+02 0.  0.
          1    1    3    3  502    0  0.72610697817E+03  0.90156007165E+03 -0.93470093992E+03  0.14878534046E+04  0.00000000000E+00 0. -1.
         -1    1    3    3    0  502  0.74937140120E+02  0.56267781397E+02 -0.89571960687E+02  0.12963323005E+03  0.00000000000E+00 0.  1.
         11    1    5    5    0    0 -0.48581164003E+02 -0.33507461706E+03 -0.37249726292E+03  0.50337792897E+03  0.00000000000E+00 0.  1.
        -11    1    5    5    0    0 -0.10408547610E+03 -0.22260299108E+03 -0.22876509757E+03  0.33573702184E+03  0.00000000000E+00 0. -1.
          4    1    6    6  503    0 -0.24101539383E+03 -0.11955411766E+03  0.30366569465E+02  0.27074662630E+03  0.00000000000E+00 0. -1.
         -4    1    6    6    0  503 -0.40736208436E+03 -0.28059612725E+03 -0.42178323709E+02  0.49644442327E+03  0.00000000000E+00 0.  1.
<mgrwt>
<rscale>  0 0.27770369E+04</rscale>
<asrwt>0</asrwt>
<pdfrwt beam="1">  1        2 0.12203428E+00 0.27770369E+04</pdfrwt>
<pdfrwt beam="2">  1       -2 0.37393382E+00 0.27770369E+04</pdfrwt>
<totfact> 0.33266726E-01</totfact>
</mgrwt>
</event>
<event>
12    2  0.3518828E-008  0.1199968E+04  0.7818608E-02  0.9112884E-01
         -4   -1    0    0    0  501 -0.00000000000E+00  0.00000000000E+00  0.88670378928E+03  0.88670378928E+03  0.00000000000E+00 0.  1.
          4   -1    0    0  501    0  0.00000000000E+00 -0.00000000000E+00 -0.40597654754E+03  0.40597654754E+03  0.00000000000E+00 0. -1.
         23    2    1    2    0    0  0.12679473087E+03 -0.11653755182E+03  0.27451987077E+03  0.33623166464E+03  0.89625153266E+02 0.  0.
        254    2    1    2    0    0 -0.12679473087E+03  0.11653755182E+03  0.20620737096E+03  0.95644867218E+03  0.91794045444E+03 0.  0.
         23    2    4    4    0    0 -0.26507636067E+03  0.43661857546E+03 -0.39020814605E+02  0.52029066483E+03  0.90986232540E+02 0.  0.
         23    2    4    4    0    0  0.13828162980E+03 -0.32008102364E+03  0.24522818557E+03  0.43615800735E+03  0.92321576795E+02 0.  0.
          1    1    3    3  502    0  0.41059640159E+02 -0.23666128753E+02  0.18807696677E+02  0.50987343081E+02  0.00000000000E+00 0. -1.
         -1    1    3    3    0  502  0.85735090709E+02 -0.92871423067E+02  0.25571217410E+03  0.28524432156E+03  0.00000000000E+00 0.  1.
         11    1    5    5    0    0 -0.91175916303E+02  0.14132159654E+03  0.29665956303E+02  0.17077737065E+03  0.00000000000E+00 0.  1.
        -11    1    5    5    0    0 -0.17390044437E+03  0.29529697892E+03 -0.68686770908E+02  0.34951329418E+03  0.00000000000E+00 0. -1.
          2    1    6    6  503    0  0.11247731420E+02 -0.28539875643E+02 -0.55317713987E+01  0.31171083693E+02  0.00000000000E+00 0.  1.
         -2    1    6    6    0  503  0.12703389838E+03 -0.29154114800E+03  0.25075995697E+03  0.40498692365E+03  0.00000000000E+00 0. -1.
<mgrwt>
<rscale>  0 0.11999682E+04</rscale>
<asrwt>0</asrwt>
<pdfrwt beam="1">  1        4 0.62457931E-01 0.11999682E+04</pdfrwt>
<pdfrwt beam="2">  1       -4 0.13641597E+00 0.11999682E+04</pdfrwt>
<totfact> 0.18085289E+00</totfact>
</mgrwt>
</event>
<event>
12    2  0.3518828E-008  0.2758846E+04  0.7818608E-02  0.8316160E-01
          2   -1    0    0  501    0  0.00000000000E+00  0.00000000000E+00  0.34922628523E+04  0.34922628523E+04  0.00000000000E+00 0. -1.
         -2   -1    0    0    0  501 -0.00000000000E+00 -0.00000000000E+00 -0.54486391373E+03  0.54486391373E+03  0.00000000000E+00 0.  1.
         23    2    1    2    0    0  0.81219434936E+03  0.75725952769E+03  0.21004588179E+04  0.23777645815E+04  0.93463928826E+02 0.  0.
        254    2    1    2    0    0 -0.81219434936E+03 -0.75725952769E+03  0.84694012069E+03  0.16593621845E+04  0.89614375969E+03 0.  0.
         23    2    4    4    0    0 -0.68158853879E+03 -0.88663048054E+02  0.21544761001E+03  0.72604743155E+03  0.91121500760E+02 0.  0.
         23    2    4    4    0    0 -0.13060581057E+03 -0.66859647964E+03  0.63149251068E+03  0.93331475298E+03  0.90633916141E+02 0.  0.
          1    1    3    3  502    0  0.69197417025E+03  0.61421593223E+03  0.18015403225E+04  0.20252498604E+04  0.00000000000E+00 0. -1.
         -1    1    3    3    0  502  0.12022017911E+03  0.14304359547E+03  0.29891849543E+03  0.35251472108E+03  0.00000000000E+00 0.  1.
         11    1    5    5    0    0 -0.28615578387E+03 -0.59624687376E+00  0.61695306092E+02  0.29273161589E+03  0.00000000000E+00 0. -1.
        -11    1    5    5    0    0 -0.39543275493E+03 -0.88066801180E+02  0.15375230392E+03  0.43331581566E+03  0.00000000000E+00 0.  1.
          1    1    6    6  503    0 -0.22326603232E+02 -0.22081045678E+03  0.25737822067E+03  0.33985185524E+03  0.00000000000E+00 0.  1.
         -1    1    6    6    0  503 -0.10827920733E+03 -0.44778602286E+03  0.37411429001E+03  0.59346289774E+03  0.00000000000E+00 0. -1.
<mgrwt>
<rscale>  0 0.27588461E+04</rscale>
<asrwt>0</asrwt>
<pdfrwt beam="1">  1        2 0.53727119E+00 0.27588461E+04</pdfrwt>
<pdfrwt beam="2">  1       -2 0.83825220E-01 0.27588461E+04</pdfrwt>
<totfact> 0.89382498E-01</totfact>
</mgrwt>
</event>
<event>
12    2  0.3518828E-008  0.1715243E+04  0.7818608E-02  0.8752718E-01
          2   -1    0    0  501    0  0.00000000000E+00  0.00000000000E+00  0.16099620573E+04  0.16099620573E+04  0.00000000000E+00 0. -1.
         -2   -1    0    0    0  501 -0.00000000000E+00 -0.00000000000E+00 -0.45685201554E+03  0.45685201554E+03  0.00000000000E+00 0.  1.
         23    2    1    2    0    0 -0.61161922917E+03 -0.63749169082E+02  0.38037731339E+03  0.72866112714E+03  0.90100497354E+02 0.  0.
        254    2    1    2    0    0  0.61161922917E+03  0.63749169082E+02  0.77273272834E+03  0.13381529457E+04  0.90299246869E+03 0.  0.
         23    2    4    4    0    0 -0.22519500748E+03 -0.33505160093E+02  0.18471695816E+03  0.30686552707E+03  0.90612967756E+02 0.  0.
         23    2    4    4    0    0  0.83681423665E+03  0.97254329175E+02  0.58801577018E+03  0.10312874186E+04  0.89859460178E+02 0.  0.
          4    1    3    3  502    0 -0.44398467673E+03 -0.41501074351E+02  0.32097532303E+03  0.54942687442E+03  0.00000000000E+00 0. -1.
         -4    1    3    3    0  502 -0.16763455244E+03 -0.22248094731E+02  0.59401990359E+02  0.17923425272E+03  0.00000000000E+00 0.  1.
         11    1    5    5    0    0 -0.15035240496E+03 -0.54667365371E+02  0.87442085113E+02  0.18231973224E+03  0.00000000000E+00 0.  1.
        -11    1    5    5    0    0 -0.74842602517E+02  0.21162205278E+02  0.97274873050E+02  0.12454579483E+03  0.00000000000E+00 0. -1.
          3    1    6    6  503    0  0.77476549151E+02 -0.14619983314E+02  0.41828785416E+02  0.89252489432E+02  0.00000000000E+00 0. -1.
         -3    1    6    6    0  503  0.75933768750E+03  0.11187431249E+03  0.54618698476E+03  0.94203492917E+03  0.00000000000E+00 0.  1.
<mgrwt>
<rscale>  0 0.17152427E+04</rscale>
<asrwt>0</asrwt>
<pdfrwt beam="1">  1        2 0.24768647E+00 0.17152427E+04</pdfrwt>
<pdfrwt beam="2">  1       -2 0.70284926E-01 0.17152427E+04</pdfrwt>
<totfact> 0.19277379E+01</totfact>
</mgrwt>
</event>
<event>
12    2  0.3518828E-008  0.2289440E+04  0.7818608E-02  0.8482097E-01
         -1   -1    0    0    0  501 -0.00000000000E+00  0.00000000000E+00  0.88331190853E+03  0.88331190853E+03  0.00000000000E+00 0.  1.
          1   -1    0    0  501    0  0.00000000000E+00 -0.00000000000E+00 -0.14834889102E+04  0.14834889102E+04  0.00000000000E+00 0. -1.
         23    2    1    2    0    0  0.10920463920E+03  0.46502567009E+03  0.61419331541E+03  0.78486079967E+03  0.10294910930E+03 0.  0.
        254    2    1    2    0    0 -0.10920463920E+03 -0.46502567009E+03 -0.12143703171E+04  0.15819400191E+04  0.89423958190E+03 0.  0.
         23    2    4    4    0    0 -0.40273461856E+03 -0.54936674619E+03 -0.73706095821E+03  0.10076032438E+04  0.89478746418E+02 0.  0.
         23    2    4    4    0    0  0.29352997936E+03  0.84341076101E+02 -0.47730935891E+03  0.57433677526E+03  0.93622867993E+02 0.  0.
          4    1    3    3  502    0  0.35906280468E+02  0.18299885519E+03  0.16262828508E+03  0.24743847939E+03  0.00000000000E+00 0. -1.
         -4    1    3    3    0  502  0.73298358734E+02  0.28202681490E+03  0.45156503034E+03  0.53742232028E+03  0.00000000000E+00 0.  1.
         11    1    5    5    0    0 -0.39011554416E+03 -0.49139235554E+03 -0.66513744035E+03  0.91436557210E+03  0.00000000000E+00 0.  1.
        -11    1    5    5    0    0 -0.12619074402E+02 -0.57974390644E+02 -0.71923517858E+02  0.93237671734E+02  0.00000000000E+00 0. -1.
          2    1    6    6  503    0  0.55337805342E+02 -0.20732148579E+02 -0.87389471430E+02  0.10549414392E+03  0.00000000000E+00 0. -1.
         -2    1    6    6    0  503  0.23819217402E+03  0.10507322468E+03 -0.38991988748E+03  0.46884263134E+03  0.00000000000E+00 0.  1.
<mgrwt>
<rscale>  0 0.22894396E+04</rscale>
<asrwt>0</asrwt>
<pdfrwt beam="1">  1        1 0.22822906E+00 0.22894396E+04</pdfrwt>
<pdfrwt beam="2">  1       -1 0.13589414E+00 0.22894396E+04</pdfrwt>
<totfact> 0.27521370E+00</totfact>
</mgrwt>
</event>
<event>
12    2  0.3518828E-008  0.3291729E+04  0.7818608E-02  0.8165003E-01
         -2   -1    0    0    0  501 -0.00000000000E+00  0.00000000000E+00  0.91319934107E+03  0.91319934107E+03  0.00000000000E+00 0.  1.
          2   -1    0    0  501    0  0.00000000000E+00 -0.00000000000E+00 -0.29663511880E+04  0.29663511880E+04  0.00000000000E+00 0. -1.
         23    2    1    2    0    0  0.12133539222E+03 -0.13136161662E+04 -0.19199385682E+04  0.23312338356E+04  0.90428871171E+02 0.  0.
        254    2    1    2    0    0 -0.12133539222E+03  0.13136161662E+04 -0.13321327870E+03  0.15483166935E+04  0.79951803998E+03 0.  0.
         23    2    4    4    0    0  0.24660837414E+03  0.69361098537E+03  0.17016445206E+03  0.76095646351E+03  0.90481541669E+02 0.  0.
         23    2    4    4    0    0 -0.36794376637E+03  0.62000518084E+03 -0.30337773076E+03  0.78736023001E+03  0.90050234835E+02 0.  0.
          1    1    3    3  502    0  0.11899721247E+03 -0.83544188533E+03 -0.12471709622E+04  0.15058415884E+04  0.00000000000E+00 0. -1.
         -1    1    3    3    0  502  0.23381797575E+01 -0.47817428089E+03 -0.67276760604E+03  0.82539224720E+03  0.00000000000E+00 0.  1.
         11    1    5    5    0    0  0.23593798500E+03  0.61386716326E+03  0.17443862015E+03  0.68038846191E+03  0.00000000000E+00 0.  1.
        -11    1    5    5    0    0  0.10670389146E+02  0.79743822112E+02 -0.42741680864E+01  0.80568001603E+02  0.00000000000E+00 0. -1.
          1    1    6    6  503    0 -0.15151826965E+03  0.17499488262E+03 -0.87240069804E+02  0.24736981376E+03  0.00000000000E+00 0. -1.
         -1    1    6    6    0  503 -0.21642549672E+03  0.44501029822E+03 -0.21613766096E+03  0.53999041625E+03  0.00000000000E+00 0.  1.
<mgrwt>
<rscale>  0 0.32917290E+04</rscale>
<asrwt>0</asrwt>
<pdfrwt beam="1">  1        2 0.45636173E+00 0.32917290E+04</pdfrwt>
<pdfrwt beam="2">  1       -2 0.14049220E+00 0.32917290E+04</pdfrwt>
<totfact> 0.54323986E-01</totfact>
</mgrwt>
</event>
<event>
12    2  0.3518828E-008  0.1798887E+04  0.7818608E-02  0.8706892E-01
         -1   -1    0    0    0  501 -0.00000000000E+00  0.00000000000E+00  0.14434670834E+04  0.14434670834E+04  0.00000000000E+00 0.  1.
          1   -1    0    0  501    0  0.00000000000E+00 -0.00000000000E+00 -0.56045512139E+03  0.56045512139E+03  0.00000000000E+00 0. -1.
         23    2    1    2    0    0 -0.33876299901E+03  0.27970336839E+03 -0.23558736638E+03  0.50832193990E+03  0.99475844328E+02 0.  0.
        254    2    1    2    0    0  0.33876299901E+03 -0.27970336839E+03  0.11185993284E+04  0.14956002648E+04  0.89025914825E+03 0.  0.
         23    2    4    4    0    0 -0.60604190292E+02  0.11271208311E+03 -0.75201437521E+02  0.17387008536E+03  0.90546500859E+02 0.  0.
         23    2    4    4    0    0  0.39936718930E+03 -0.39241545150E+03  0.11938007659E+04  0.13217301795E+04  0.91248892071E+02 0.  0.
          4    1    3    3  502    0 -0.19130212988E+02  0.51515081649E+02 -0.48562263614E+02  0.73335272097E+02  0.00000000000E+00 0.  1.
         -4    1    3    3    0  502 -0.31963278602E+03  0.22818828674E+03 -0.18702510276E+03  0.43498666781E+03  0.00000000000E+00 0. -1.
         11    1    5    5    0    0  0.12199102205E+02  0.63908391987E+02 -0.51765971126E+02  0.83143348667E+02  0.00000000000E+00 0. -1.
        -11    1    5    5    0    0 -0.72803292498E+02  0.48803691123E+02 -0.23435466394E+02  0.90726736693E+02  0.00000000000E+00 0.  1.
          4    1    6    6  503    0  0.41700776268E+02 -0.16037663157E+02  0.61048464774E+02  0.75651017390E+02  0.00000000000E+00 0.  1.
         -4    1    6    6    0  503  0.35766641304E+03 -0.37637778834E+03  0.11327523011E+04  0.12460791621E+04  0.00000000000E+00 0. -1.
<mgrwt>
<rscale>  0 0.17988869E+04</rscale>
<asrwt>0</asrwt>
<pdfrwt beam="1">  1        1 0.86223866E-01 0.17988869E+04</pdfrwt>
<pdfrwt beam="2">  1       -1 0.22207186E+00 0.17988869E+04</pdfrwt>
<totfact> 0.37985594E+00</totfact>
</mgrwt>
</event>
<event>
12    2  0.3518828E-008  0.1191784E+04  0.7818608E-02  0.9120079E-01
          2   -1    0    0  501    0  0.00000000000E+00  0.00000000000E+00  0.16923126593E+04  0.16923126593E+04  0.00000000000E+00 0.  1.
         -2   -1    0    0    0  501 -0.00000000000E+00 -0.00000000000E+00 -0.20982363060E+03  0.20982363060E+03  0.00000000000E+00 0. -1.
         23    2    1    2    0    0  0.81283279263E+02  0.99041469645E+02 -0.37267654409E+01  0.15884159333E+03  0.93811400121E+02 0.  0.
        254    2    1    2    0    0 -0.81283279263E+02 -0.99041469645E+02  0.14862157942E+04  0.17432946966E+04  0.90212129350E+03 0.  0.
         23    2    4    4    0    0  0.14716273640E+03 -0.42238750420E+03  0.49470672429E+03  0.67174692109E+03  0.80256515322E+02 0.  0.
         23    2    4    4    0    0 -0.22844601566E+03  0.32334603455E+03  0.99150906988E+03  0.10715477755E+04  0.91565055725E+02 0.  0.
          3    1    3    3  502    0  0.44884907851E+02  0.10963363747E+03 -0.14706358912E+02  0.11937531743E+03  0.00000000000E+00 0. -1.
         -3    1    3    3    0  502  0.36398371413E+02 -0.10592167826E+02  0.10979593471E+02  0.39466275901E+02  0.00000000000E+00 0.  1.
         11    1    5    5    0    0  0.12292669223E+03 -0.24938710496E+03  0.27508612949E+03  0.39112309881E+03  0.00000000000E+00 0. -1.
        -11    1    5    5    0    0  0.24236044171E+02 -0.17300039924E+03  0.21962059480E+03  0.28062382228E+03  0.00000000000E+00 0.  1.
          2    1    6    6  503    0 -0.35384403521E+02  0.49705542583E+02  0.25940135332E+03  0.26648031649E+03  0.00000000000E+00 0. -1.
         -2    1    6    6    0  503 -0.19306161214E+03  0.27364049197E+03  0.73210771656E+03  0.80506745902E+03  0.00000000000E+00 0.  1.
<mgrwt>
<rscale>  0 0.11917839E+04</rscale>
<asrwt>0</asrwt>
<pdfrwt beam="1">  1        2 0.26035578E+00 0.11917839E+04</pdfrwt>
<pdfrwt beam="2">  1       -2 0.32280560E-01 0.11917839E+04</pdfrwt>
<totfact> 0.87355377E+01</totfact>
</mgrwt>
</event>
<event>
12    2  0.3518828E-008  0.1547489E+04  0.7818608E-02  0.8853473E-01
          2   -1    0    0  501    0  0.00000000000E+00  0.00000000000E+00  0.25537703567E+04  0.25537703567E+04  0.00000000000E+00 0. -1.
         -2   -1    0    0    0  501 -0.00000000000E+00 -0.00000000000E+00 -0.23443002566E+03  0.23443002566E+03  0.00000000000E+00 0.  1.
         23    2    1    2    0    0  0.25210952619E+02 -0.11262804442E+03 -0.11672607266E+03  0.18949559250E+03  0.94672778650E+02 0.  0.
        254    2    1    2    0    0 -0.25210952619E+02  0.11262804442E+03  0.24360664037E+04  0.25987047899E+04  0.89751122173E+03 0.  0.
         23    2    4    4    0    0 -0.39126650149E+03 -0.16340670899E+03  0.10787592287E+04  0.11630096731E+04  0.95282730357E+02 0.  0.
         23    2    4    4    0    0  0.36605554887E+03  0.27603475341E+03  0.13573071750E+04  0.14356951167E+04  0.93519253530E+02 0.  0.
          1    1    3    3  502    0 -0.20808309365E+02 -0.57818700202E+02 -0.97742175317E+02  0.11545354333E+03  0.00000000000E+00 0. -1.
         -1    1    3    3    0  502  0.46019261984E+02 -0.54809344223E+02 -0.18983897341E+02  0.74042049175E+02  0.00000000000E+00 0.  1.
         11    1    5    5    0    0 -0.10196524095E+02  0.11316955971E+02  0.32670696840E+02  0.36047427482E+02  0.00000000000E+00 0.  1.
        -11    1    5    5    0    0 -0.38106997740E+03 -0.17472366496E+03  0.10460885318E+04  0.11269622457E+04  0.00000000000E+00 0. -1.
          2    1    6    6  503    0  0.36792523454E+03  0.25903916785E+03  0.13217065516E+04  0.13962014458E+04  0.00000000000E+00 0. -1.
         -2    1    6    6    0  503 -0.18696856666E+01  0.16995585565E+02  0.35600623399E+02  0.39493670880E+02  0.00000000000E+00 0.  1.
<mgrwt>
<rscale>  0 0.15474889E+04</rscale>
<asrwt>0</asrwt>
<pdfrwt beam="1">  1        2 0.39288773E+00 0.15474889E+04</pdfrwt>
<pdfrwt beam="2">  1       -2 0.36066160E-01 0.15474889E+04</pdfrwt>
<totfact> 0.22615317E+01</totfact>
</mgrwt>
</event>
<event>
12    2  0.3518828E-008  0.1260674E+04  0.7818608E-02  0.9061346E-01
          2   -1    0    0  501    0  0.00000000000E+00  0.00000000000E+00  0.71078742839E+03  0.71078742839E+03  0.00000000000E+00 0.  1.
         -2   -1    0    0    0  501 -0.00000000000E+00 -0.00000000000E+00 -0.55899249880E+03  0.55899249880E+03  0.00000000000E+00 0. -1.
         23    2    1    2    0    0 -0.86606991468E+02 -0.87836420726E+01 -0.24899012941E+03  0.28191792612E+03  0.99517381326E+02 0.  0.
        254    2    1    2    0    0  0.86606991468E+02  0.87836420726E+01  0.40078505899E+03  0.98786200108E+03  0.89870170041E+03 0.  0.
         23    2    4    4    0    0 -0.23344967929E+03 -0.25434235163E+03  0.43465852070E+03  0.56258071194E+03  0.91543668482E+02 0.  0.
         23    2    4    4    0    0  0.32005667076E+03  0.26312599370E+03 -0.33873461706E+02  0.42528128914E+03  0.89695052414E+02 0.  0.
          3    1    3    3  502    0 -0.58704119299E+02  0.37868807117E+02 -0.18615851054E+03  0.19883463285E+03  0.00000000000E+00 0. -1.
         -3    1    3    3    0  502 -0.27902872169E+02 -0.46652449190E+02 -0.62831618869E+02  0.83083293269E+02  0.00000000000E+00 0.  1.
         11    1    5    5    0    0 -0.95212244554E+02 -0.16244571669E+03  0.26636714175E+03  0.32619846197E+03  0.00000000000E+00 0.  1.
        -11    1    5    5    0    0 -0.13823743473E+03 -0.91896634937E+02  0.16829137895E+03  0.23638224997E+03  0.00000000000E+00 0. -1.
          4    1    6    6  503    0  0.20464868141E+03  0.11546606130E+03 -0.36851858417E+02  0.23784775296E+03  0.00000000000E+00 0. -1.
         -4    1    6    6    0  503  0.11540798934E+03  0.14765993239E+03  0.29783967112E+01  0.18743353618E+03  0.00000000000E+00 0.  1.
<mgrwt>
<rscale>  0 0.12606742E+04</rscale>
<asrwt>0</asrwt>
<pdfrwt beam="1">  1        2 0.10935191E+00 0.12606742E+04</pdfrwt>
<pdfrwt beam="2">  1       -2 0.85998846E-01 0.12606742E+04</pdfrwt>
<totfact> 0.46353024E+01</totfact>
</mgrwt>
</event>
<event>
12    2  0.3518828E-008  0.1610393E+04  0.7818608E-02  0.8814188E-01
          2   -1    0    0  501    0  0.00000000000E+00  0.00000000000E+00  0.15010376760E+04  0.15010376760E+04  0.00000000000E+00 0. -1.
         -2   -1    0    0    0  501 -0.00000000000E+00 -0.00000000000E+00 -0.43192896860E+03  0.43192896860E+03  0.00000000000E+00 0.  1.
         23    2    1    2    0    0  0.10801186176E+03 -0.23276796056E+03 -0.20383561839E+03  0.34014828750E+03  0.91128548882E+02 0.  0.
        254    2    1    2    0    0 -0.10801186176E+03  0.23276796056E+03  0.12729443258E+04  0.15928183571E+04  0.92240748934E+03 0.  0.
         23    2    4    4    0    0 -0.29776581030E+02  0.58087573724E+03  0.77382536117E+03  0.97235590532E+03  0.91471581080E+02 0.  0.
         23    2    4    4    0    0 -0.78235280734E+02 -0.34810777667E+03  0.49911896464E+03  0.62046245179E+03  0.92488539184E+02 0.  0.
          3    1    3    3  502    0 -0.77421420494E+01  0.40133604914E+01 -0.57040242173E+01  0.10420351156E+02  0.00000000000E+00 0. -1.
         -3    1    3    3    0  502  0.11575400381E+03 -0.23678132105E+03 -0.19813159417E+03  0.32972793635E+03  0.00000000000E+00 0.  1.
         11    1    5    5    0    0 -0.58481423931E+02  0.48535648683E+03  0.63349811616E+03  0.80019426356E+03  0.00000000000E+00 0. -1.
        -11    1    5    5    0    0  0.28704842901E+02  0.95519250403E+02  0.14032724501E+03  0.17216164177E+03  0.00000000000E+00 0.  1.
          3    1    6    6  503    0 -0.82052993607E+02 -0.32495362322E+03  0.41664804628E+03  0.53471781855E+03  0.00000000000E+00 0. -1.
         -3    1    6    6    0  503  0.38177128732E+01 -0.23154153451E+02  0.82470918362E+02  0.85744633238E+02  0.00000000000E+00 0.  1.
<mgrwt>
<rscale>  0 0.16103933E+04</rscale>
<asrwt>0</asrwt>
<pdfrwt beam="1">  1        2 0.23092887E+00 0.16103933E+04</pdfrwt>
<pdfrwt beam="2">  1       -2 0.66450611E-01 0.16103933E+04</pdfrwt>
<totfact> 0.25282099E+01</totfact>
</mgrwt>
</event>
<event>
12    2  0.3518828E-008  0.1496265E+04  0.7818608E-02  0.8886941E-01
          2   -1    0    0  501    0  0.00000000000E+00  0.00000000000E+00  0.22473525543E+04  0.22473525543E+04  0.00000000000E+00 0.  1.
         -2   -1    0    0    0  501 -0.00000000000E+00 -0.00000000000E+00 -0.24904955553E+03  0.24904955553E+03  0.00000000000E+00 0. -1.
         23    2    1    2    0    0  0.43718335126E+02 -0.30257195502E+03  0.20412282972E+03  0.37924166523E+03  0.93257869586E+02 0.  0.
        254    2    1    2    0    0 -0.43718335126E+02  0.30257195502E+03  0.17941801690E+04  0.21171604446E+04  0.10815843880E+04 0.  0.
         23    2    4    4    0    0  0.33580553699E+03  0.25656401408E+03  0.20340051474E+03  0.47852603179E+03  0.94999693248E+02 0.  0.
         23    2    4    4    0    0 -0.37952387211E+03  0.46007940942E+02  0.15907796543E+04  0.16386344128E+04  0.91584551820E+02 0.  0.
          4    1    3    3  502    0 -0.16825038721E+02 -0.15961296275E+03  0.74287410864E+02  0.17685587131E+03  0.00000000000E+00 0. -1.
         -4    1    3    3    0  502  0.60543373847E+02 -0.14295899228E+03  0.12983541886E+03  0.20238579392E+03  0.00000000000E+00 0.  1.
         11    1    5    5    0    0  0.27983393099E+03  0.22961392659E+03  0.13553681644E+03  0.38652271968E+03  0.00000000000E+00 0. -1.
        -11    1    5    5    0    0  0.55971605992E+02  0.26950087493E+02  0.67863698298E+02  0.92003312114E+02  0.00000000000E+00 0.  1.
          3    1    6    6  503    0 -0.31240264438E+03  0.70646599020E+02  0.12449673421E+04  0.12855076962E+04  0.00000000000E+00 0. -1.
         -3    1    6    6    0  503 -0.67121227728E+02 -0.24638658078E+02  0.34581231219E+03  0.35312671656E+03  0.00000000000E+00 0.  1.
<mgrwt>
<rscale>  0 0.14962649E+04</rscale>
<asrwt>0</asrwt>
<pdfrwt beam="1">  1        2 0.34574653E+00 0.14962649E+04</pdfrwt>
<pdfrwt beam="2">  1       -2 0.38315318E-01 0.14962649E+04</pdfrwt>
<totfact> 0.30228786E+01</totfact>
</mgrwt>
</event>
<event>
12    2  0.3518828E-008  0.1316393E+04  0.7818608E-02  0.9016665E-01
          1   -1    0    0  501    0  0.00000000000E+00  0.00000000000E+00  0.15778582974E+04  0.15778582974E+04  0.00000000000E+00 0. -1.
         -1   -1    0    0    0  501 -0.00000000000E+00 -0.00000000000E+00 -0.27456390979E+03  0.27456390979E+03  0.00000000000E+00 0.  1.
         23    2    1    2    0    0  0.30190968750E+03 -0.17022133865E+03  0.28526583155E+03  0.45814264082E+03  0.91615070534E+02 0.  0.
        254    2    1    2    0    0 -0.30190968750E+03  0.17022133865E+03  0.10180285560E+04  0.13942795664E+04  0.88741681564E+03 0.  0.
         23    2    4    4    0    0  0.61349746914E+02 -0.73115001970E+02 -0.11612765427E+03  0.17542538022E+03  0.90436922659E+02 0.  0.
         23    2    4    4    0    0 -0.36325943442E+03  0.24333634062E+03  0.11341562103E+04  0.12188541861E+04  0.90140037144E+02 0.  0.
          1    1    3    3  502    0  0.11778647642E+03 -0.67495229900E+02  0.56520816984E+02  0.14705054519E+03  0.00000000000E+00 0. -1.
         -1    1    3    3    0  502  0.18412321108E+03 -0.10272610875E+03  0.22874501457E+03  0.31109209564E+03  0.00000000000E+00 0.  1.
         11    1    5    5    0    0  0.64843973521E+02 -0.70371366839E+02 -0.12967978529E+03  0.16116363388E+03  0.00000000000E+00 0.  1.
        -11    1    5    5    0    0 -0.34942266069E+01 -0.27436351312E+01  0.13552131024E+02  0.14261746338E+02  0.00000000000E+00 0. -1.
          3    1    6    6  503    0 -0.14060634321E+03  0.11212343141E+03  0.35497138518E+03  0.39792774711E+03  0.00000000000E+00 0. -1.
         -3    1    6    6    0  503 -0.22265309121E+03  0.13121290921E+03  0.77918482514E+03  0.82092643902E+03  0.00000000000E+00 0.  1.
<mgrwt>
<rscale>  0 0.13163935E+04</rscale>
<asrwt>0</asrwt>
<pdfrwt beam="1">  1        1 0.24274742E+00 0.13163935E+04</pdfrwt>
<pdfrwt beam="2">  1       -1 0.42240603E-01 0.13163935E+04</pdfrwt>
<totfact> 0.31243349E+01</totfact>
</mgrwt>
</event>
<event>
12    2  0.3518828E-008  0.1542435E+04  0.7818608E-02  0.8856714E-01
          1   -1    0    0  501    0  0.00000000000E+00  0.00000000000E+00  0.33142198784E+03  0.33142198784E+03  0.00000000000E+00 0.  1.
         -1   -1    0    0    0  501 -0.00000000000E+00 -0.00000000000E+00 -0.17946197912E+04  0.17946197912E+04  0.00000000000E+00 0. -1.
         23    2    1    2    0    0 -0.26351996605E+03 -0.42978915218E+03 -0.52791343296E+03  0.73555674227E+03  0.90496632798E+02 0.  0.
        254    2    1    2    0    0  0.26351996605E+03  0.42978915218E+03 -0.93528437043E+03  0.13904850368E+04  0.89695612833E+03 0.  0.
         23    2    4    4    0    0  0.23950295920E+02 -0.24980700151E+03 -0.10192295598E+03  0.28461725624E+03  0.87415896238E+02 0.  0.
         23    2    4    4    0    0  0.23956967013E+03  0.67959615369E+03 -0.83336141445E+03  0.11058677806E+04  0.95956980105E+02 0.  0.
          1    1    3    3  502    0 -0.26689011575E+03 -0.41914287857E+03 -0.52704944427E+03  0.72435640623E+03  0.00000000000E+00 0. -1.
         -1    1    3    3    0  502  0.33701496966E+01 -0.10646273618E+02 -0.86398869239E+00  0.11200336039E+02  0.00000000000E+00 0.  1.
         11    1    5    5    0    0 -0.19850610574E+02 -0.12074662696E+02 -0.15357266415E+02  0.27851209150E+02  0.00000000000E+00 0. -1.
        -11    1    5    5    0    0  0.43800906494E+02 -0.23773233881E+03 -0.86565689565E+02  0.25676604709E+03  0.00000000000E+00 0.  1.
          1    1    6    6  503    0  0.65088378579E+01  0.60899643352E+02 -0.10992425594E+03  0.12583510470E+03  0.00000000000E+00 0. -1.
         -1    1    6    6    0  503  0.23306083227E+03  0.61869651034E+03 -0.72343715851E+03  0.98003267587E+03  0.00000000000E+00 0.  1.
<mgrwt>
<rscale>  0 0.15424350E+04</rscale>
<asrwt>0</asrwt>
<pdfrwt beam="1">  1        1 0.50987998E-01 0.15424350E+04</pdfrwt>
<pdfrwt beam="2">  1       -1 0.27609535E+00 0.15424350E+04</pdfrwt>
<totfact> 0.35041867E+00</totfact>
</mgrwt>
</event>
<event>
12    2  0.3518828E-008  0.2238105E+04  0.7818608E-02  0.8502733E-01
         -1   -1    0    0    0  501 -0.00000000000E+00  0.00000000000E+00  0.52313374473E+03  0.52313374473E+03  0.00000000000E+00 0.  1.
          1   -1    0    0  501    0  0.00000000000E+00 -0.00000000000E+00 -0.23938022387E+04  0.23938022387E+04  0.00000000000E+00 0. -1.
         23    2    1    2    0    0 -0.36905670757E+03 -0.20546254606E+03 -0.18737815601E+04  0.19244380078E+04  0.11826495584E+03 0.  0.
        254    2    1    2    0    0  0.36905670757E+03  0.20546254606E+03  0.31130661362E+01  0.99249797559E+03  0.89812294767E+03 0.  0.
         23    2    4    4    0    0  0.39632216834E+03  0.89202357007E+02 -0.39063865101E+03  0.57087702202E+03  0.90959864744E+02 0.  0.
         23    2    4    4    0    0 -0.27265460776E+02  0.11626018905E+03  0.39375171715E+03  0.42162095357E+03  0.91999874022E+02 0.  0.
          3    1    3    3  502    0 -0.21946112808E+03 -0.12448070556E+03 -0.13606466960E+04  0.13838417771E+04  0.00000000000E+00 0. -1.
         -3    1    3    3    0  502 -0.14959557948E+03 -0.80981840503E+02 -0.51313486410E+03  0.54059623070E+03  0.00000000000E+00 0.  1.
         11    1    5    5    0    0  0.24569386800E+03  0.54568960353E+02 -0.30042564623E+03  0.39191684975E+03  0.00000000000E+00 0.  1.
        -11    1    5    5    0    0  0.15062830034E+03  0.34633396654E+02 -0.90213004782E+02  0.17896017227E+03  0.00000000000E+00 0. -1.
          3    1    6    6  503    0 -0.28144327792E+02  0.34943292974E+02  0.26891905456E+03  0.27263637838E+03  0.00000000000E+00 0. -1.
         -3    1    6    6    0  503  0.87886701619E+00  0.81316896078E+02  0.12483266259E+03  0.14898457519E+03  0.00000000000E+00 0.  1.
<mgrwt>
<rscale>  0 0.22381052E+04</rscale>
<asrwt>0</asrwt>
<pdfrwt beam="1">  1        1 0.36827727E+00 0.22381052E+04</pdfrwt>
<pdfrwt beam="2">  1       -1 0.80482114E-01 0.22381052E+04</pdfrwt>
<totfact> 0.22450142E+00</totfact>
</mgrwt>
</event>
<event>
12    2  0.3518828E-008  0.2749854E+04  0.7818608E-02  0.8319008E-01
          2   -1    0    0  501    0  0.00000000000E+00  0.00000000000E+00  0.30090058754E+04  0.30090058754E+04  0.00000000000E+00 0. -1.
         -2   -1    0    0    0  501 -0.00000000000E+00 -0.00000000000E+00 -0.62825563944E+03  0.62825563944E+03  0.00000000000E+00 0.  1.
         23    2    1    2    0    0  0.11973965460E+04  0.16016363812E+03  0.12619617902E+04  0.17493672810E+04  0.91254833418E+02 0.  0.
        254    2    1    2    0    0 -0.11973965460E+04 -0.16016363812E+03  0.11187884457E+04  0.18878942338E+04  0.92360498722E+03 0.  0.
         23    2    4    4    0    0 -0.12275662328E+04 -0.22139492470E+03  0.65791840663E+03  0.14130784680E+04  0.89440250329E+02 0.  0.
         23    2    4    4    0    0  0.30169686785E+02  0.61231286576E+02  0.46087003909E+03  0.47481576581E+03  0.91593329859E+02 0.  0.
          3    1    3    3  502    0  0.11042498824E+04  0.17202765670E+03  0.11606169964E+04  0.16112085929E+04  0.00000000000E+00 0. -1.
         -3    1    3    3    0  502  0.93146663620E+02 -0.11864018579E+02  0.10134479380E+03  0.13815868815E+03  0.00000000000E+00 0.  1.
         11    1    5    5    0    0 -0.57671400121E+02 -0.25572155776E+02  0.19590395270E+02  0.66058376681E+02  0.00000000000E+00 0. -1.
        -11    1    5    5    0    0 -0.11698948327E+04 -0.19582276892E+03  0.63832801136E+03  0.13470200913E+04  0.00000000000E+00 0.  1.
          3    1    6    6  503    0  0.48937549729E+02  0.16095881668E+02  0.12189334080E+03  0.13233271595E+03  0.00000000000E+00 0. -1.
         -3    1    6    6    0  503 -0.18767862944E+02  0.45135404908E+02  0.33897669830E+03  0.34248304986E+03  0.00000000000E+00 0.  1.
<mgrwt>
<rscale>  0 0.27498545E+04</rscale>
<asrwt>0</asrwt>
<pdfrwt beam="1">  1        2 0.46292397E+00 0.27498545E+04</pdfrwt>
<pdfrwt beam="2">  1       -2 0.96654715E-01 0.27498545E+04</pdfrwt>
<totfact> 0.13435371E+00</totfact>
</mgrwt>
</event>
<event>
12    2  0.3518828E-008  0.2508463E+04  0.7818608E-02  0.8399977E-01
         -1   -1    0    0    0  501 -0.00000000000E+00  0.00000000000E+00  0.11984210994E+04  0.11984210994E+04  0.00000000000E+00 0.  1.
          1   -1    0    0  501    0  0.00000000000E+00 -0.00000000000E+00 -0.13126406914E+04  0.13126406914E+04  0.00000000000E+00 0. -1.
         23    2    1    2    0    0 -0.66961786777E+03 -0.62047331620E+02  0.80543840758E+03  0.10533391428E+04  0.92489789230E+02 0.  0.
        254    2    1    2    0    0  0.66961786777E+03  0.62047331620E+02 -0.91965799956E+03  0.14577226481E+04  0.90936600020E+03 0.  0.
         23    2    4    4    0    0  0.80276853531E+03  0.11298320780E+03 -0.39535868978E+03  0.90665674041E+03  0.92279059520E+02 0.  0.
         23    2    4    4    0    0 -0.13315066754E+03 -0.50935876176E+02 -0.52429930978E+03  0.55106590764E+03  0.91979914011E+02 0.  0.
          2    1    3    3  502    0 -0.66652638902E+03 -0.66088576467E+02  0.80626602614E+03  0.10481841594E+04  0.00000000000E+00 0.  1.
         -2    1    3    3    0  502 -0.30914787566E+01  0.40412448471E+01 -0.82761855613E+00  0.51549833454E+01  0.00000000000E+00 0. -1.
         11    1    5    5    0    0  0.13034098686E+03  0.53223351601E+02 -0.71985418669E+02  0.15812462968E+03  0.00000000000E+00 0. -1.
        -11    1    5    5    0    0  0.67242754845E+03  0.59759856195E+02 -0.32337327111E+03  0.74853211073E+03  0.00000000000E+00 0.  1.
          3    1    6    6  503    0 -0.12629829950E+02 -0.46613131245E+02 -0.12727401327E+03  0.13612850936E+03  0.00000000000E+00 0. -1.
         -3    1    6    6    0  503 -0.12052083759E+03 -0.43227449308E+01 -0.39702529652E+03  0.41493739828E+03  0.00000000000E+00 0.  1.
<mgrwt>
<rscale>  0 0.25084627E+04</rscale>
<asrwt>0</asrwt>
<pdfrwt beam="1">  1        1 0.20194472E+00 0.25084627E+04</pdfrwt>
<pdfrwt beam="2">  1       -1 0.18437248E+00 0.25084627E+04</pdfrwt>
<totfact> 0.15231380E+00</totfact>
</mgrwt>
</event>
<event>
12    2  0.3518828E-008  0.1949495E+04  0.7818608E-02  0.8630604E-01
          2   -1    0    0  501    0  0.00000000000E+00  0.00000000000E+00  0.16824762021E+04  0.16824762021E+04  0.00000000000E+00 0. -1.
         -2   -1    0    0    0  501 -0.00000000000E+00 -0.00000000000E+00 -0.56472271488E+03  0.56472271488E+03  0.00000000000E+00 0.  1.
         23    2    1    2    0    0 -0.47098596732E+03 -0.59925497567E+03  0.46656441410E+03  0.89878615108E+03  0.95916034077E+02 0.  0.
        254    2    1    2    0    0  0.47098596732E+03  0.59925497567E+03  0.65118907317E+03  0.13484127659E+04  0.90179569253E+03 0.  0.
         23    2    4    4    0    0 -0.10554026437E+03  0.58016688295E+03  0.30918300690E+03  0.67197122515E+03  0.90657797207E+02 0.  0.
         23    2    4    4    0    0  0.57652623169E+03  0.19088092718E+02  0.34200606627E+03  0.67644154079E+03  0.88646249925E+02 0.  0.
          4    1    3    3  502    0 -0.23146657131E+03 -0.22296128132E+03  0.17573989468E+03  0.36629635159E+03  0.00000000000E+00 0.  1.
         -4    1    3    3    0  502 -0.23951939601E+03 -0.37629369435E+03  0.29082451942E+03  0.53248979950E+03  0.00000000000E+00 0. -1.
         11    1    5    5    0    0  0.10059280589E+02  0.52892798366E+02  0.48753539048E+02  0.72634322566E+02  0.00000000000E+00 0.  1.
        -11    1    5    5    0    0 -0.11559954496E+03  0.52727408459E+03  0.26042946785E+03  0.59933690258E+03  0.00000000000E+00 0. -1.
          1    1    6    6  503    0  0.47100397935E+03  0.42083060606E+02  0.30293939350E+03  0.56159416725E+03  0.00000000000E+00 0. -1.
         -1    1    6    6    0  503  0.10552225234E+03 -0.22994967889E+02  0.39066672769E+02  0.11484737354E+03  0.00000000000E+00 0.  1.
<mgrwt>
<rscale>  0 0.19494948E+04</rscale>
<asrwt>0</asrwt>
<pdfrwt beam="1">  1        2 0.25884249E+00 0.19494948E+04</pdfrwt>
<pdfrwt beam="2">  1       -2 0.86880418E-01 0.19494948E+04</pdfrwt>
<totfact> 0.10723420E+01</totfact>
</mgrwt>
</event>
<event>
12    2  0.3518828E-008  0.1911737E+04  0.7818608E-02  0.8649036E-01
          2   -1    0    0  501    0  0.00000000000E+00  0.00000000000E+00  0.19793041813E+04  0.19793041813E+04  0.00000000000E+00 0.  1.
         -2   -1    0    0    0  501 -0.00000000000E+00 -0.00000000000E+00 -0.46161894134E+03  0.46161894134E+03  0.00000000000E+00 0. -1.
         23    2    1    2    0    0 -0.68988701109E+03 -0.25191634513E+03  0.77172571288E+03  0.10691557495E+04  0.90152691028E+02 0.  0.
        254    2    1    2    0    0  0.68988701109E+03  0.25191634513E+03  0.74595952711E+03  0.13717673732E+04  0.88650108689E+03 0.  0.
         23    2    4    4    0    0 -0.90898016805E+02  0.20645764394E+03 -0.53615016829E+02  0.24961255008E+03  0.92437259405E+02 0.  0.
         23    2    4    4    0    0  0.78078502789E+03  0.45458701188E+02  0.79957454394E+03  0.11221548231E+04  0.90665552589E+02 0.  0.
          3    1    3    3  502    0 -0.29539209822E+03 -0.11591043403E+03  0.27051064304E+03  0.41697449371E+03  0.00000000000E+00 0.  1.
         -3    1    3    3    0  502 -0.39449491287E+03 -0.13600591110E+03  0.50121506984E+03  0.65218125576E+03  0.00000000000E+00 0. -1.
         11    1    5    5    0    0 -0.42953364146E+02  0.95567875870E+02  0.22037541852E+02  0.10706943374E+03  0.00000000000E+00 0. -1.
        -11    1    5    5    0    0 -0.47944652658E+02  0.11088976807E+03 -0.75652558681E+02  0.14254311634E+03  0.00000000000E+00 0.  1.
          3    1    6    6  503    0  0.26784882385E+03 -0.27173489645E+02  0.26644731147E+03  0.37878167956E+03  0.00000000000E+00 0. -1.
         -3    1    6    6    0  503  0.51293620404E+03  0.72632190833E+02  0.53312723247E+03  0.74337314355E+03  0.00000000000E+00 0.  1.
<mgrwt>
<rscale>  0 0.19117367E+04</rscale>
<asrwt>0</asrwt>
<pdfrwt beam="1">  1        2 0.30450833E+00 0.19117367E+04</pdfrwt>
<pdfrwt beam="2">  1       -2 0.71018300E-01 0.19117367E+04</pdfrwt>
<totfact> 0.11560934E+01</totfact>
</mgrwt>
</event>
<event>
12    2  0.3518828E-008  0.1702480E+04  0.7818608E-02  0.8759951E-01
          2   -1    0    0  501    0  0.00000000000E+00  0.00000000000E+00  0.20899942834E+04  0.20899942834E+04  0.00000000000E+00 0. -1.
         -2   -1    0    0    0  501 -0.00000000000E+00 -0.00000000000E+00 -0.34670422617E+03  0.34670422617E+03  0.00000000000E+00 0.  1.
         23    2    1    2    0    0  0.33378031060E+03 -0.51299375551E+03  0.68918672774E+03  0.92645631498E+03  0.93653985128E+02 0.  0.
        254    2    1    2    0    0 -0.33378031060E+03  0.51299375551E+03  0.10541033295E+04  0.15102421946E+04  0.89169824950E+03 0.  0.
         23    2    4    4    0    0 -0.61465268629E+03  0.32102402005E+03  0.86277582134E+03  0.11107515226E+04  0.92371428438E+02 0.  0.
         23    2    4    4    0    0  0.28087237569E+03  0.19196973547E+03  0.19132750818E+03  0.39949067205E+03  0.85117042381E+02 0.  0.
          4    1    3    3  502    0  0.10576897181E+03 -0.14562916850E+03  0.14319805016E+03  0.23000132975E+03  0.00000000000E+00 0. -1.
         -4    1    3    3    0  502  0.22801133878E+03 -0.36736458702E+03  0.54598867758E+03  0.69645498523E+03  0.00000000000E+00 0.  1.
         11    1    5    5    0    0 -0.52039937222E+03  0.30322281586E+03  0.76681332391E+03  0.97507038535E+03  0.00000000000E+00 0. -1.
        -11    1    5    5    0    0 -0.94253314074E+02  0.17801204192E+02  0.95962497430E+02  0.13568113722E+03  0.00000000000E+00 0.  1.
          4    1    6    6  503    0  0.26804079893E+03  0.19147286836E+03  0.16118426155E+03  0.36672618583E+03  0.00000000000E+00 0. -1.
         -4    1    6    6    0  503  0.12831576768E+02  0.49686710820E+00  0.30143246632E+02  0.32764486213E+02  0.00000000000E+00 0.  1.
<mgrwt>
<rscale>  0 0.17024804E+04</rscale>
<asrwt>0</asrwt>
<pdfrwt beam="1">  1        2 0.32153757E+00 0.17024804E+04</pdfrwt>
<pdfrwt beam="2">  1       -2 0.53339113E-01 0.17024804E+04</pdfrwt>
<totfact> 0.18766296E+01</totfact>
</mgrwt>
</event>
<event>
12    2  0.3518828E-008  0.1788390E+04  0.7818608E-02  0.8712498E-01
         -2   -1    0    0    0  501 -0.00000000000E+00  0.00000000000E+00  0.24781313511E+03  0.24781313511E+03  0.00000000000E+00 0. -1.
          2   -1    0    0  501    0  0.00000000000E+00 -0.00000000000E+00 -0.32265622881E+04  0.32265622881E+04  0.00000000000E+00 0.  1.
         23    2    1    2    0    0  0.39298956723E+03 -0.47657696763E+03 -0.15160402719E+04  0.16394841283E+04  0.89239535973E+02 0.  0.
        254    2    1    2    0    0 -0.39298956723E+03  0.47657696763E+03 -0.14627088811E+04  0.18348912949E+04  0.91964253239E+03 0.  0.
         23    2    4    4    0    0 -0.20840683977E+03 -0.25512815439E+03 -0.54235089005E+03  0.64113053665E+03  0.91542837335E+02 0.  0.
         23    2    4    4    0    0 -0.18458272746E+03  0.73170512202E+03 -0.92035799103E+03  0.11937607583E+04  0.92426984564E+02 0.  0.
          1    1    3    3  502    0  0.30294296083E+03 -0.40702558305E+03 -0.11719861649E+04  0.12771044724E+04  0.00000000000E+00 0. -1.
         -1    1    3    3    0  502  0.90046606407E+02 -0.69551384581E+02 -0.34405410704E+03  0.36237965588E+03  0.00000000000E+00 0.  1.
         11    1    5    5    0    0 -0.78101188263E+01 -0.46758463135E+02 -0.12197137400E+03  0.13086010815E+03  0.00000000000E+00 0.  1.
        -11    1    5    5    0    0 -0.20059672094E+03 -0.20836969125E+03 -0.42037951605E+03  0.51027042850E+03  0.00000000000E+00 0. -1.
          2    1    6    6  503    0 -0.12357832562E+03  0.59041667892E+03 -0.77486738193E+03  0.98197908169E+03  0.00000000000E+00 0.  1.
         -2    1    6    6    0  503 -0.61004401846E+02  0.14128844310E+03 -0.14549060910E+03  0.21178167658E+03  0.00000000000E+00 0. -1.
<mgrwt>
<rscale>  0 0.17883898E+04</rscale>
<asrwt>0</asrwt>
<pdfrwt beam="1">  1        2 0.49639418E+00 0.17883898E+04</pdfrwt>
<pdfrwt beam="2">  1       -2 0.38125099E-01 0.17883898E+04</pdfrwt>
<totfact> 0.76908196E+00</totfact>
</mgrwt>
</event>
<event>
12    2  0.3518828E-008  0.1914632E+04  0.7818608E-02  0.8647607E-01
         -1   -1    0    0    0  501 -0.00000000000E+00  0.00000000000E+00  0.95044678364E+03  0.95044678364E+03  0.00000000000E+00 0.  1.
          1   -1    0    0  501    0  0.00000000000E+00 -0.00000000000E+00 -0.96423445326E+03  0.96423445326E+03  0.00000000000E+00 0. -1.
         23    2    1    2    0    0 -0.66301384693E+03  0.30437822863E+03 -0.13849995890E+03  0.74857322824E+03  0.94584206549E+02 0.  0.
        254    2    1    2    0    0  0.66301384693E+03 -0.30437822863E+03  0.12471228927E+03  0.11661080087E+04  0.90112222560E+03 0.  0.
         23    2    4    4    0    0  0.63351144282E+03 -0.37332626580E+03 -0.24240784361E+03  0.77966998763E+03  0.91730464122E+02 0.  0.
         23    2    4    4    0    0  0.29502404111E+02  0.68948037170E+02  0.36712013288E+03  0.38643802103E+03  0.94514170643E+02 0.  0.
          4    1    3    3  502    0 -0.43174881267E+03  0.21283145095E+03 -0.47382138701E+02  0.48368308924E+03  0.00000000000E+00 0. -1.
         -4    1    3    3    0  502 -0.23126503427E+03  0.91546777675E+02 -0.91117820197E+02  0.26489013899E+03  0.00000000000E+00 0.  1.
         11    1    5    5    0    0  0.37497530325E+03 -0.27124609341E+03 -0.14118216315E+03  0.48385258543E+03  0.00000000000E+00 0.  1.
        -11    1    5    5    0    0  0.25853613957E+03 -0.10208017239E+03 -0.10122568046E+03  0.29581740220E+03  0.00000000000E+00 0. -1.
          2    1    6    6  503    0  0.14963512998E+02  0.90755471321E+02  0.24902023066E+03  0.26546475769E+03  0.00000000000E+00 0. -1.
         -2    1    6    6    0  503  0.14538891113E+02 -0.21807434150E+02  0.11809990222E+03  0.12097326334E+03  0.00000000000E+00 0.  1.
<mgrwt>
<rscale>  0 0.19146316E+04</rscale>
<asrwt>0</asrwt>
<pdfrwt beam="1">  1        1 0.14834376E+00 0.19146316E+04</pdfrwt>
<pdfrwt beam="2">  1       -1 0.14622258E+00 0.19146316E+04</pdfrwt>
<totfact> 0.56379937E+00</totfact>
</mgrwt>
</event>
<event>
12    2  0.3518828E-008  0.1311924E+04  0.7818608E-02  0.9020162E-01
          1   -1    0    0  501    0  0.00000000000E+00  0.00000000000E+00  0.74998690345E+03  0.74998690345E+03  0.00000000000E+00 0. -1.
         -1   -1    0    0    0  501 -0.00000000000E+00 -0.00000000000E+00 -0.57372520421E+03  0.57372520421E+03  0.00000000000E+00 0.  1.
         23    2    1    2    0    0 -0.14214460280E+03 -0.20047677415E+03  0.27081580194E+03  0.37719405092E+03  0.92401993444E+02 0.  0.
        254    2    1    2    0    0  0.14214460280E+03  0.20047677415E+03 -0.94554102708E+02  0.94651805673E+03  0.90915341296E+03 0.  0.
         23    2    4    4    0    0  0.25544105353E+03  0.21679419897E+02  0.35125384775E+03  0.44422304340E+03  0.90745345106E+02 0.  0.
         23    2    4    4    0    0 -0.11329645073E+03  0.17879735425E+03 -0.44580795046E+03  0.50229501333E+03  0.93546630557E+02 0.  0.
          2    1    3    3  502    0 -0.13823986681E+03 -0.12611160553E+03  0.20788019160E+03  0.27969371085E+03  0.00000000000E+00 0. -1.
         -2    1    3    3    0  502 -0.39047359897E+01 -0.74365168618E+02  0.62935610338E+02  0.97500340078E+02  0.00000000000E+00 0.  1.
         11    1    5    5    0    0  0.17977667093E+03  0.36996841259E+02  0.29954725544E+03  0.35130752328E+03  0.00000000000E+00 0.  1.
        -11    1    5    5    0    0  0.75664382600E+02 -0.15317421362E+02  0.51706592311E+02  0.92915520124E+02  0.00000000000E+00 0. -1.
          1    1    6    6  503    0 -0.61725012826E+02  0.11509261338E+03 -0.16884890745E+03  0.21346250352E+03  0.00000000000E+00 0. -1.
         -1    1    6    6    0  503 -0.51571437900E+02  0.63704740869E+02 -0.27695904301E+03  0.28883250981E+03  0.00000000000E+00 0.  1.
<mgrwt>
<rscale>  0 0.13119244E+04</rscale>
<asrwt>0</asrwt>
<pdfrwt beam="1">  1        1 0.11538260E+00 0.13119244E+04</pdfrwt>
<pdfrwt beam="2">  1       -1 0.88265415E-01 0.13119244E+04</pdfrwt>
<totfact> 0.30330378E+01</totfact>
</mgrwt>
</event>
<event>
12    2  0.3518828E-008  0.1185930E+04  0.7818608E-02  0.9125262E-01
          1   -1    0    0  501    0  0.00000000000E+00  0.00000000000E+00  0.24275075527E+04  0.24275075527E+04  0.00000000000E+00 0. -1.
         -1   -1    0    0    0  501 -0.00000000000E+00 -0.00000000000E+00 -0.14484305920E+03  0.14484305920E+03  0.00000000000E+00 0.  1.
         23    2    1    2    0    0  0.23118958721E+03  0.55896416457E+02  0.47894520548E+03  0.53774924626E+03  0.56680749722E+02 0.  0.
        254    2    1    2    0    0 -0.23118958721E+03 -0.55896416457E+02  0.18037192880E+04  0.20346013657E+04  0.91083830206E+03 0.  0.
         23    2    4    4    0    0 -0.45415955014E+02 -0.46441515020E+03  0.79410966156E+03  0.92549887013E+03  0.90520513238E+02 0.  0.
         23    2    4    4    0    0 -0.18577363220E+03  0.40851873374E+03  0.10096096265E+04  0.11091024955E+04  0.96939927209E+02 0.  0.
          2    1    3    3  502    0  0.18968594526E+03  0.30445457104E+02  0.41561086170E+03  0.45786468749E+03  0.00000000000E+00 0. -1.
         -2    1    3    3    0  502  0.41503641949E+02  0.25450959353E+02  0.63334343780E+02  0.79884558765E+02  0.00000000000E+00 0.  1.
         11    1    5    5    0    0 -0.22355055449E+02 -0.29521502740E+02  0.38841291778E+02  0.53664826238E+02  0.00000000000E+00 0.  1.
        -11    1    5    5    0    0 -0.23060899565E+02 -0.43489364746E+03  0.75526836978E+03  0.87183404389E+03  0.00000000000E+00 0. -1.
          2    1    6    6  503    0 -0.15596552149E+03  0.34314489210E+03  0.74517199421E+03  0.83507781782E+03  0.00000000000E+00 0. -1.
         -2    1    6    6    0  503 -0.29808110708E+02  0.65373841646E+02  0.26443763227E+03  0.27402467772E+03  0.00000000000E+00 0.  1.
<mgrwt>
<rscale>  0 0.11859302E+04</rscale>
<asrwt>0</asrwt>
<pdfrwt beam="1">  1        1 0.37346267E+00 0.11859302E+04</pdfrwt>
<pdfrwt beam="2">  1       -1 0.22283549E-01 0.11859302E+04</pdfrwt>
<totfact> 0.25831968E+01</totfact>
</mgrwt>
</event>
<event>
12    2  0.3518828E-008  0.1820707E+04  0.7818608E-02  0.8695364E-01
         -1   -1    0    0    0  501 -0.00000000000E+00  0.00000000000E+00  0.15389267896E+04  0.15389267896E+04  0.00000000000E+00 0.  1.
          1   -1    0    0  501    0  0.00000000000E+00 -0.00000000000E+00 -0.53852064006E+03  0.53852064006E+03  0.00000000000E+00 0. -1.
         23    2    1    2    0    0 -0.41844632428E+03 -0.37607763832E+03 -0.70142887958E+02  0.57413430391E+03  0.90434826540E+02 0.  0.
        254    2    1    2    0    0  0.41844632428E+03  0.37607763832E+03  0.10705490375E+04  0.15033131257E+04  0.89294086925E+03 0.  0.
         23    2    4    4    0    0  0.26463821549E+03 -0.21810831007E+03  0.68825425972E+03  0.77443786749E+03  0.91953600012E+02 0.  0.
         23    2    4    4    0    0  0.15380810879E+03  0.59418594839E+03  0.38229477777E+03  0.72887525824E+03  0.91629522435E+02 0.  0.
          2    1    3    3  502    0 -0.57959828664E+02 -0.87063059527E+02  0.10476792664E+02  0.10511461010E+03  0.00000000000E+00 0.  1.
         -2    1    3    3    0  502 -0.36048649562E+03 -0.28901457879E+03 -0.80619680622E+02  0.46901969381E+03  0.00000000000E+00 0. -1.
         11    1    5    5    0    0  0.67838508666E+02 -0.89248978147E+02  0.30266009179E+03  0.32275466615E+03  0.00000000000E+00 0. -1.
        -11    1    5    5    0    0  0.19679970682E+03 -0.12885933192E+03  0.38559416793E+03  0.45168320134E+03  0.00000000000E+00 0.  1.
          3    1    6    6  503    0  0.26815227634E+02  0.31708717252E+02  0.43215105430E+02  0.59933667668E+02  0.00000000000E+00 0. -1.
         -3    1    6    6    0  503  0.12699288116E+03  0.56247723113E+03  0.33907967234E+03  0.66894159058E+03  0.00000000000E+00 0.  1.
<mgrwt>
<rscale>  0 0.18207074E+04</rscale>
<asrwt>0</asrwt>
<pdfrwt beam="1">  1        1 0.82849330E-01 0.18207074E+04</pdfrwt>
<pdfrwt beam="2">  1       -1 0.23675797E+00 0.18207074E+04</pdfrwt>
<totfact> 0.32054764E+00</totfact>
</mgrwt>
</event>
<event>
12    2  0.3518828E-008  0.1574180E+04  0.7818608E-02  0.8836569E-01
          2   -1    0    0  501    0  0.00000000000E+00  0.00000000000E+00  0.14530343156E+04  0.14530343156E+04  0.00000000000E+00 0. -1.
         -2   -1    0    0    0  501 -0.00000000000E+00 -0.00000000000E+00 -0.42635668886E+03  0.42635668886E+03  0.00000000000E+00 0.  1.
         23    2    1    2    0    0  0.34979904592E+03 -0.34807042387E+03  0.56333302723E+03  0.75456639615E+03  0.92271090486E+02 0.  0.
        254    2    1    2    0    0 -0.34979904592E+03  0.34807042387E+03  0.46334459947E+03  0.11248246083E+04  0.89834836729E+03 0.  0.
         23    2    4    4    0    0 -0.34083251658E+03  0.54818153746E+03  0.58320779046E+03  0.87474625449E+03  0.91541687318E+02 0.  0.
         23    2    4    4    0    0 -0.89665293353E+01 -0.20011111359E+03 -0.11986319099E+03  0.25007835377E+03  0.89705864022E+02 0.  0.
          1    1    3    3  502    0  0.19951099740E+03 -0.21313556172E+03  0.26491051214E+03  0.39421946324E+03  0.00000000000E+00 0. -1.
         -1    1    3    3    0  502  0.15028804852E+03 -0.13493486215E+03  0.29842251509E+03  0.36034693292E+03  0.00000000000E+00 0.  1.
         11    1    5    5    0    0 -0.21588932345E+03  0.38786221234E+03  0.34918656409E+03  0.56478009196E+03  0.00000000000E+00 0. -1.
        -11    1    5    5    0    0 -0.12494319313E+03  0.16031932512E+03  0.23402122637E+03  0.30996616253E+03  0.00000000000E+00 0.  1.
          3    1    6    6  503    0 -0.22050327424E+02 -0.16147497035E+03 -0.52306699076E+02  0.17116183499E+03  0.00000000000E+00 0. -1.
         -3    1    6    6    0  503  0.13083798089E+02 -0.38636143244E+02 -0.67556491914E+02  0.78916518783E+02  0.00000000000E+00 0.  1.
<mgrwt>
<rscale>  0 0.15741803E+04</rscale>
<asrwt>0</asrwt>
<pdfrwt beam="1">  1        2 0.22354374E+00 0.15741803E+04</pdfrwt>
<pdfrwt beam="2">  1       -2 0.65593338E-01 0.15741803E+04</pdfrwt>
<totfact> 0.27759030E+01</totfact>
</mgrwt>
</event>
<event>
12    2  0.3518828E-008  0.1976303E+04  0.7818608E-02  0.8617780E-01
          2   -1    0    0  501    0  0.00000000000E+00  0.00000000000E+00  0.20579164369E+04  0.20579164369E+04  0.00000000000E+00 0. -1.
         -2   -1    0    0    0  501 -0.00000000000E+00 -0.00000000000E+00 -0.47448178042E+03  0.47448178042E+03  0.00000000000E+00 0.  1.
         23    2    1    2    0    0 -0.47298289301E+03  0.25022415918E+03  0.13534573464E+04  0.14582916383E+04  0.91884530611E+02 0.  0.
        254    2    1    2    0    0  0.47298289301E+03 -0.25022415918E+03  0.22997731009E+03  0.10741065790E+04  0.90249123706E+03 0.  0.
         23    2    4    4    0    0 -0.22403391140E+03 -0.23190921403E+03  0.14855863069E+03  0.36650446984E+03  0.91009794277E+02 0.  0.
         23    2    4    4    0    0  0.69701680441E+03 -0.18314945147E+02  0.81418679393E+02  0.70760210915E+03  0.88903771974E+02 0.  0.
          1    1    3    3  502    0 -0.45337788090E+03  0.21771385870E+03  0.12865772030E+04  0.13813876091E+04  0.00000000000E+00 0. -1.
         -1    1    3    3    0  502 -0.19605012112E+02  0.32510300473E+02  0.66880143344E+02  0.76904029222E+02  0.00000000000E+00 0.  1.
         11    1    5    5    0    0 -0.21243697571E+01 -0.28045879949E+02 -0.45648642201E+01  0.28494250549E+02  0.00000000000E+00 0.  1.
        -11    1    5    5    0    0 -0.22190954164E+03 -0.20386333408E+03  0.15312349491E+03  0.33801021930E+03  0.00000000000E+00 0. -1.
          1    1    6    6  503    0  0.53950877593E+03 -0.46609955833E+02  0.44321364708E+02  0.54332917339E+03  0.00000000000E+00 0. -1.
         -1    1    6    6    0  503  0.15750802848E+03  0.28295010686E+02  0.37097314684E+02  0.16427293575E+03  0.00000000000E+00 0.  1.
<mgrwt>
<rscale>  0 0.19763035E+04</rscale>
<asrwt>0</asrwt>
<pdfrwt beam="1">  1        2 0.31660252E+00 0.19763035E+04</pdfrwt>
<pdfrwt beam="2">  1       -2 0.72997198E-01 0.19763035E+04</pdfrwt>
<totfact> 0.97880377E+00</totfact>
</mgrwt>
</event>
<event>
12    2  0.3518828E-008  0.1350859E+04  0.7818608E-02  0.8990178E-01
         -2   -1    0    0    0  501 -0.00000000000E+00  0.00000000000E+00  0.12225809874E+04  0.12225809874E+04  0.00000000000E+00 0.  1.
          2   -1    0    0  501    0  0.00000000000E+00 -0.00000000000E+00 -0.37314916889E+03  0.37314916889E+03  0.00000000000E+00 0. -1.
         23    2    1    2    0    0  0.84712607751E+02 -0.27084535012E+03  0.51138582760E+03  0.59219944685E+03  0.93012314150E+02 0.  0.
        254    2    1    2    0    0 -0.84712607751E+02  0.27084535012E+03  0.33804599095E+03  0.10035307095E+04  0.90125765642E+03 0.  0.
         23    2    4    4    0    0 -0.48543187437E+03  0.14567611160E+03  0.17802515514E+03  0.54527779946E+03  0.93644479693E+02 0.  0.
         23    2    4    4    0    0  0.40071926662E+03  0.12516923852E+03  0.16002083581E+03  0.45825291001E+03  0.90254045530E+02 0.  0.
          3    1    3    3  502    0  0.15747211834E+02 -0.37267158889E+02  0.23205892822E+02  0.46640425318E+02  0.00000000000E+00 0. -1.
         -3    1    3    3    0  502  0.68965395918E+02 -0.23357819123E+03  0.48817993478E+03  0.54555902153E+03  0.00000000000E+00 0.  1.
         11    1    5    5    0    0 -0.90636159223E+02  0.66774093541E+02  0.32400207241E+02  0.11714719952E+03  0.00000000000E+00 0. -1.
        -11    1    5    5    0    0 -0.39479571514E+03  0.78902018056E+02  0.14562494790E+03  0.42813059993E+03  0.00000000000E+00 0.  1.
          3    1    6    6  503    0  0.40904775702E+02  0.39600260439E+02  0.47447186744E+01  0.57130496737E+02  0.00000000000E+00 0. -1.
         -3    1    6    6    0  503  0.35981449091E+03  0.85568978081E+02  0.15527611713E+03  0.40112241328E+03  0.00000000000E+00 0.  1.
<mgrwt>
<rscale>  0 0.13508591E+04</rscale>
<asrwt>0</asrwt>
<pdfrwt beam="1">  1        2 0.57407565E-01 0.13508591E+04</pdfrwt>
<pdfrwt beam="2">  1       -2 0.18808938E+00 0.13508591E+04</pdfrwt>
<totfact> 0.13395572E+01</totfact>
</mgrwt>
</event>
<event>
12    2  0.3518828E-008  0.2248687E+04  0.7818608E-02  0.8498432E-01
         -1   -1    0    0    0  501 -0.00000000000E+00  0.00000000000E+00  0.72432109062E+03  0.72432109062E+03  0.00000000000E+00 0.  1.
          1   -1    0    0  501    0  0.00000000000E+00 -0.00000000000E+00 -0.17452873873E+04  0.17452873873E+04  0.00000000000E+00 0. -1.
         23    2    1    2    0    0 -0.13344790448E+03 -0.45801651021E+03  0.46640887588E+03  0.67340803289E+03  0.91398426838E+02 0.  0.
        254    2    1    2    0    0  0.13344790448E+03  0.45801651021E+03 -0.14873751725E+04  0.17962004450E+04  0.88682786828E+03 0.  0.
         23    2    4    4    0    0  0.26091780247E+03  0.52940431747E+03 -0.15059650832E+04  0.16200403499E+04  0.90845321481E+02 0.  0.
         23    2    4    4    0    0 -0.12746989799E+03 -0.71387807269E+02  0.18589910685E+02  0.17616009511E+03  0.96654024276E+02 0.  0.
          2    1    3    3  502    0 -0.60410658333E+02 -0.93962069001E+02  0.13935664268E+03  0.17860176906E+03  0.00000000000E+00 0. -1.
         -2    1    3    3    0  502 -0.73037246143E+02 -0.36405444120E+03  0.32705223320E+03  0.49480626383E+03  0.00000000000E+00 0.  1.
         11    1    5    5    0    0  0.14606244982E+03  0.38564533002E+03 -0.10786725142E+04  0.11548120855E+04  0.00000000000E+00 0. -1.
        -11    1    5    5    0    0  0.11485535265E+03  0.14375898745E+03 -0.42729256902E+03  0.46522826445E+03  0.00000000000E+00 0.  1.
          3    1    6    6  503    0 -0.44291185692E+02 -0.79120993144E+02  0.18894876502E+02  0.92622119626E+02  0.00000000000E+00 0. -1.
         -3    1    6    6    0  503 -0.83178712300E+02  0.77331858747E+01 -0.30496581703E+00  0.83537975483E+02  0.00000000000E+00 0.  1.
<mgrwt>
<rscale>  0 0.22486871E+04</rscale>
<asrwt>0</asrwt>
<pdfrwt beam="1">  1        1 0.26850575E+00 0.22486871E+04</pdfrwt>
<pdfrwt beam="2">  1       -1 0.11143402E+00 0.22486871E+04</pdfrwt>
<totfact> 0.29821512E+00</totfact>
</mgrwt>
</event>
<event>
12    2  0.3518828E-008  0.1400216E+04  0.7818608E-02  0.8953662E-01
          2   -1    0    0  501    0  0.00000000000E+00  0.00000000000E+00  0.10902160132E+04  0.10902160132E+04  0.00000000000E+00 0. -1.
         -2   -1    0    0    0  501 -0.00000000000E+00 -0.00000000000E+00 -0.44959094189E+03  0.44959094189E+03  0.00000000000E+00 0.  1.
         23    2    1    2    0    0  0.18465729452E+03  0.14700102232E+03  0.53447307024E+03  0.59122948253E+03  0.90461158597E+02 0.  0.
        254    2    1    2    0    0 -0.18465729452E+03 -0.14700102232E+03  0.10615200104E+03  0.94857747254E+03  0.91259156094E+03 0.  0.
         23    2    4    4    0    0 -0.45998247759E+03 -0.28249930103E+03  0.24506602164E+03  0.59962887018E+03  0.90042724412E+02 0.  0.
         23    2    4    4    0    0  0.27532518307E+03  0.13549827871E+03 -0.13891402060E+03  0.34894860236E+03  0.91127833326E+02 0.  0.
          1    1    3    3  502    0  0.42654412737E+02  0.57951050876E+02  0.25863452258E+03  0.26845770522E+03  0.00000000000E+00 0. -1.
         -1    1    3    3    0  502  0.14200288178E+03  0.89049971446E+02  0.27583854767E+03  0.32277177731E+03  0.00000000000E+00 0.  1.
         11    1    5    5    0    0 -0.12014321545E+03 -0.51634264677E+02  0.97405541332E+02  0.16305928060E+03  0.00000000000E+00 0. -1.
        -11    1    5    5    0    0 -0.33983926213E+03 -0.23086503636E+03  0.14766048030E+03  0.43656958958E+03  0.00000000000E+00 0.  1.
          4    1    6    6  503    0 -0.39943724534E+01 -0.47767545914E+01 -0.78444475552E+01  0.10015375838E+02  0.00000000000E+00 0. -1.
         -4    1    6    6    0  503  0.27931955552E+03  0.14027503330E+03 -0.13106957304E+03  0.33893322652E+03  0.00000000000E+00 0.  1.
<mgrwt>
<rscale>  0 0.14002160E+04</rscale>
<asrwt>0</asrwt>
<pdfrwt beam="1">  1        2 0.16772554E+00 0.14002160E+04</pdfrwt>
<pdfrwt beam="2">  1       -2 0.69167838E-01 0.14002160E+04</pdfrwt>
<totfact> 0.41034907E+01</totfact>
</mgrwt>
</event>
<event>
12    2  0.3518828E-008  0.2007518E+04  0.7818608E-02  0.8603114E-01
         -2   -1    0    0    0  501 -0.00000000000E+00  0.00000000000E+00  0.90226381219E+03  0.90226381219E+03  0.00000000000E+00 0.  1.
          2   -1    0    0  501    0  0.00000000000E+00 -0.00000000000E+00 -0.11166710070E+04  0.11166710070E+04  0.00000000000E+00 0. -1.
         23    2    1    2    0    0  0.69725233558E+03 -0.11590774108E+03 -0.45992632345E+03  0.84793627988E+03  0.88703369820E+02 0.  0.
        254    2    1    2    0    0 -0.69725233558E+03  0.11590774108E+03  0.24551912864E+03  0.11709985393E+04  0.90075663338E+03 0.  0.
         23    2    4    4    0    0 -0.66428661006E+03  0.99566992791E+02 -0.20483025242E+03  0.70797479482E+03  0.89903233776E+02 0.  0.
         23    2    4    4    0    0 -0.32965725526E+02  0.16340748290E+02  0.45034938106E+03  0.46302374447E+03  0.10110718969E+03 0.  0.
          1    1    3    3  502    0  0.20549188296E+03 -0.11396800187E+02 -0.17444529334E+03  0.26979244131E+03  0.00000000000E+00 0. -1.
         -1    1    3    3    0  502  0.49176045262E+03 -0.10451094089E+03 -0.28548103011E+03  0.57814383857E+03  0.00000000000E+00 0.  1.
         11    1    5    5    0    0 -0.60006784366E+03  0.99883514561E+02 -0.15804154461E+03  0.62851830785E+03  0.00000000000E+00 0. -1.
        -11    1    5    5    0    0 -0.64218766393E+02 -0.31652177032E+00 -0.46788707817E+02  0.79456486974E+02  0.00000000000E+00 0.  1.
          1    1    6    6  503    0  0.31563819937E+02  0.27184780186E+02  0.19744446943E+03  0.20179099462E+03  0.00000000000E+00 0. -1.
         -1    1    6    6    0  503 -0.64529545463E+02 -0.10844031896E+02  0.25290491163E+03  0.26123274985E+03  0.00000000000E+00 0.  1.
<mgrwt>
<rscale>  0 0.20075177E+04</rscale>
<asrwt>0</asrwt>
<pdfrwt beam="1">  1        2 0.17179554E+00 0.20075177E+04</pdfrwt>
<pdfrwt beam="2">  1       -2 0.13880982E+00 0.20075177E+04</pdfrwt>
<totfact> 0.72549605E+00</totfact>
</mgrwt>
</event>
<event>
12    2  0.3518828E-008  0.1231133E+04  0.7818608E-02  0.9086034E-01
          2   -1    0    0  501    0  0.00000000000E+00  0.00000000000E+00  0.34913815896E+04  0.34913815896E+04  0.00000000000E+00 0. -1.
         -2   -1    0    0    0  501 -0.00000000000E+00 -0.00000000000E+00 -0.10853067243E+03  0.10853067243E+03  0.00000000000E+00 0.  1.
         23    2    1    2    0    0  0.23706126867E+03  0.83872123443E+02  0.10021766802E+04  0.10372314322E+04  0.90875560922E+02 0.  0.
        254    2    1    2    0    0 -0.23706126867E+03 -0.83872123443E+02  0.23806742371E+04  0.25626808298E+04  0.91459861933E+03 0.  0.
         23    2    4    4    0    0 -0.11925113352E+03 -0.19633987844E+03  0.86445159429E+02  0.26121775045E+03  0.89396682550E+02 0.  0.
         23    2    4    4    0    0 -0.11781013515E+03  0.11246775500E+03  0.22942290776E+04  0.23014630794E+04  0.81957435973E+02 0.  0.
          3    1    3    3  502    0  0.10897152603E+02  0.25436646916E+02  0.53664576229E+02  0.60379281902E+02  0.00000000000E+00 0. -1.
         -3    1    3    3    0  502  0.22616411607E+03  0.58435476527E+02  0.94851210392E+03  0.97685215033E+03  0.00000000000E+00 0.  1.
         11    1    5    5    0    0 -0.12755496310E+03 -0.14358117196E+03  0.77314628942E+02  0.20703471545E+03  0.00000000000E+00 0.  1.
        -11    1    5    5    0    0  0.83038295778E+01 -0.52758706486E+02  0.91305304867E+01  0.54183035008E+02  0.00000000000E+00 0. -1.
          3    1    6    6  503    0 -0.56443577102E+02  0.92603056327E+02  0.17630057743E+04  0.17663381793E+04  0.00000000000E+00 0. -1.
         -3    1    6    6    0  503 -0.61366558048E+02  0.19864698673E+02  0.53122330337E+03  0.53512490013E+03  0.00000000000E+00 0.  1.
<mgrwt>
<rscale>  0 0.12311328E+04</rscale>
<asrwt>0</asrwt>
<pdfrwt beam="1">  1        2 0.53713554E+00 0.12311328E+04</pdfrwt>
<pdfrwt beam="2">  1       -2 0.16697029E-01 0.12311328E+04</pdfrwt>
<totfact> 0.24316744E+01</totfact>
</mgrwt>
</event>
<event>
12    2  0.3518828E-008  0.1340470E+04  0.7818608E-02  0.8998073E-01
         -1   -1    0    0    0  501 -0.00000000000E+00  0.00000000000E+00  0.50245784709E+03  0.50245784709E+03  0.00000000000E+00 0.  1.
          1   -1    0    0  501    0  0.00000000000E+00 -0.00000000000E+00 -0.89403563842E+03  0.89403563842E+03  0.00000000000E+00 0. -1.
         23    2    1    2    0    0  0.79411972908E+02 -0.16480044108E+03 -0.42230106727E+03  0.47164266904E+03  0.10316573571E+03 0.  0.
        254    2    1    2    0    0 -0.79411972908E+02  0.16480044108E+03  0.30723275938E+02  0.92485081647E+03  0.90605720913E+03 0.  0.
         23    2    4    4    0    0  0.25595384789E+03 -0.16951634686E+03 -0.21298688164E+03  0.38501681169E+03  0.92878250575E+02 0.  0.
         23    2    4    4    0    0 -0.33536582080E+03  0.33431678794E+03  0.24371015758E+03  0.53983400478E+03  0.88250571422E+02 0.  0.
          3    1    3    3  502    0  0.40781145148E+02 -0.13385380408E+03 -0.38506970031E+03  0.40970552445E+03  0.00000000000E+00 0. -1.
         -3    1    3    3    0  502  0.38630827760E+02 -0.30946636993E+02 -0.37231366957E+02  0.61937144591E+02  0.00000000000E+00 0.  1.
         11    1    5    5    0    0  0.76230326351E+02 -0.55185770054E+02 -0.12025002841E+03  0.15269774460E+03  0.00000000000E+00 0. -1.
        -11    1    5    5    0    0  0.17972352154E+03 -0.11433057681E+03 -0.92736853225E+02  0.23231906709E+03  0.00000000000E+00 0.  1.
          3    1    6    6  503    0 -0.63188442123E+01  0.36296946348E+02  0.27888885137E+02  0.46208073110E+02  0.00000000000E+00 0. -1.
         -3    1    6    6    0  503 -0.32904697658E+03  0.29801984159E+03  0.21582127244E+03  0.49362593167E+03  0.00000000000E+00 0.  1.
<mgrwt>
<rscale>  0 0.13404704E+04</rscale>
<asrwt>0</asrwt>
<pdfrwt beam="1">  1        1 0.13754394E+00 0.13404704E+04</pdfrwt>
<pdfrwt beam="2">  1       -1 0.77301209E-01 0.13404704E+04</pdfrwt>
<totfact> 0.30254247E+01</totfact>
</mgrwt>
</event>
<event>
12    2  0.3518828E-008  0.1569515E+04  0.7818608E-02  0.8839498E-01
         -1   -1    0    0    0  501 -0.00000000000E+00  0.00000000000E+00  0.31696043369E+03  0.31696043369E+03  0.00000000000E+00 0.  1.
          1   -1    0    0  501    0  0.00000000000E+00 -0.00000000000E+00 -0.19429701188E+04  0.19429701188E+04  0.00000000000E+00 0. -1.
         23    2    1    2    0    0  0.23655736305E+03  0.33618248111E+03 -0.91083176845E+03  0.10023723190E+04  0.78471070370E+02 0.  0.
        254    2    1    2    0    0 -0.23655736305E+03 -0.33618248111E+03 -0.71517791667E+03  0.12575582335E+04  0.94920767565E+03 0.  0.
         23    2    4    4    0    0 -0.31571842280E+03  0.25037903521E+03 -0.42090560120E+03  0.58946279351E+03  0.89090269042E+02 0.  0.
         23    2    4    4    0    0  0.79161059757E+02 -0.58656151632E+03 -0.29427231547E+03  0.66809543999E+03  0.97131022205E+02 0.  0.
          1    1    3    3  502    0  0.16866935841E+03  0.27556029225E+03 -0.76558240598E+03  0.83096284363E+03  0.00000000000E+00 0. -1.
         -1    1    3    3    0  502  0.67888004638E+02  0.60622188858E+02 -0.14524936247E+03  0.17140947539E+03  0.00000000000E+00 0.  1.
         11    1    5    5    0    0 -0.28011353126E+03  0.21341713403E+03 -0.40282411415E+03  0.53504927851E+03  0.00000000000E+00 0. -1.
        -11    1    5    5    0    0 -0.35604891549E+02  0.36961901175E+02 -0.18081487051E+02  0.54413515000E+02  0.00000000000E+00 0.  1.
          2    1    6    6  503    0  0.93462280511E+02 -0.53447357275E+03 -0.24636875828E+03  0.59589828235E+03  0.00000000000E+00 0. -1.
         -2    1    6    6    0  503 -0.14301220754E+02 -0.52087943564E+02 -0.47903557188E+02  0.72197157638E+02  0.00000000000E+00 0.  1.
<mgrwt>
<rscale>  0 0.15695154E+04</rscale>
<asrwt>0</asrwt>
<pdfrwt beam="1">  1        1 0.29891847E+00 0.15695154E+04</pdfrwt>
<pdfrwt beam="2">  1       -1 0.48763145E-01 0.15695154E+04</pdfrwt>
<totfact> 0.13197227E+01</totfact>
</mgrwt>
</event>
<event>
12    2  0.3518828E-008  0.1355165E+04  0.7818608E-02  0.8986928E-01
         -1   -1    0    0    0  501 -0.00000000000E+00  0.00000000000E+00  0.41890248430E+03  0.41890248430E+03  0.00000000000E+00 0.  1.
          1   -1    0    0  501    0  0.00000000000E+00 -0.00000000000E+00 -0.10960015731E+04  0.10960015731E+04  0.00000000000E+00 0. -1.
         23    2    1    2    0    0  0.50527388848E+02 -0.42893297945E+02  0.21619863366E+03  0.24342684087E+03  0.90121726711E+02 0.  0.
        254    2    1    2    0    0 -0.50527388848E+02  0.42893297945E+02 -0.89329772245E+03  0.12714772165E+04  0.90237499920E+03 0.  0.
         23    2    4    4    0    0  0.79017862684E+02  0.10916814015E+02 -0.10432075124E+04  0.10504079813E+04  0.93338168439E+02 0.  0.
         23    2    4    4    0    0 -0.12954525153E+03  0.31976483930E+02  0.14990979000E+03  0.22106923523E+03  0.92704875312E+02 0.  0.
          1    1    3    3  502    0  0.34637978061E+02 -0.19276298688E+02  0.18597778003E+02  0.43786328482E+02  0.00000000000E+00 0. -1.
         -1    1    3    3    0  502  0.15889410787E+02 -0.23616999257E+02  0.19760085566E+03  0.19964051238E+03  0.00000000000E+00 0.  1.
         11    1    5    5    0    0  0.12049338037E+02 -0.32411039464E+02 -0.16491726798E+03  0.16850331541E+03  0.00000000000E+00 0. -1.
        -11    1    5    5    0    0  0.66968524647E+02  0.43327853479E+02 -0.87829024447E+03  0.88190466589E+03  0.00000000000E+00 0.  1.
          3    1    6    6  503    0 -0.50411500528E+02  0.56896248344E+02  0.49034728063E+02  0.90459421937E+02  0.00000000000E+00 0. -1.
         -3    1    6    6    0  503 -0.79133751004E+02 -0.24919764414E+02  0.10087506194E+03  0.13060981329E+03  0.00000000000E+00 0.  1.
<mgrwt>
<rscale>  0 0.13551646E+04</rscale>
<asrwt>0</asrwt>
<pdfrwt beam="1">  1        1 0.16861562E+00 0.13551646E+04</pdfrwt>
<pdfrwt beam="2">  1       -1 0.64446538E-01 0.13551646E+04</pdfrwt>
<totfact> 0.30499880E+01</totfact>
</mgrwt>
</event>
<event>
12    2  0.3518828E-008  0.2736939E+04  0.7818608E-02  0.8323118E-01
          2   -1    0    0  501    0  0.00000000000E+00  0.00000000000E+00  0.18379778880E+04  0.18379778880E+04  0.00000000000E+00 0.  1.
         -2   -1    0    0    0  501 -0.00000000000E+00 -0.00000000000E+00 -0.10188963744E+04  0.10188963744E+04  0.00000000000E+00 0. -1.
         23    2    1    2    0    0  0.84271411166E+03  0.70542317688E+03 -0.11540414196E+03  0.11088221530E+04  0.91539709900E+02 0.  0.
        254    2    1    2    0    0 -0.84271411166E+03 -0.70542317688E+03  0.93448565558E+03  0.17480521094E+04  0.98723543511E+03 0.  0.
         23    2    4    4    0    0 -0.74166130973E+03 -0.73854129656E+03  0.29238627577E+03  0.10906592805E+04  0.92429361124E+02 0.  0.
         23    2    4    4    0    0 -0.10105280193E+03  0.33118119685E+02  0.64209937980E+03  0.65739282893E+03  0.92548578377E+02 0.  0.
          1    1    3    3  502    0  0.18372165973E+03  0.16507580107E+03 -0.63609792598E+02  0.25504876802E+03  0.00000000000E+00 0. -1.
         -1    1    3    3    0  502  0.65899245193E+03  0.54034737580E+03 -0.51794349360E+02  0.85377338496E+03  0.00000000000E+00 0.  1.
         11    1    5    5    0    0 -0.66723749534E+03 -0.67415815163E+03  0.29130060734E+03  0.99224550009E+03  0.00000000000E+00 0. -1.
        -11    1    5    5    0    0 -0.74423814386E+02 -0.64383144929E+02  0.10856684313E+01  0.98413780410E+02  0.00000000000E+00 0.  1.
          2    1    6    6  503    0 -0.91816379228E+02  0.45716328470E+02  0.62809026350E+03  0.63640993808E+03  0.00000000000E+00 0. -1.
         -2    1    6    6    0  503 -0.92364227038E+01 -0.12598208784E+02  0.14009116301E+02  0.20982890851E+02  0.00000000000E+00 0.  1.
<mgrwt>
<rscale>  0 0.27369392E+04</rscale>
<asrwt>0</asrwt>
<pdfrwt beam="1">  1        2 0.28276583E+00 0.27369392E+04</pdfrwt>
<pdfrwt beam="2">  1       -2 0.15675329E+00 0.27369392E+04</pdfrwt>
<totfact> 0.19149432E+00</totfact>
</mgrwt>
</event>
<event>
12    2  0.3518828E-008  0.1908842E+04  0.7818608E-02  0.8650468E-01
          2   -1    0    0  501    0  0.00000000000E+00  0.00000000000E+00  0.12017570791E+04  0.12017570791E+04  0.00000000000E+00 0. -1.
         -2   -1    0    0    0  501 -0.00000000000E+00 -0.00000000000E+00 -0.75798948353E+03  0.75798948353E+03  0.00000000000E+00 0.  1.
         23    2    1    2    0    0 -0.24353458817E+03  0.53820235880E+03  0.62274881451E+03  0.86307108933E+03  0.90026355098E+02 0.  0.
        254    2    1    2    0    0  0.24353458817E+03 -0.53820235880E+03 -0.17898121893E+03  0.10966754733E+04  0.90647225131E+03 0.  0.
         23    2    4    4    0    0  0.15994840092E+03 -0.68488699817E+03 -0.39099831407E+03  0.81000264276E+03  0.92579201016E+02 0.  0.
         23    2    4    4    0    0  0.83586187249E+02  0.14668463937E+03  0.21201709514E+03  0.28667283055E+03  0.93418568909E+02 0.  0.
          1    1    3    3  502    0 -0.21045347070E+03  0.41882787472E+03  0.53487174088E+03  0.71119282277E+03  0.00000000000E+00 0. -1.
         -1    1    3    3    0  502 -0.33081117464E+02  0.11937448408E+03  0.87877073627E+02  0.15187826655E+03  0.00000000000E+00 0.  1.
         11    1    5    5    0    0  0.41511752878E+02 -0.15109600902E+03 -0.13249094127E+03  0.20520009524E+03  0.00000000000E+00 0.  1.
        -11    1    5    5    0    0  0.11843664804E+03 -0.53379098915E+03 -0.25850737280E+03  0.60480254752E+03  0.00000000000E+00 0. -1.
          1    1    6    6  503    0  0.60637573544E+02  0.13078360871E+03  0.21471992115E+03  0.25862310835E+03  0.00000000000E+00 0. -1.
         -1    1    6    6    0  503  0.22948613705E+02  0.15901030659E+02 -0.27028260117E+01  0.28049722199E+02  0.00000000000E+00 0.  1.
<mgrwt>
<rscale>  0 0.19088418E+04</rscale>
<asrwt>0</asrwt>
<pdfrwt beam="1">  1        2 0.18488570E+00 0.19088418E+04</pdfrwt>
<pdfrwt beam="2">  1       -2 0.11661377E+00 0.19088418E+04</pdfrwt>
<totfact> 0.10079357E+01</totfact>
</mgrwt>
</event>
<event>
12    2  0.3518828E-008  0.1690113E+04  0.7818608E-02  0.8767023E-01
          2   -1    0    0  501    0  0.00000000000E+00  0.00000000000E+00  0.21258864374E+04  0.21258864374E+04  0.00000000000E+00 0. -1.
         -2   -1    0    0    0  501 -0.00000000000E+00 -0.00000000000E+00 -0.33591656399E+03  0.33591656399E+03  0.00000000000E+00 0.  1.
         23    2    1    2    0    0  0.70027310198E+02 -0.57393845792E+03  0.36609731825E+03  0.69047444684E+03  0.91752589367E+02 0.  0.
        254    2    1    2    0    0 -0.70027310198E+02  0.57393845792E+03  0.14238725551E+04  0.17713285545E+04  0.88084199328E+03 0.  0.
         23    2    4    4    0    0 -0.38836823404E+03  0.44561342131E+03  0.49418338057E+03  0.77599602966E+03  0.92473877201E+02 0.  0.
         23    2    4    4    0    0  0.31834092384E+03  0.12832503661E+03  0.92968917458E+03  0.99533252487E+03  0.92501972508E+02 0.  0.
          1    1    3    3  502    0  0.66635199984E+02 -0.25513655102E+03  0.13164301094E+03  0.29472833571E+03  0.00000000000E+00 0. -1.
         -1    1    3    3    0  502  0.33921102136E+01 -0.31880190690E+03  0.23445430731E+03  0.39574611113E+03  0.00000000000E+00 0.  1.
         11    1    5    5    0    0 -0.17152949864E+03  0.22776398531E+03  0.29180681655E+03  0.40798286740E+03  0.00000000000E+00 0.  1.
        -11    1    5    5    0    0 -0.21683873540E+03  0.21784943600E+03  0.20237656401E+03  0.36801316226E+03  0.00000000000E+00 0. -1.
          2    1    6    6  503    0  0.17149084256E+03  0.72614529715E+02  0.63042687377E+03  0.65735836664E+03  0.00000000000E+00 0. -1.
         -2    1    6    6    0  503  0.14685008128E+03  0.55710506900E+02  0.29926230080E+03  0.33797415823E+03  0.00000000000E+00 0.  1.
<mgrwt>
<rscale>  0 0.16901130E+04</rscale>
<asrwt>0</asrwt>
<pdfrwt beam="1">  1        2 0.32705945E+00 0.16901130E+04</pdfrwt>
<pdfrwt beam="2">  1       -2 0.51679472E-01 0.16901130E+04</pdfrwt>
<totfact> 0.19145888E+01</totfact>
</mgrwt>
</event>
<event>
12    2  0.4766805E-008  0.1704722E+04  0.7818608E-02  0.8758676E-01
         -1   -1    0    0    0  501 -0.00000000000E+00  0.00000000000E+00  0.65732497734E+03  0.65732497734E+03  0.00000000000E+00 0.  1.
          1   -1    0    0  501    0  0.00000000000E+00 -0.00000000000E+00 -0.11052660473E+04  0.11052660473E+04  0.00000000000E+00 0. -1.
         23    2    1    2    0    0 -0.28723948458E+03 -0.17223341208E+03  0.36168023724E+03  0.50309512599E+03  0.10060438382E+03 0.  0.
        254    2    1    2    0    0  0.28723948458E+03  0.17223341208E+03 -0.80962130719E+03  0.12594958986E+04  0.90480516570E+03 0.  0.
         23    2    4    4    0    0  0.82898337450E+01 -0.32539136165E+03 -0.50143942026E+03  0.60469184257E+03  0.90898144692E+02 0.  0.
         23    2    4    4    0    0  0.27894965084E+03  0.49762477373E+03 -0.30818188693E+03  0.65480405606E+03  0.91372606759E+02 0.  0.
          1    1    3    3  502    0  0.31495847972E+01 -0.17965939840E+02  0.72630074111E+01  0.19632782671E+02  0.00000000000E+00 0. -1.
         -1    1    3    3    0  502 -0.29038906938E+03 -0.15426747224E+03  0.35441722983E+03  0.48346234332E+03  0.00000000000E+00 0.  1.
         11    1    5    5    0    0 -0.12640766967E+02 -0.30529842497E+03 -0.42932904303E+03  0.52696332365E+03  0.00000000000E+00 0.  1.
        -11    1    5    5    0    0  0.20930600712E+02 -0.20092936672E+02 -0.72110377230E+02  0.77728518927E+02  0.00000000000E+00 0. -1.
          3    1    6    6  503    0  0.49510452831E+02  0.62168572421E+02 -0.12047470717E+02  0.80382572036E+02  0.00000000000E+00 0. -1.
         -3    1    6    6    0  503  0.22943919801E+03  0.43545620131E+03 -0.29613441621E+03  0.57442148402E+03  0.00000000000E+00 0.  1.
<mgrwt>
<rscale>  0 0.17047217E+04</rscale>
<asrwt>0</asrwt>
<pdfrwt beam="1">  1        1 0.17004093E+00 0.17047217E+04</pdfrwt>
<pdfrwt beam="2">  1       -1 0.10112692E+00 0.17047217E+04</pdfrwt>
<totfact> 0.11102630E+01</totfact>
</mgrwt>
</event>
<event>
12    2  0.3518828E-008  0.1932098E+04  0.7818608E-02  0.8639042E-01
         -2   -1    0    0    0  501 -0.00000000000E+00  0.00000000000E+00  0.53506676348E+03  0.53506676348E+03  0.00000000000E+00 0.  1.
          2   -1    0    0  501    0  0.00000000000E+00 -0.00000000000E+00 -0.17441762092E+04  0.17441762092E+04  0.00000000000E+00 0. -1.
         23    2    1    2    0    0  0.63017165574E+03 -0.24557806320E+03 -0.85525243434E+03  0.10941754275E+04  0.91313957716E+02 0.  0.
        254    2    1    2    0    0 -0.63017165574E+03  0.24557806320E+03 -0.35385701135E+03  0.11850675451E+04  0.90650173814E+03 0.  0.
         23    2    4    4    0    0 -0.35924850212E+02  0.47436644268E+03 -0.10708982189E+03  0.49608994320E+03  0.91229847026E+02 0.  0.
         23    2    4    4    0    0 -0.59424680553E+03 -0.22878837949E+03 -0.24676718946E+03  0.68897760194E+03  0.91228842527E+02 0.  0.
          1    1    3    3  502    0  0.47539181899E+03 -0.19396677106E+03 -0.58376772173E+03  0.77743504087E+03  0.00000000000E+00 0. -1.
         -1    1    3    3    0  502  0.15477983675E+03 -0.51611292136E+02 -0.27148471261E+03  0.31674038663E+03  0.00000000000E+00 0.  1.
         11    1    5    5    0    0 -0.62304338211E+02  0.39605710795E+03 -0.77710752717E+02  0.40838954983E+03  0.00000000000E+00 0. -1.
        -11    1    5    5    0    0  0.26379487999E+02  0.78309334731E+02 -0.29379069171E+02  0.87700393376E+02  0.00000000000E+00 0.  1.
          2    1    6    6  503    0 -0.57137217050E+03 -0.21393004122E+03 -0.25382583460E+03  0.66080237142E+03  0.00000000000E+00 0. -1.
         -2    1    6    6    0  503 -0.22874635029E+02 -0.14858338266E+02  0.70586451411E+01  0.28175230521E+02  0.00000000000E+00 0.  1.
<mgrwt>
<rscale>  0 0.19320981E+04</rscale>
<asrwt>0</asrwt>
<pdfrwt beam="1">  1        2 0.26833480E+00 0.19320981E+04</pdfrwt>
<pdfrwt beam="2">  1       -2 0.82317963E-01 0.19320981E+04</pdfrwt>
<totfact> 0.11218690E+01</totfact>
</mgrwt>
</event>
<event>
12    2  0.3518828E-008  0.1674383E+04  0.7818608E-02  0.8776111E-01
          1   -1    0    0  501    0  0.00000000000E+00  0.00000000000E+00  0.19676143923E+04  0.19676143923E+04  0.00000000000E+00 0. -1.
         -1   -1    0    0    0  501 -0.00000000000E+00 -0.00000000000E+00 -0.35621294849E+03  0.35621294849E+03  0.00000000000E+00 0.  1.
         23    2    1    2    0    0 -0.36493437406E+03 -0.30997594287E+03  0.15741275836E+03  0.51240504727E+03  0.92292867778E+02 0.  0.
        254    2    1    2    0    0  0.36493437406E+03  0.30997594287E+03  0.14539886854E+04  0.18114222935E+04  0.96845518507E+03 0.  0.
         23    2    4    4    0    0 -0.19634117988E+03  0.19170610697E+03  0.52354475215E+02  0.29419548124E+03  0.92243697563E+02 0.  0.
         23    2    4    4    0    0  0.56127555394E+03  0.11826983591E+03  0.14016342102E+04  0.15172268123E+04  0.91546376540E+02 0.  0.
          2    1    3    3  502    0 -0.49148075722E+00  0.19099385631E+01  0.10571656623E+02  0.10754038423E+02  0.00000000000E+00 0. -1.
         -2    1    3    3    0  502 -0.36444289330E+03 -0.31188588144E+03  0.14684110174E+03  0.50165100885E+03  0.00000000000E+00 0.  1.
         11    1    5    5    0    0 -0.10474609639E+01  0.41962925902E+02 -0.25391709969E+01  0.42052725406E+02  0.00000000000E+00 0.  1.
        -11    1    5    5    0    0 -0.19529371892E+03  0.14974318106E+03  0.54893646212E+02  0.25214275583E+03  0.00000000000E+00 0. -1.
          3    1    6    6  503    0  0.41166181330E+03  0.44635234734E+02  0.10065680794E+04  0.10884103322E+04  0.00000000000E+00 0. -1.
         -3    1    6    6    0  503  0.14961374064E+03  0.73634601175E+02  0.39506613078E+03  0.42881648006E+03  0.00000000000E+00 0.  1.
<mgrwt>
<rscale>  0 0.16743831E+04</rscale>
<asrwt>0</asrwt>
<pdfrwt beam="1">  1        1 0.30270990E+00 0.16743831E+04</pdfrwt>
<pdfrwt beam="2">  1       -1 0.54801993E-01 0.16743831E+04</pdfrwt>
<totfact> 0.10060726E+01</totfact>
</mgrwt>
</event>
<event>
12    2  0.3518828E-008  0.1353040E+04  0.7818608E-02  0.8988530E-01
          2   -1    0    0  501    0  0.00000000000E+00  0.00000000000E+00  0.19065873241E+04  0.19065873241E+04  0.00000000000E+00 0. -1.
         -2   -1    0    0    0  501 -0.00000000000E+00 -0.00000000000E+00 -0.24005166200E+03  0.24005166200E+03  0.00000000000E+00 0.  1.
         23    2    1    2    0    0  0.56471772777E+02  0.14337696641E+03  0.96717827401E+03  0.98325471903E+03  0.87235389449E+02 0.  0.
        254    2    1    2    0    0 -0.56471772777E+02 -0.14337696641E+03  0.69935738809E+03  0.11633842671E+04  0.91685123165E+03 0.  0.
         23    2    4    4    0    0  0.44186856637E+02 -0.10576072499E+03  0.90383316085E+03  0.91567489273E+03  0.91696877163E+02 0.  0.
         23    2    4    4    0    0 -0.10065862941E+03 -0.37616241419E+02 -0.20447577276E+03  0.24770937434E+03  0.89456420651E+02 0.  0.
          3    1    3    3  502    0  0.54070032209E+02  0.54296515053E+02  0.27902389358E+03  0.28935447658E+03  0.00000000000E+00 0. -1.
         -3    1    3    3    0  502  0.24017405679E+01  0.89080451359E+02  0.68815438043E+03  0.69390024245E+03  0.00000000000E+00 0.  1.
         11    1    5    5    0    0  0.58430199577E+02 -0.34045332094E+02  0.56564865570E+03  0.56967672812E+03  0.00000000000E+00 0. -1.
        -11    1    5    5    0    0 -0.14243342940E+02 -0.71715392898E+02  0.33818450515E+03  0.34599816462E+03  0.00000000000E+00 0.  1.
          2    1    6    6  503    0 -0.20870474665E+02 -0.41644707706E+02 -0.28915856850E+02  0.54826865403E+02  0.00000000000E+00 0. -1.
         -2    1    6    6    0  503 -0.79788154749E+02  0.40284662863E+01 -0.17555991591E+03  0.19288250893E+03  0.00000000000E+00 0.  1.
<mgrwt>
<rscale>  0 0.13530402E+04</rscale>
<asrwt>0</asrwt>
<pdfrwt beam="1">  1        2 0.29332112E+00 0.13530402E+04</pdfrwt>
<pdfrwt beam="2">  1       -2 0.36931026E-01 0.13530402E+04</pdfrwt>
<totfact> 0.50820171E+01</totfact>
</mgrwt>
</event>
<event>
12    2  0.3518828E-008  0.1578194E+04  0.7818608E-02  0.8834058E-01
          2   -1    0    0  501    0  0.00000000000E+00  0.00000000000E+00  0.12278829788E+04  0.12278829788E+04  0.00000000000E+00 0.  1.
         -2   -1    0    0    0  501 -0.00000000000E+00 -0.00000000000E+00 -0.50711162574E+03  0.50711162574E+03  0.00000000000E+00 0. -1.
         23    2    1    2    0    0 -0.34601662052E+03 -0.24207980065E+03  0.59462111381E+03  0.73454935240E+03  0.87512002369E+02 0.  0.
        254    2    1    2    0    0  0.34601662052E+03  0.24207980065E+03  0.12615023920E+03  0.10004452521E+04  0.89813511681E+03 0.  0.
         23    2    4    4    0    0  0.49789929591E+03  0.21433677291E+03  0.39508503765E+03  0.67701824443E+03  0.91747235540E+02 0.  0.
         23    2    4    4    0    0 -0.15188267538E+03  0.27743027739E+02 -0.26893479844E+03  0.32342700767E+03  0.91875354735E+02 0.  0.
          1    1    3    3  502    0 -0.20202212112E+02 -0.47408543325E+02  0.78334105760E+02  0.93765299976E+02  0.00000000000E+00 0. -1.
         -1    1    3    3    0  502 -0.32581440841E+03 -0.19467125733E+03  0.51628700805E+03  0.64078405243E+03  0.00000000000E+00 0.  1.
         11    1    5    5    0    0  0.46300477727E+03  0.21390299936E+03  0.34416061529E+03  0.61528403687E+03  0.00000000000E+00 0. -1.
        -11    1    5    5    0    0  0.34894518636E+02  0.43377355547E+00  0.50924422363E+02  0.61734207562E+02  0.00000000000E+00 0.  1.
          1    1    6    6  503    0 -0.11353974098E+03  0.56238790633E+02 -0.22649258696E+03  0.25952450039E+03  0.00000000000E+00 0.  1.
         -1    1    6    6    0  503 -0.38342934401E+02 -0.28495762894E+02 -0.42442211484E+02  0.63902507283E+02  0.00000000000E+00 0. -1.
<mgrwt>
<rscale>  0 0.15781936E+04</rscale>
<asrwt>0</asrwt>
<pdfrwt beam="1">  1        2 0.18890507E+00 0.15781936E+04</pdfrwt>
<pdfrwt beam="2">  1       -2 0.78017173E-01 0.15781936E+04</pdfrwt>
<totfact> 0.25609413E+01</totfact>
</mgrwt>
</event>
<event>
12    2  0.3518828E-008  0.1792827E+04  0.7818608E-02  0.8710123E-01
          1   -1    0    0  501    0  0.00000000000E+00  0.00000000000E+00  0.13637693344E+04  0.13637693344E+04  0.00000000000E+00 0. -1.
         -1   -1    0    0    0  501 -0.00000000000E+00 -0.00000000000E+00 -0.58921770004E+03  0.58921770004E+03  0.00000000000E+00 0.  1.
         23    2    1    2    0    0  0.13436980753E+02 -0.60461531776E+03 -0.66136321573E+02  0.61542925300E+03  0.92945777180E+02 0.  0.
        254    2    1    2    0    0 -0.13436980753E+02  0.60461531776E+03  0.84068795590E+03  0.13375577814E+04  0.84650123714E+03 0.  0.
         23    2    4    4    0    0  0.14313245501E+03  0.13885179175E+03 -0.12263566865E+03  0.25312699269E+03  0.96265505021E+02 0.  0.
         23    2    4    4    0    0 -0.15656943576E+03  0.46576352602E+03  0.96332362456E+03  0.10844307887E+04  0.80920204531E+02 0.  0.
          2    1    3    3  502    0 -0.15343967196E+02 -0.18288558019E+03  0.18061247822E+02  0.18441469964E+03  0.00000000000E+00 0. -1.
         -2    1    3    3    0  502  0.28780947949E+02 -0.42172973757E+03 -0.84197569395E+02  0.43101455336E+03  0.00000000000E+00 0.  1.
         11    1    5    5    0    0  0.63852249149E+02  0.10443308221E+03 -0.29188739446E+02  0.12583863036E+03  0.00000000000E+00 0.  1.
        -11    1    5    5    0    0  0.79280205856E+02  0.34418709539E+02 -0.93446929207E+02  0.12728836233E+03  0.00000000000E+00 0. -1.
          2    1    6    6  503    0 -0.36367743348E+01  0.11478360311E+02  0.66147460432E+02  0.67234406404E+02  0.00000000000E+00 0.  1.
         -2    1    6    6    0  503 -0.15293266142E+03  0.45428516570E+03  0.89717616412E+03  0.10171963823E+04  0.00000000000E+00 0. -1.
<mgrwt>
<rscale>  0 0.17928269E+04</rscale>
<asrwt>0</asrwt>
<pdfrwt beam="1">  1        1 0.20981067E+00 0.17928269E+04</pdfrwt>
<pdfrwt beam="2">  1       -1 0.90648877E-01 0.17928269E+04</pdfrwt>
<totfact> 0.91470358E+00</totfact>
</mgrwt>
</event>
<event>
12    2  0.3518828E-008  0.1495914E+04  0.7818608E-02  0.8887174E-01
          2   -1    0    0  501    0  0.00000000000E+00  0.00000000000E+00  0.12963542668E+04  0.12963542668E+04  0.00000000000E+00 0. -1.
         -2   -1    0    0    0  501 -0.00000000000E+00 -0.00000000000E+00 -0.43154855995E+03  0.43154855995E+03  0.00000000000E+00 0.  1.
         23    2    1    2    0    0  0.96332800041E+02  0.41560385946E+03  0.45776972772E+03  0.63219908681E+03  0.90088763905E+02 0.  0.
        254    2    1    2    0    0 -0.96332800041E+02 -0.41560385946E+03  0.40703597907E+03  0.10957037399E+04  0.92351601015E+03 0.  0.
         23    2    4    4    0    0  0.82636167104E+02  0.17234620929E+03  0.42492011437E+03  0.47419782601E+03  0.88173253444E+02 0.  0.
         23    2    4    4    0    0 -0.17896896715E+03 -0.58795006875E+03 -0.17884135299E+02  0.62150591389E+03  0.90744609560E+02 0.  0.
          3    1    3    3  502    0  0.50804196340E+02  0.22838623810E+03  0.18514863917E+03  0.29836447293E+03  0.00000000000E+00 0. -1.
         -3    1    3    3    0  502  0.45528603702E+02  0.18721762136E+03  0.27262108855E+03  0.33383461388E+03  0.00000000000E+00 0.  1.
         11    1    5    5    0    0  0.91960052375E+02  0.17550599061E+03  0.38394253359E+03  0.43205424784E+03  0.00000000000E+00 0. -1.
        -11    1    5    5    0    0 -0.93238852712E+01 -0.31597813196E+01  0.40977580779E+02  0.42143578171E+02  0.00000000000E+00 0.  1.
          3    1    6    6  503    0 -0.12218044105E+03 -0.25302867023E+03 -0.21271979243E+02  0.28178726947E+03  0.00000000000E+00 0. -1.
         -3    1    6    6    0  503 -0.56788526092E+02 -0.33492139851E+03  0.33878439442E+01  0.33971864442E+03  0.00000000000E+00 0.  1.
<mgrwt>
<rscale>  0 0.14959142E+04</rscale>
<asrwt>0</asrwt>
<pdfrwt beam="1">  1        2 0.19943912E+00 0.14959142E+04</pdfrwt>
<pdfrwt beam="2">  1       -2 0.66392087E-01 0.14959142E+04</pdfrwt>
<totfact> 0.33486198E+01</totfact>
</mgrwt>
</event>
<event>
12    2  0.3518828E-008  0.1543398E+04  0.7818608E-02  0.8856096E-01
         -2   -1    0    0    0  501 -0.00000000000E+00  0.00000000000E+00  0.19810818962E+03  0.19810818962E+03  0.00000000000E+00 0.  1.
          2   -1    0    0  501    0  0.00000000000E+00 -0.00000000000E+00 -0.30060295602E+04  0.30060295602E+04  0.00000000000E+00 0. -1.
         23    2    1    2    0    0 -0.10348756186E+01  0.28413173457E+03 -0.17949357060E+04  0.18197392257E+04  0.94470880284E+02 0.  0.
        254    2    1    2    0    0  0.10348756186E+01 -0.28413173457E+03 -0.10129856645E+04  0.13843985241E+04  0.89982631849E+03 0.  0.
         23    2    4    4    0    0  0.78284812240E+02 -0.51980292738E+03 -0.27616385126E+03  0.60093273388E+03  0.92358447212E+02 0.  0.
         23    2    4    4    0    0 -0.77249936621E+02  0.23567119281E+03 -0.73682181326E+03  0.78346579022E+03  0.96973172117E+02 0.  0.
          3    1    3    3  502    0 -0.11728729133E+02  0.27373225814E+03 -0.17665722856E+04  0.17876925218E+04  0.00000000000E+00 0. -1.
         -3    1    3    3    0  502  0.10693853514E+02  0.10399476427E+02 -0.28363420452E+02  0.32046703929E+02  0.00000000000E+00 0.  1.
         11    1    5    5    0    0  0.52927640458E+02 -0.45667470604E+03 -0.26869285648E+03  0.53249316746E+03  0.00000000000E+00 0. -1.
        -11    1    5    5    0    0  0.25357171782E+02 -0.63128221336E+02 -0.74709947795E+01  0.68439566428E+02  0.00000000000E+00 0.  1.
          3    1    6    6  503    0 -0.54157213266E+02  0.19900363565E+03 -0.68770939738E+03  0.71796912607E+03  0.00000000000E+00 0. -1.
         -3    1    6    6    0  503 -0.23092723355E+02  0.36667557160E+02 -0.49112415888E+02  0.65496664147E+02  0.00000000000E+00 0.  1.
<mgrwt>
<rscale>  0 0.15433976E+04</rscale>
<asrwt>0</asrwt>
<pdfrwt beam="1">  1        2 0.46246605E+00 0.15433976E+04</pdfrwt>
<pdfrwt beam="2">  1       -2 0.30478185E-01 0.15433976E+04</pdfrwt>
<totfact> 0.16661056E+01</totfact>
</mgrwt>
</event>
<event>
12    2  0.3518828E-008  0.1119825E+04  0.7818608E-02  0.9186082E-01
         -2   -1    0    0    0  501 -0.00000000000E+00  0.00000000000E+00  0.95961325999E+02  0.95961325999E+02  0.00000000000E+00 0.  1.
          2   -1    0    0  501    0  0.00000000000E+00 -0.00000000000E+00 -0.32669624900E+04  0.32669624900E+04  0.00000000000E+00 0. -1.
         23    2    1    2    0    0  0.10596134187E+03 -0.17533148853E+03 -0.10184151572E+04  0.10427000240E+04  0.89916465473E+02 0.  0.
        254    2    1    2    0    0 -0.10596134187E+03  0.17533148853E+03 -0.21525860068E+04  0.23202237920E+04  0.84133405465E+03 0.  0.
         23    2    4    4    0    0  0.17013407609E+03  0.43481901177E+03 -0.11490429656E+04  0.12436888095E+04  0.91918121725E+02 0.  0.
         23    2    4    4    0    0 -0.27609541796E+03 -0.25948752324E+03 -0.10035430412E+04  0.10765349826E+04  0.90920177216E+02 0.  0.
          4    1    3    3  502    0  0.10203806890E+03 -0.14591578701E+03 -0.96766655236E+03  0.98391144976E+03  0.00000000000E+00 0. -1.
         -4    1    3    3    0  502  0.39232729661E+01 -0.29415701524E+02 -0.50748604850E+02  0.58788574240E+02  0.00000000000E+00 0.  1.
         11    1    5    5    0    0  0.45721060071E+02  0.14505888108E+03 -0.27137298137E+03  0.31108807327E+03  0.00000000000E+00 0.  1.
        -11    1    5    5    0    0  0.12441301602E+03  0.28976013068E+03 -0.87766998424E+03  0.93260073618E+03  0.00000000000E+00 0. -1.
          2    1    6    6  503    0 -0.16191453463E+03 -0.15630327282E+03 -0.46767410842E+03  0.51900491452E+03  0.00000000000E+00 0. -1.
         -2    1    6    6    0  503 -0.11418088333E+03 -0.10318425041E+03 -0.53586893279E+03  0.55753006805E+03  0.00000000000E+00 0.  1.
<mgrwt>
<rscale>  0 0.11198251E+04</rscale>
<asrwt>0</asrwt>
<pdfrwt beam="1">  1        2 0.50260963E+00 0.11198251E+04</pdfrwt>
<pdfrwt beam="2">  1       -2 0.14763281E-01 0.11198251E+04</pdfrwt>
<totfact> 0.42943550E+01</totfact>
</mgrwt>
</event>
<event>
12    2  0.3518828E-008  0.1624890E+04  0.7818608E-02  0.8805402E-01
          2   -1    0    0  501    0  0.00000000000E+00  0.00000000000E+00  0.19828943417E+03  0.19828943417E+03  0.00000000000E+00 0. -1.
         -2   -1    0    0    0  501 -0.00000000000E+00 -0.00000000000E+00 -0.33288035951E+04  0.33288035951E+04  0.00000000000E+00 0.  1.
         23    2    1    2    0    0 -0.15031605349E+03  0.51486296989E+03 -0.14177811912E+04  0.15190296802E+04  0.98330409807E+02 0.  0.
        254    2    1    2    0    0  0.15031605349E+03 -0.51486296989E+03 -0.17127329698E+04  0.20080633491E+04  0.90065831180E+03 0.  0.
         23    2    4    4    0    0  0.33314917858E+03  0.59717849361E+02 -0.27140121741E+03  0.44330903274E+03  0.91157451605E+02 0.  0.
         23    2    4    4    0    0 -0.18283312509E+03 -0.57458081925E+03 -0.14413317523E+04  0.15647543164E+04  0.86300525727E+02 0.  0.
          1    1    3    3  502    0 -0.20781719255E+01  0.16417744672E+03 -0.40169935806E+03  0.43395959152E+03  0.00000000000E+00 0. -1.
         -1    1    3    3    0  502 -0.14823788156E+03  0.35068552317E+03 -0.10160818331E+04  0.10850700887E+04  0.00000000000E+00 0.  1.
         11    1    5    5    0    0  0.80036992286E+02 -0.12547748181E+01 -0.11325877939E+03  0.13869046724E+03  0.00000000000E+00 0. -1.
        -11    1    5    5    0    0  0.25311218629E+03  0.60972624179E+02 -0.15814243802E+03  0.30461856551E+03  0.00000000000E+00 0.  1.
          2    1    6    6  503    0 -0.51043483708E+02 -0.19482434972E+03 -0.58676128537E+03  0.62036341807E+03  0.00000000000E+00 0.  1.
         -2    1    6    6    0  503 -0.13178964139E+03 -0.37975646953E+03 -0.85457046698E+03  0.94439089828E+03  0.00000000000E+00 0. -1.
<mgrwt>
<rscale>  0 0.16248896E+04</rscale>
<asrwt>0</asrwt>
<pdfrwt beam="1">  1        2 0.30506070E-01 0.16248896E+04</pdfrwt>
<pdfrwt beam="2">  1       -2 0.51212358E+00 0.16248896E+04</pdfrwt>
<totfact> 0.23215786E-01</totfact>
</mgrwt>
</event>
<event>
12    2  0.3518828E-008  0.1844516E+04  0.7818608E-02  0.8682978E-01
         -2   -1    0    0    0  501 -0.00000000000E+00  0.00000000000E+00  0.54347903998E+03  0.54347903998E+03  0.00000000000E+00 0.  1.
          2   -1    0    0  501    0  0.00000000000E+00 -0.00000000000E+00 -0.15650277553E+04  0.15650277553E+04  0.00000000000E+00 0. -1.
         23    2    1    2    0    0 -0.34035514803E+03  0.70529068480E+02 -0.10809009441E+04  0.11390408485E+04  0.90836266259E+02 0.  0.
        254    2    1    2    0    0  0.34035514803E+03 -0.70529068480E+02  0.59352228767E+02  0.96946594681E+03  0.90306453738E+03 0.  0.
         23    2    4    4    0    0  0.23262164136E+03 -0.22346648217E+03 -0.36545117807E+03  0.49573724059E+03  0.90281512368E+02 0.  0.
         23    2    4    4    0    0  0.10773350667E+03  0.15293741369E+03  0.42480340684E+03  0.47372870622E+03  0.94681527591E+02 0.  0.
          2    1    3    3  502    0 -0.31545779790E+03  0.59098378625E+02 -0.10489573107E+04  0.10969583767E+04  0.00000000000E+00 0. -1.
         -2    1    3    3    0  502 -0.24897350123E+02  0.11430689856E+02 -0.31943633398E+02  0.42082471748E+02  0.00000000000E+00 0.  1.
         11    1    5    5    0    0  0.58826309287E+02 -0.10508024785E+03 -0.17225539529E+03  0.21017686447E+03  0.00000000000E+00 0.  1.
        -11    1    5    5    0    0  0.17379533207E+03 -0.11838623432E+03 -0.19319578278E+03  0.28556037612E+03  0.00000000000E+00 0. -1.
          3    1    6    6  503    0  0.33321107897E+01  0.58857336353E+02  0.20092849459E+03  0.20939806337E+03  0.00000000000E+00 0. -1.
         -3    1    6    6    0  503  0.10440139588E+03  0.94080077339E+02  0.22387491224E+03  0.26433064284E+03  0.00000000000E+00 0.  1.
<mgrwt>
<rscale>  0 0.18445160E+04</rscale>
<asrwt>0</asrwt>
<pdfrwt beam="1">  1        2 0.24077350E+00 0.18445160E+04</pdfrwt>
<pdfrwt beam="2">  1       -2 0.83612161E-01 0.18445160E+04</pdfrwt>
<totfact> 0.13728864E+01</totfact>
</mgrwt>
</event>
<event>
12    2  0.3518828E-008  0.1158363E+04  0.7818608E-02  0.9150103E-01
         -1   -1    0    0    0  501 -0.00000000000E+00  0.00000000000E+00  0.48201791387E+03  0.48201791387E+03  0.00000000000E+00 0.  1.
          1   -1    0    0  501    0  0.00000000000E+00 -0.00000000000E+00 -0.69593048367E+03  0.69593048367E+03  0.00000000000E+00 0. -1.
         23    2    1    2    0    0  0.18962653238E+03 -0.49539933739E+02 -0.59691716438E+02  0.23433621996E+03  0.11374504893E+03 0.  0.
        254    2    1    2    0    0 -0.18962653238E+03  0.49539933739E+02 -0.15422085336E+03  0.94361217759E+03  0.91005903285E+03 0.  0.
         23    2    4    4    0    0 -0.43215342595E+03 -0.73744593794E+02  0.19765912333E+03  0.48980250573E+03  0.92965138169E+02 0.  0.
         23    2    4    4    0    0  0.24252689357E+03  0.12328452753E+03 -0.35187997669E+03  0.45380967186E+03  0.90029614265E+02 0.  0.
          4    1    3    3  502    0  0.64869897678E+02 -0.74246921364E+02 -0.36051208591E+02  0.10497808627E+03  0.00000000000E+00 0. -1.
         -4    1    3    3    0  502  0.12475663470E+03  0.24706987625E+02 -0.23640507847E+02  0.12935813369E+03  0.00000000000E+00 0.  1.
         11    1    5    5    0    0 -0.43533723847E+03 -0.78179419412E+02  0.19735669748E+03  0.48433480038E+03  0.00000000000E+00 0. -1.
        -11    1    5    5    0    0  0.31838125215E+01  0.44348256183E+01  0.30242584653E+00  0.54677053532E+01  0.00000000000E+00 0.  1.
          2    1    6    6  503    0  0.23437962739E+03  0.90172632168E+02 -0.29421536867E+03  0.38681726498E+03  0.00000000000E+00 0. -1.
         -2    1    6    6    0  503  0.81472661762E+01  0.33111895364E+02 -0.57664608019E+02  0.66992406874E+02  0.00000000000E+00 0.  1.
<mgrwt>
<rscale>  0 0.11583626E+04</rscale>
<asrwt>0</asrwt>
<pdfrwt beam="1">  1        1 0.10706623E+00 0.11583626E+04</pdfrwt>
<pdfrwt beam="2">  1       -1 0.74156602E-01 0.11583626E+04</pdfrwt>
<totfact> 0.49969881E+01</totfact>
</mgrwt>
</event>
<event>
12    2  0.3518828E-008  0.2160837E+04  0.7818608E-02  0.8534908E-01
          2   -1    0    0  501    0  0.00000000000E+00  0.00000000000E+00  0.24981343158E+04  0.24981343158E+04  0.00000000000E+00 0. -1.
         -2   -1    0    0    0  501 -0.00000000000E+00 -0.00000000000E+00 -0.46727044653E+03  0.46727044653E+03  0.00000000000E+00 0.  1.
         23    2    1    2    0    0  0.71383680477E+03  0.41289561708E+03  0.12995039383E+04  0.15418380537E+04  0.92240575544E+02 0.  0.
        254    2    1    2    0    0 -0.71383680477E+03 -0.41289561708E+03  0.73135993103E+03  0.14235667087E+04  0.90089347366E+03 0.  0.
         23    2    4    4    0    0 -0.69436401543E+03  0.86119275120E+02  0.34907873161E+03  0.78705284301E+03  0.89656574495E+02 0.  0.
         23    2    4    4    0    0 -0.19472789342E+02 -0.49901489220E+03  0.38228119942E+03  0.63651386567E+03  0.98060866780E+02 0.  0.
          3    1    3    3  502    0  0.62577637850E+03  0.35582557178E+03  0.10716925283E+04  0.12910200574E+04  0.00000000000E+00 0. -1.
         -3    1    3    3    0  502  0.88060426272E+02  0.57070045305E+02  0.22781140996E+03  0.25081799628E+03  0.00000000000E+00 0.  1.
         11    1    5    5    0    0 -0.25790083963E+03  0.63897307947E+02  0.16553983535E+03  0.31304815306E+03  0.00000000000E+00 0.  1.
        -11    1    5    5    0    0 -0.43646317580E+03  0.22221967172E+02  0.18353889627E+03  0.47400468995E+03  0.00000000000E+00 0. -1.
          3    1    6    6  503    0 -0.24629730987E+02 -0.83528814041E+02  0.10754488101E+03  0.13838203588E+03  0.00000000000E+00 0. -1.
         -3    1    6    6    0  503  0.51569416450E+01 -0.41548607816E+03  0.27473631841E+03  0.49813182979E+03  0.00000000000E+00 0.  1.
<mgrwt>
<rscale>  0 0.21608372E+04</rscale>
<asrwt>0</asrwt>
<pdfrwt beam="1">  1        2 0.38432835E+00 0.21608372E+04</pdfrwt>
<pdfrwt beam="2">  1       -2 0.71887762E-01 0.21608372E+04</pdfrwt>
<totfact> 0.56124721E+00</totfact>
</mgrwt>
</event>
<event>
12    2  0.3518828E-008  0.3179032E+04  0.7818608E-02  0.8194377E-01
         -2   -1    0    0    0  501 -0.00000000000E+00  0.00000000000E+00  0.16846317951E+04  0.16846317951E+04  0.00000000000E+00 0.  1.
          2   -1    0    0  501    0  0.00000000000E+00 -0.00000000000E+00 -0.14997705718E+04  0.14997705718E+04  0.00000000000E+00 0. -1.
         23    2    1    2    0    0 -0.33837768263E+03  0.11469601390E+04  0.93217041763E+03  0.15189640340E+04  0.91066089340E+02 0.  0.
        254    2    1    2    0    0  0.33837768263E+03 -0.11469601390E+04 -0.74730919428E+03  0.16654383329E+04  0.88611330676E+03 0.  0.
         23    2    4    4    0    0 -0.24290603404E+02 -0.91414728916E+03 -0.80338197718E+03  0.12206354714E+04  0.90956325585E+02 0.  0.
         23    2    4    4    0    0  0.36266828603E+03 -0.23281284981E+03  0.56072782898E+02  0.44480286149E+03  0.94738164838E+02 0.  0.
          4    1    3    3  502    0 -0.16157964759E+02  0.14757745528E+02  0.13024943342E+02  0.25466056374E+02  0.00000000000E+00 0. -1.
         -4    1    3    3    0  502 -0.32221971787E+03  0.11322023934E+04  0.91914547429E+03  0.14934979776E+04  0.00000000000E+00 0.  1.
         11    1    5    5    0    0 -0.53568034030E+02 -0.76785065049E+03 -0.67837378889E+03  0.10259898407E+04  0.00000000000E+00 0. -1.
        -11    1    5    5    0    0  0.29277430626E+02 -0.14629663867E+03 -0.12500818828E+03  0.19464563075E+03  0.00000000000E+00 0.  1.
          2    1    6    6  503    0  0.91778269794E+02 -0.70849341861E+02  0.56973539303E+02  0.12918538706E+03  0.00000000000E+00 0.  1.
         -2    1    6    6    0  503  0.27089001624E+03 -0.16196350795E+03 -0.90075640434E+00  0.31561747443E+03  0.00000000000E+00 0. -1.
<mgrwt>
<rscale>  0 0.31790320E+04</rscale>
<asrwt>0</asrwt>
<pdfrwt beam="1">  1        2 0.23073393E+00 0.31790320E+04</pdfrwt>
<pdfrwt beam="2">  1       -2 0.25917412E+00 0.31790320E+04</pdfrwt>
<totfact> 0.60458003E-01</totfact>
</mgrwt>
</event>
<event>
12    2  0.3518828E-008  0.1098057E+04  0.7818608E-02  0.9207088E-01
         -2   -1    0    0    0  501 -0.00000000000E+00  0.00000000000E+00  0.12285614263E+03  0.12285614263E+03  0.00000000000E+00 0. -1.
          2   -1    0    0  501    0  0.00000000000E+00 -0.00000000000E+00 -0.24535374556E+04  0.24535374556E+04  0.00000000000E+00 0.  1.
         23    2    1    2    0    0  0.38079482179E+02  0.14614306902E+03 -0.20152661575E+03  0.26961007022E+03  0.96274448968E+02 0.  0.
        254    2    1    2    0    0 -0.38079482179E+02 -0.14614306902E+03 -0.21291546972E+04  0.23067835280E+04  0.87472434334E+03 0.  0.
         23    2    4    4    0    0 -0.19417664215E+02 -0.46594576524E+03 -0.16921107000E+04  0.17575795839E+04  0.91459667959E+02 0.  0.
         23    2    4    4    0    0 -0.18661817963E+02  0.31980269622E+03 -0.43704399722E+03  0.54920394411E+03  0.89417496960E+02 0.  0.
          2    1    3    3  502    0  0.29013711094E+02  0.13304866042E+03 -0.21096458139E+03  0.25109718451E+03  0.00000000000E+00 0. -1.
         -2    1    3    3    0  502  0.90657710848E+01  0.13094408601E+02  0.94379656358E+01  0.18512885710E+02  0.00000000000E+00 0.  1.
         11    1    5    5    0    0  0.17924624768E+02 -0.31271400691E+03 -0.10090784389E+04  0.10565749563E+04  0.00000000000E+00 0.  1.
        -11    1    5    5    0    0 -0.37342288984E+02 -0.15323175834E+03 -0.68303226104E+03  0.70100462761E+03  0.00000000000E+00 0. -1.
          3    1    6    6  503    0  0.28165204418E+01  0.18379360941E+02 -0.76701615705E+02  0.78923200313E+02  0.00000000000E+00 0. -1.
         -3    1    6    6    0  503 -0.21478338405E+02  0.30142333528E+03 -0.36034238152E+03  0.47028074380E+03  0.00000000000E+00 0.  1.
<mgrwt>
<rscale>  0 0.10980567E+04</rscale>
<asrwt>0</asrwt>
<pdfrwt beam="1">  1        2 0.37746727E+00 0.10980567E+04</pdfrwt>
<pdfrwt beam="2">  1       -2 0.18900946E-01 0.10980567E+04</pdfrwt>
<totfact> 0.87492194E+01</totfact>
</mgrwt>
</event>
<event>
12    2  0.3518828E-008  0.1741423E+04  0.7818608E-02  0.8738086E-01
         -2   -1    0    0    0  501 -0.00000000000E+00  0.00000000000E+00  0.26547906343E+03  0.26547906343E+03  0.00000000000E+00 0. -1.
          2   -1    0    0  501    0  0.00000000000E+00 -0.00000000000E+00 -0.28557368137E+04  0.28557368137E+04  0.00000000000E+00 0.  1.
         23    2    1    2    0    0  0.44259109101E+03 -0.24469898387E+03 -0.26388452402E+03  0.57751978161E+03  0.90164236743E+02 0.  0.
        254    2    1    2    0    0 -0.44259109101E+03  0.24469898387E+03 -0.23263732263E+04  0.25436960955E+04  0.89588669596E+03 0.  0.
         23    2    4    4    0    0  0.16979653694E+03  0.25233491303E+03 -0.35011936752E+03  0.47272793598E+03  0.91566138146E+02 0.  0.
         23    2    4    4    0    0 -0.61238762795E+03 -0.76359291591E+01 -0.19762538587E+04  0.20709681595E+04  0.90845414718E+02 0.  0.
          1    1    3    3  502    0  0.41128751499E+03 -0.21773351741E+03 -0.21250679361E+03  0.51159011124E+03  0.00000000000E+00 0. -1.
         -1    1    3    3    0  502  0.31303576018E+02 -0.26965466460E+02 -0.51377730407E+02  0.65929670367E+02  0.00000000000E+00 0.  1.
         11    1    5    5    0    0  0.24998834466E+02  0.10142539120E+03 -0.15351905742E+03  0.18568832138E+03  0.00000000000E+00 0. -1.
        -11    1    5    5    0    0  0.14479770248E+03  0.15090952183E+03 -0.19660031009E+03  0.28703961460E+03  0.00000000000E+00 0.  1.
          3    1    6    6  503    0 -0.11772188691E+03 -0.37085898369E+02 -0.41375938337E+03  0.43177613857E+03  0.00000000000E+00 0. -1.
         -3    1    6    6    0  503 -0.49466574104E+03  0.29449969210E+02 -0.15624944754E+04  0.16391920210E+04  0.00000000000E+00 0.  1.
<mgrwt>
<rscale>  0 0.17414228E+04</rscale>
<asrwt>0</asrwt>
<pdfrwt beam="1">  1        2 0.43934411E+00 0.17414228E+04</pdfrwt>
<pdfrwt beam="2">  1       -2 0.40842934E-01 0.17414228E+04</pdfrwt>
<totfact> 0.11554658E+01</totfact>
</mgrwt>
</event>
<event>
12    2  0.3518828E-008  0.1296431E+04  0.7818608E-02  0.9032400E-01
         -1   -1    0    0    0  501 -0.00000000000E+00  0.00000000000E+00  0.42482156746E+03  0.42482156746E+03  0.00000000000E+00 0.  1.
          1   -1    0    0  501    0  0.00000000000E+00 -0.00000000000E+00 -0.98908235712E+03  0.98908235712E+03  0.00000000000E+00 0. -1.
         23    2    1    2    0    0 -0.63405195555E+01  0.32803627192E+03 -0.14774514817E+03  0.37141102759E+03  0.92030020759E+02 0.  0.
        254    2    1    2    0    0  0.63405195555E+01 -0.32803627192E+03 -0.41651564149E+03  0.10424928970E+04  0.89758462709E+03 0.  0.
         23    2    4    4    0    0 -0.32486938810E+03 -0.57948543697E+02 -0.49161542431E+03  0.59919366623E+03  0.91919373348E+02 0.  0.
         23    2    4    4    0    0  0.33120990766E+03 -0.27008772823E+03  0.75099782820E+02  0.44329923076E+03  0.90701966573E+02 0.  0.
          1    1    3    3  502    0 -0.70928675127E+01  0.56960825172E+01 -0.24806067652E+02  0.26421489700E+02  0.00000000000E+00 0. -1.
         -1    1    3    3    0  502  0.75234795722E+00  0.32234018941E+03 -0.12293908051E+03  0.34498953789E+03  0.00000000000E+00 0.  1.
         11    1    5    5    0    0 -0.28978273984E+03 -0.22974563966E+02 -0.44243523604E+03  0.52938719761E+03  0.00000000000E+00 0. -1.
        -11    1    5    5    0    0 -0.35086648256E+02 -0.34973979731E+02 -0.49180188267E+02  0.69806468626E+02  0.00000000000E+00 0.  1.
          3    1    6    6  503    0  0.29901134969E+03 -0.25704942454E+03  0.91644890859E+02  0.40482215839E+03  0.00000000000E+00 0. -1.
         -3    1    6    6    0  503  0.32198557965E+02 -0.13038303689E+02 -0.16545108039E+02  0.38477072370E+02  0.00000000000E+00 0.  1.
<mgrwt>
<rscale>  0 0.12964313E+04</rscale>
<asrwt>0</asrwt>
<pdfrwt beam="1">  1        1 0.15216652E+00 0.12964313E+04</pdfrwt>
<pdfrwt beam="2">  1       -1 0.65357165E-01 0.12964313E+04</pdfrwt>
<totfact> 0.35998816E+01</totfact>
</mgrwt>
</event>
<event>
12    2  0.3518828E-008  0.1888058E+04  0.7818608E-02  0.8660824E-01
          2   -1    0    0  501    0  0.00000000000E+00  0.00000000000E+00  0.16409337187E+04  0.16409337187E+04  0.00000000000E+00 0. -1.
         -2   -1    0    0    0  501 -0.00000000000E+00 -0.00000000000E+00 -0.54309980392E+03  0.54309980392E+03  0.00000000000E+00 0.  1.
         23    2    1    2    0    0  0.97846599310E+02 -0.24675471150E+03 -0.36145954510E+03  0.45770562781E+03  0.91540124240E+02 0.  0.
        254    2    1    2    0    0 -0.97846599310E+02  0.24675471150E+03  0.14592934599E+04  0.17263278948E+04  0.88329426222E+03 0.  0.
         23    2    4    4    0    0  0.27895733393E+03 -0.15474197206E+03  0.33995998526E+03  0.47568829680E+03  0.94574267456E+02 0.  0.
         23    2    4    4    0    0 -0.37680393324E+03  0.40149668356E+03  0.11193334746E+04  0.12506395980E+04  0.89505227009E+02 0.  0.
          4    1    3    3  502    0  0.20121365494E+02 -0.16927763906E+03 -0.20546702692E+03  0.26697656749E+03  0.00000000000E+00 0.  1.
         -4    1    3    3    0  502  0.77725233817E+02 -0.77477072434E+02 -0.15599251818E+03  0.19072906033E+03  0.00000000000E+00 0. -1.
         11    1    5    5    0    0  0.17706002417E+02 -0.44702504172E+02  0.64193826851E+02  0.80203888974E+02  0.00000000000E+00 0.  1.
        -11    1    5    5    0    0  0.26125133151E+03 -0.11003946789E+03  0.27576615841E+03  0.39548440782E+03  0.00000000000E+00 0. -1.
          3    1    6    6  503    0 -0.37495725210E+03  0.37466794477E+03  0.10484461225E+04  0.11748226596E+04  0.00000000000E+00 0. -1.
         -3    1    6    6    0  503 -0.18466811336E+01  0.26828738793E+02  0.70887352102E+02  0.75816938374E+02  0.00000000000E+00 0.  1.
<mgrwt>
<rscale>  0 0.18880580E+04</rscale>
<asrwt>0</asrwt>
<pdfrwt beam="1">  1        2 0.25245134E+00 0.18880580E+04</pdfrwt>
<pdfrwt beam="2">  1       -2 0.83553817E-01 0.18880580E+04</pdfrwt>
<totfact> 0.12425376E+01</totfact>
</mgrwt>
</event>
<event>
12    2  0.3518828E-008  0.1994211E+04  0.7818608E-02  0.8609332E-01
          2   -1    0    0  501    0  0.00000000000E+00  0.00000000000E+00  0.26350428069E+04  0.26350428069E+04  0.00000000000E+00 0.  1.
         -2   -1    0    0    0  501 -0.00000000000E+00 -0.00000000000E+00 -0.37730684739E+03  0.37730684739E+03  0.00000000000E+00 0. -1.
         23    2    1    2    0    0  0.69298736081E+03 -0.34821076320E+03  0.65738991823E+03  0.10206990725E+04  0.90459240555E+02 0.  0.
        254    2    1    2    0    0 -0.69298736081E+03  0.34821076320E+03  0.16003460412E+04  0.19916505817E+04  0.89670640130E+03 0.  0.
         23    2    4    4    0    0 -0.20789716810E+03  0.54995629953E+03  0.53388473450E+03  0.79932787157E+03  0.90658549754E+02 0.  0.
         23    2    4    4    0    0 -0.48509019271E+03 -0.20174553633E+03  0.10664613067E+04  0.11923227102E+04  0.90994339846E+02 0.  0.
          2    1    3    3  502    0  0.61738489715E+03 -0.27964016262E+03  0.58801256387E+03  0.89728563292E+03  0.00000000000E+00 0. -1.
         -2    1    3    3    0  502  0.75602463662E+02 -0.68570600580E+02  0.69377354357E+02  0.12341343960E+03  0.00000000000E+00 0.  1.
         11    1    5    5    0    0 -0.11777889371E+03  0.42264156455E+03  0.38561665980E+03  0.58412153548E+03  0.00000000000E+00 0.  1.
        -11    1    5    5    0    0 -0.90118274387E+02  0.12731473498E+03  0.14826807470E+03  0.21520633609E+03  0.00000000000E+00 0. -1.
          2    1    6    6  503    0 -0.17823215738E+02 -0.18362212937E+02  0.23019408388E+02  0.34419922222E+02  0.00000000000E+00 0. -1.
         -2    1    6    6    0  503 -0.46726697697E+03 -0.18338332340E+03  0.10434418983E+04  0.11579027879E+04  0.00000000000E+00 0.  1.
<mgrwt>
<rscale>  0 0.19942113E+04</rscale>
<asrwt>0</asrwt>
<pdfrwt beam="1">  1        2 0.40539119E+00 0.19942113E+04</pdfrwt>
<pdfrwt beam="2">  1       -2 0.58047209E-01 0.19942113E+04</pdfrwt>
<totfact> 0.74982681E+00</totfact>
</mgrwt>
</event>
<event>
12    2  0.3518828E-008  0.1588637E+04  0.7818608E-02  0.8827559E-01
         -1   -1    0    0    0  501 -0.00000000000E+00  0.00000000000E+00  0.38970871523E+03  0.38970871523E+03  0.00000000000E+00 0. -1.
          1   -1    0    0  501    0  0.00000000000E+00 -0.00000000000E+00 -0.16190083115E+04  0.16190083115E+04  0.00000000000E+00 0.  1.
         23    2    1    2    0    0  0.29199109457E+03  0.13932127468E+03  0.12137001741E+03  0.35500493725E+03  0.81416260377E+02 0.  0.
        254    2    1    2    0    0 -0.29199109457E+03 -0.13932127468E+03 -0.13506696137E+04  0.16537120895E+04  0.89765586542E+03 0.  0.
         23    2    4    4    0    0  0.31027378067E+03  0.19326917057E+02 -0.48326829497E+03  0.58184297112E+03  0.91376416163E+02 0.  0.
         23    2    4    4    0    0 -0.60226487525E+03 -0.15864819174E+03 -0.86740131873E+03  0.10718691184E+04  0.92876964314E+02 0.  0.
          1    1    3    3  502    0  0.11995469489E+03  0.38865553043E+02  0.86108214129E+02  0.15269015875E+03  0.00000000000E+00 0. -1.
         -1    1    3    3    0  502  0.17203639969E+03  0.10045572164E+03  0.35261803281E+02  0.20231477850E+03  0.00000000000E+00 0.  1.
         11    1    5    5    0    0  0.49502540929E+02 -0.28083478427E+02 -0.62273621798E+02  0.84363423892E+02  0.00000000000E+00 0. -1.
        -11    1    5    5    0    0  0.26077123974E+03  0.47410395485E+02 -0.42099467317E+03  0.49747954723E+03  0.00000000000E+00 0.  1.
          3    1    6    6  503    0 -0.20860278018E+03 -0.39676181801E+02 -0.22738494342E+03  0.31111610662E+03  0.00000000000E+00 0. -1.
         -3    1    6    6    0  503 -0.39366209506E+03 -0.11897200994E+03 -0.64001637531E+03  0.76075301176E+03  0.00000000000E+00 0.  1.
<mgrwt>
<rscale>  0 0.15886367E+04</rscale>
<asrwt>0</asrwt>
<pdfrwt beam="1">  1        1 0.24907820E+00 0.15886367E+04</pdfrwt>
<pdfrwt beam="2">  1       -1 0.59955187E-01 0.15886367E+04</pdfrwt>
<totfact> 0.14668921E+01</totfact>
</mgrwt>
</event>
<event>
12    2  0.3518828E-008  0.1327619E+04  0.7818608E-02  0.9007945E-01
         -1   -1    0    0    0  501 -0.00000000000E+00  0.00000000000E+00  0.16177650619E+03  0.16177650619E+03  0.00000000000E+00 0.  1.
          1   -1    0    0  501    0  0.00000000000E+00 -0.00000000000E+00 -0.27237762664E+04  0.27237762664E+04  0.00000000000E+00 0. -1.
         23    2    1    2    0    0  0.39295932905E+02 -0.27792333545E+03 -0.11675608015E+04  0.12041219963E+04  0.89028118332E+02 0.  0.
        254    2    1    2    0    0 -0.39295932905E+02  0.27792333545E+03 -0.13944389586E+04  0.16814307763E+04  0.89664033782E+03 0.  0.
         23    2    4    4    0    0  0.66260055775E+02  0.38987546681E+03 -0.14404600984E+04  0.14966120945E+04  0.92353622883E+02 0.  0.
         23    2    4    4    0    0 -0.10555598868E+03 -0.11195213135E+03  0.46021139726E+02  0.18481868185E+03  0.91458479101E+02 0.  0.
          3    1    3    3  502    0  0.24234816037E+02 -0.22672139079E+03 -0.77173090240E+03  0.80471019694E+03  0.00000000000E+00 0. -1.
         -3    1    3    3    0  502  0.15061116868E+02 -0.51201944665E+02 -0.39582989914E+03  0.39941179931E+03  0.00000000000E+00 0.  1.
         11    1    5    5    0    0  0.32227691877E+02  0.44756568270E+02 -0.28266284809E+03  0.28799316001E+03  0.00000000000E+00 0. -1.
        -11    1    5    5    0    0  0.34032363898E+02  0.34511889854E+03 -0.11577972503E+04  0.12086189344E+04  0.00000000000E+00 0.  1.
          4    1    6    6  503    0 -0.70287016800E+02 -0.50733788212E+02  0.68710770498E+02  0.11061352530E+03  0.00000000000E+00 0. -1.
         -4    1    6    6    0  503 -0.35268971880E+02 -0.61218343142E+02 -0.22689630772E+02  0.74205156554E+02  0.00000000000E+00 0.  1.
<mgrwt>
<rscale>  0 0.13276189E+04</rscale>
<asrwt>0</asrwt>
<pdfrwt beam="1">  1        1 0.41904246E+00 0.13276189E+04</pdfrwt>
<pdfrwt beam="2">  1       -1 0.24888696E-01 0.13276189E+04</pdfrwt>
<totfact> 0.13149324E+01</totfact>
</mgrwt>
</event>
<event>
12    2  0.3518828E-008  0.1710095E+04  0.7818608E-02  0.8755628E-01
         -1   -1    0    0    0  501 -0.00000000000E+00  0.00000000000E+00  0.56120048706E+03  0.56120048706E+03  0.00000000000E+00 0.  1.
          1   -1    0    0  501    0  0.00000000000E+00 -0.00000000000E+00 -0.13027537192E+04  0.13027537192E+04  0.00000000000E+00 0. -1.
         23    2    1    2    0    0  0.59584176821E+03 -0.10742701537E+03 -0.35966040906E+03  0.71010620258E+03  0.91253672330E+02 0.  0.
        254    2    1    2    0    0 -0.59584176821E+03  0.10742701537E+03 -0.38189282309E+03  0.11538480037E+04  0.90496138642E+03 0.  0.
         23    2    4    4    0    0 -0.73720914845E+03  0.30636261850E+03 -0.17427306671E+03  0.82201000984E+03  0.89409014711E+02 0.  0.
         23    2    4    4    0    0  0.14136738024E+03 -0.19893560313E+03 -0.20761975637E+03  0.33183799385E+03  0.86315586861E+02 0.  0.
          3    1    3    3  502    0  0.11513529251E+03 -0.31989843651E+02 -0.11344395511E+03  0.16476958648E+03  0.00000000000E+00 0. -1.
         -3    1    3    3    0  502  0.48070647570E+03 -0.75437171717E+02 -0.24621645395E+03  0.54533661610E+03  0.00000000000E+00 0.  1.
         11    1    5    5    0    0 -0.61600991310E+03  0.24954961628E+03 -0.11057759463E+03  0.67377342517E+03  0.00000000000E+00 0. -1.
        -11    1    5    5    0    0 -0.12119923535E+03  0.56813002223E+02 -0.63695472080E+02  0.14823658467E+03  0.00000000000E+00 0.  1.
          4    1    6    6  503    0  0.12574032725E+03 -0.10608309774E+03 -0.13817229143E+03  0.21483909245E+03  0.00000000000E+00 0. -1.
         -4    1    6    6    0  503  0.15627052990E+02 -0.92852505393E+02 -0.69447464940E+02  0.11699890140E+03  0.00000000000E+00 0.  1.
<mgrwt>
<rscale>  0 0.17100948E+04</rscale>
<asrwt>0</asrwt>
<pdfrwt beam="1">  1        1 0.20042365E+00 0.17100948E+04</pdfrwt>
<pdfrwt beam="2">  1       -1 0.86338537E-01 0.17100948E+04</pdfrwt>
<totfact> 0.11330284E+01</totfact>
</mgrwt>
</event>
<event>
12    2  0.3518828E-008  0.3591168E+04  0.7818608E-02  0.8092518E-01
         -3   -1    0    0    0  501 -0.00000000000E+00  0.00000000000E+00  0.13415093513E+04  0.13415093513E+04  0.00000000000E+00 0.  1.
          3   -1    0    0  501    0  0.00000000000E+00 -0.00000000000E+00 -0.24033546327E+04  0.24033546327E+04  0.00000000000E+00 0. -1.
         23    2    1    2    0    0  0.64174131528E+03  0.14866163878E+04 -0.96552362931E+03  0.18874496169E+04  0.91487580865E+02 0.  0.
        254    2    1    2    0    0 -0.64174131528E+03 -0.14866163878E+04 -0.96321652037E+02  0.18574143671E+04  0.90490334851E+03 0.  0.
         23    2    4    4    0    0 -0.46420771343E+03 -0.12290663674E+04  0.29263866304E+03  0.13499041932E+04  0.10252320181E+03 0.  0.
         23    2    4    4    0    0 -0.17753360185E+03 -0.25755002039E+03 -0.38896031508E+03  0.50751017391E+03  0.91794646504E+02 0.  0.
          3    1    3    3  502    0  0.58458883420E+03  0.13894418041E+04 -0.87577089523E+03  0.17433494466E+04  0.00000000000E+00 0. -1.
         -3    1    3    3    0  502  0.57152481079E+02  0.97174583719E+02 -0.89752734081E+02  0.14410017033E+03  0.00000000000E+00 0.  1.
         11    1    5    5    0    0 -0.40790354055E+03 -0.11509289094E+04  0.26230498327E+03  0.12489301650E+04  0.00000000000E+00 0. -1.
        -11    1    5    5    0    0 -0.56304172881E+02 -0.78137458004E+02  0.30333679773E+02  0.10097402812E+03  0.00000000000E+00 0.  1.
          4    1    6    6  503    0 -0.13927861700E+03 -0.25050080917E+03 -0.35103327413E+03  0.45318158402E+03  0.00000000000E+00 0. -1.
         -4    1    6    6    0  503 -0.38254984847E+02 -0.70492112275E+01 -0.37927040945E+02  0.54328589890E+02  0.00000000000E+00 0.  1.
<mgrwt>
<rscale>  0 0.35911685E+04</rscale>
<asrwt>0</asrwt>
<pdfrwt beam="1">  1        3 0.36974687E+00 0.35911685E+04</pdfrwt>
<pdfrwt beam="2">  1       -3 0.20638605E+00 0.35911685E+04</pdfrwt>
<totfact> 0.45392735E-03</totfact>
</mgrwt>
</event>
<event>
12    2  0.3518828E-008  0.2387141E+04  0.7818608E-02  0.8444333E-01
         -2   -1    0    0    0  501 -0.00000000000E+00  0.00000000000E+00  0.74188291541E+03  0.74188291541E+03  0.00000000000E+00 0.  1.
          2   -1    0    0  501    0  0.00000000000E+00 -0.00000000000E+00 -0.19202633434E+04  0.19202633434E+04  0.00000000000E+00 0. -1.
         23    2    1    2    0    0 -0.23325455756E+03 -0.89928067408E+03 -0.98631703123E+03  0.13581112496E+04  0.92365906824E+02 0.  0.
        254    2    1    2    0    0  0.23325455756E+03  0.89928067408E+03 -0.19206339673E+03  0.13040350092E+04  0.89470975040E+03 0.  0.
         23    2    4    4    0    0 -0.62676064877E+02  0.72346346338E+03 -0.45425918044E+03  0.86138984461E+03  0.91177790238E+02 0.  0.
         23    2    4    4    0    0  0.29593062244E+03  0.17581721070E+03  0.26219578371E+03  0.44264516459E+03  0.93281765982E+02 0.  0.
          2    1    3    3  502    0 -0.12857798354E+03 -0.54929803813E+03 -0.66037638986E+03  0.86853762660E+03  0.00000000000E+00 0. -1.
         -2    1    3    3    0  502 -0.10467657402E+03 -0.34998263595E+03 -0.32594064137E+03  0.48957362297E+03  0.00000000000E+00 0.  1.
         11    1    5    5    0    0 -0.63767457793E+02  0.25571918760E+03 -0.14735437426E+03  0.30194685492E+03  0.00000000000E+00 0. -1.
        -11    1    5    5    0    0  0.10913929163E+01  0.46774427578E+03 -0.30690480618E+03  0.55944298969E+03  0.00000000000E+00 0.  1.
          2    1    6    6  503    0  0.24297096528E+03  0.10456847161E+03  0.16879389609E+03  0.31378469463E+03  0.00000000000E+00 0. -1.
         -2    1    6    6    0  503  0.52959657157E+02  0.71248739089E+02  0.93401887621E+02  0.12886046996E+03  0.00000000000E+00 0.  1.
<mgrwt>
<rscale>  0 0.23871410E+04</rscale>
<asrwt>0</asrwt>
<pdfrwt beam="1">  1        2 0.29542513E+00 0.23871410E+04</pdfrwt>
<pdfrwt beam="2">  1       -2 0.11413583E+00 0.23871410E+04</pdfrwt>
<totfact> 0.40004986E+00</totfact>
</mgrwt>
</event>
<event>
12    2  0.3518828E-008  0.1555293E+04  0.7818608E-02  0.8848494E-01
         -1   -1    0    0    0  501 -0.00000000000E+00  0.00000000000E+00  0.43128279468E+03  0.43128279468E+03  0.00000000000E+00 0.  1.
          1   -1    0    0  501    0  0.00000000000E+00 -0.00000000000E+00 -0.14021749122E+04  0.14021749122E+04  0.00000000000E+00 0. -1.
         23    2    1    2    0    0  0.25219844924E+03  0.17900281827E+03  0.15538153285E+03  0.35744510406E+03  0.89316935252E+02 0.  0.
        254    2    1    2    0    0 -0.25219844924E+03 -0.17900281827E+03 -0.11262736504E+04  0.14760126028E+04  0.90248257682E+03 0.  0.
         23    2    4    4    0    0 -0.50873118185E+03 -0.15098195789E+03 -0.32421526490E+03  0.62849495610E+03  0.91035184677E+02 0.  0.
         23    2    4    4    0    0  0.25653273261E+03 -0.28020860374E+02 -0.80205838549E+03  0.84751764675E+03  0.91620392402E+02 0.  0.
          3    1    3    3  502    0  0.25345677405E+02  0.54226872951E+02  0.49705734168E+02  0.77804994199E+02  0.00000000000E+00 0. -1.
         -3    1    3    3    0  502  0.22685277183E+03  0.12477594532E+03  0.10567579868E+03  0.27964010986E+03  0.00000000000E+00 0.  1.
         11    1    5    5    0    0 -0.31016029831E+02  0.71433844100E+01 -0.40825675474E+01  0.32088773817E+02  0.00000000000E+00 0. -1.
        -11    1    5    5    0    0 -0.47771515202E+03 -0.15812534230E+03 -0.32013269735E+03  0.59640618228E+03  0.00000000000E+00 0.  1.
          3    1    6    6  503    0  0.89489103262E+02 -0.23598402228E+02 -0.42705927702E+03  0.43697232210E+03  0.00000000000E+00 0. -1.
         -3    1    6    6    0  503  0.16704362935E+03 -0.44224581460E+01 -0.37499910847E+03  0.41054532465E+03  0.00000000000E+00 0.  1.
<mgrwt>
<rscale>  0 0.15552928E+04</rscale>
<asrwt>0</asrwt>
<pdfrwt beam="1">  1        1 0.21571922E+00 0.15552928E+04</pdfrwt>
<pdfrwt beam="2">  1       -1 0.66351200E-01 0.15552928E+04</pdfrwt>
<totfact> 0.16969892E+01</totfact>
</mgrwt>
</event>
<event>
12    2  0.3518828E-008  0.2890015E+04  0.7818608E-02  0.8275855E-01
         -3   -1    0    0    0  501 -0.00000000000E+00  0.00000000000E+00  0.98521612573E+03  0.98521612573E+03  0.00000000000E+00 0.  1.
          3   -1    0    0  501    0  0.00000000000E+00 -0.00000000000E+00 -0.21193787769E+04  0.21193787769E+04  0.00000000000E+00 0. -1.
         23    2    1    2    0    0 -0.19028098665E+03 -0.11520318033E+04  0.10814301249E+03  0.11761878819E+04  0.91317538023E+02 0.  0.
        254    2    1    2    0    0  0.19028098665E+03  0.11520318033E+04 -0.12423056637E+04  0.19284070208E+04  0.90113603081E+03 0.  0.
         23    2    4    4    0    0 -0.23393444236E+03  0.95612897114E+03 -0.72907508954E+03  0.12284595426E+04  0.93029182333E+02 0.  0.
         23    2    4    4    0    0  0.42421542901E+03  0.19590283213E+03 -0.51323057414E+03  0.69994747818E+03  0.90466569123E+02 0.  0.
          4    1    3    3  502    0  0.25498621585E+01 -0.96305571012E+02  0.26378540368E+02  0.99885395313E+02  0.00000000000E+00 0. -1.
         -4    1    3    3    0  502 -0.19283084881E+03 -0.10557262323E+04  0.81764472125E+02  0.10763024866E+04  0.00000000000E+00 0.  1.
         11    1    5    5    0    0 -0.28596851355E+02  0.20321750751E+03 -0.11367349526E+03  0.23459923016E+03  0.00000000000E+00 0. -1.
        -11    1    5    5    0    0 -0.20533759100E+03  0.75291146364E+03 -0.61540159428E+03  0.99386031242E+03  0.00000000000E+00 0.  1.
          1    1    6    6  503    0  0.16602488811E+02  0.38122486901E-01 -0.49521203061E+02  0.52230198551E+02  0.00000000000E+00 0. -1.
         -1    1    6    6    0  503  0.40761294020E+03  0.19586470964E+03 -0.46370937108E+03  0.64771727963E+03  0.00000000000E+00 0.  1.
<mgrwt>
<rscale>  0 0.28900146E+04</rscale>
<asrwt>0</asrwt>
<pdfrwt beam="1">  1        3 0.32605827E+00 0.28900146E+04</pdfrwt>
<pdfrwt beam="2">  1       -3 0.15157171E+00 0.28900146E+04</pdfrwt>
<totfact> 0.19597810E-02</totfact>
</mgrwt>
</event>
<event>
12    2  0.3518828E-008  0.2542710E+04  0.7818608E-02  0.8387926E-01
          2   -1    0    0  501    0  0.00000000000E+00  0.00000000000E+00  0.32254968100E+04  0.32254968100E+04  0.00000000000E+00 0. -1.
         -2   -1    0    0    0  501 -0.00000000000E+00 -0.00000000000E+00 -0.50111478325E+03  0.50111478325E+03  0.00000000000E+00 0.  1.
         23    2    1    2    0    0  0.11255937399E+04  0.30132991520E+02  0.11702537003E+04  0.16264876469E+04  0.89994876979E+02 0.  0.
        254    2    1    2    0    0 -0.11255937399E+04 -0.30132991520E+02  0.15541283264E+04  0.21001239463E+04  0.85284023743E+03 0.  0.
         23    2    4    4    0    0 -0.59615672962E+03  0.64080536938E+01  0.14215078209E+04  0.15440767071E+04  0.89691042799E+02 0.  0.
         23    2    4    4    0    0 -0.52943701027E+03 -0.36541045214E+02  0.13262050552E+03  0.55604723923E+03  0.99807504445E+02 0.  0.
          1    1    3    3  502    0  0.38790435937E+02 -0.29853970167E+01  0.20292432664E+02  0.43879304222E+02  0.00000000000E+00 0. -1.
         -1    1    3    3    0  502  0.10868033040E+04  0.33118388537E+02  0.11499612677E+04  0.15826083427E+04  0.00000000000E+00 0.  1.
         11    1    5    5    0    0 -0.58134346209E+03  0.19335598800E+02  0.13513823197E+04  0.14712471785E+04  0.00000000000E+00 0.  1.
        -11    1    5    5    0    0 -0.14813267525E+02 -0.12927545106E+02  0.70125501209E+02  0.72829528607E+02  0.00000000000E+00 0. -1.
          4    1    6    6  503    0 -0.60886104620E+02  0.25412516614E+02  0.29642251906E+02  0.72329640083E+02  0.00000000000E+00 0. -1.
         -4    1    6    6    0  503 -0.46855090565E+03 -0.61953561828E+02  0.10297825361E+03  0.48371759915E+03  0.00000000000E+00 0.  1.
<mgrwt>
<rscale>  0 0.25427105E+04</rscale>
<asrwt>0</asrwt>
<pdfrwt beam="1">  1        2 0.49623027E+00 0.25427105E+04</pdfrwt>
<pdfrwt beam="2">  1       -2 0.77094584E-01 0.25427105E+04</pdfrwt>
<totfact> 0.16662315E+00</totfact>
</mgrwt>
</event>
<event>
12    2  0.3518828E-008  0.1359418E+04  0.7818608E-02  0.8983730E-01
          1   -1    0    0  501    0  0.00000000000E+00  0.00000000000E+00  0.34701207274E+04  0.34701207274E+04  0.00000000000E+00 0. -1.
         -1   -1    0    0    0  501 -0.00000000000E+00 -0.00000000000E+00 -0.13313774752E+03  0.13313774752E+03  0.00000000000E+00 0.  1.
         23    2    1    2    0    0  0.25725504623E+03 -0.23257923062E+03  0.14549191594E+04  0.14984219151E+04  0.90582657979E+02 0.  0.
        254    2    1    2    0    0 -0.25725504623E+03  0.23257923062E+03  0.18820638204E+04  0.21048365598E+04  0.87629872869E+03 0.  0.
         23    2    4    4    0    0 -0.39190779370E+02  0.39745510631E+03  0.32964192411E+03  0.52595412314E+03  0.91964464908E+02 0.  0.
         23    2    4    4    0    0 -0.21806426686E+03 -0.16487587569E+03  0.15524218963E+04  0.15788824366E+04  0.90110630172E+02 0.  0.
          2    1    3    3  502    0  0.51256712270E+02 -0.45261250892E+02  0.46837043675E+03  0.47333571321E+03  0.00000000000E+00 0. -1.
         -2    1    3    3    0  502  0.20599833396E+03 -0.18731797972E+03  0.98654872270E+03  0.10250862019E+04  0.00000000000E+00 0.  1.
         11    1    5    5    0    0  0.18296181949E+02  0.24864759541E+02  0.40057097819E+02  0.50572498719E+02  0.00000000000E+00 0. -1.
        -11    1    5    5    0    0 -0.57486961319E+02  0.37259034677E+03  0.28958482629E+03  0.47538162443E+03  0.00000000000E+00 0.  1.
          1    1    6    6  503    0 -0.21783844471E+03 -0.14445366600E+03  0.13243244627E+04  0.13498724874E+04  0.00000000000E+00 0. -1.
         -1    1    6    6    0  503 -0.22582215158E+00 -0.20422209694E+02  0.22809743362E+03  0.22900994927E+03  0.00000000000E+00 0.  1.
<mgrwt>
<rscale>  0 0.13594176E+04</rscale>
<asrwt>0</asrwt>
<pdfrwt beam="1">  1        1 0.53386466E+00 0.13594176E+04</pdfrwt>
<pdfrwt beam="2">  1       -1 0.20482733E-01 0.13594176E+04</pdfrwt>
<totfact> 0.51488007E+00</totfact>
</mgrwt>
</event>
<event>
12    2  0.3518828E-008  0.1825501E+04  0.7818608E-02  0.8692855E-01
          2   -1    0    0  501    0  0.00000000000E+00  0.00000000000E+00  0.64652130817E+03  0.64652130817E+03  0.00000000000E+00 0. -1.
         -2   -1    0    0    0  501 -0.00000000000E+00 -0.00000000000E+00 -0.12886098529E+04  0.12886098529E+04  0.00000000000E+00 0.  1.
         23    2    1    2    0    0  0.47845134596E+03  0.12305363616E+03 -0.75510376953E+03  0.90686310442E+03  0.90338804414E+02 0.  0.
        254    2    1    2    0    0 -0.47845134596E+03 -0.12305363616E+03  0.11301522476E+03  0.10282680567E+04  0.89470937602E+03 0.  0.
         23    2    4    4    0    0 -0.68358808129E+03 -0.26990891741E+03  0.98829378442E+01  0.74124193757E+03  0.95908544828E+02 0.  0.
         23    2    4    4    0    0  0.20513673533E+03  0.14685528125E+03  0.10313228692E+03  0.28702611911E+03  0.90000947962E+02 0.  0.
          4    1    3    3  502    0  0.13772157755E+03 -0.36854801381E+01 -0.18381939287E+03  0.22971805519E+03  0.00000000000E+00 0. -1.
         -4    1    3    3    0  502  0.34072976841E+03  0.12673911630E+03 -0.57128437667E+03  0.67714504923E+03  0.00000000000E+00 0.  1.
         11    1    5    5    0    0 -0.50540083809E+03 -0.20142954965E+03 -0.34851320851E+02  0.54517748044E+03  0.00000000000E+00 0.  1.
        -11    1    5    5    0    0 -0.17818724320E+03 -0.68479367763E+02  0.44734258696E+02  0.19606445713E+03  0.00000000000E+00 0. -1.
          3    1    6    6  503    0  0.16962389378E+03  0.12680671463E+03  0.45816490293E+02  0.21668262274E+03  0.00000000000E+00 0. -1.
         -3    1    6    6    0  503  0.35512841550E+02  0.20048566625E+02  0.57315796627E+02  0.70343496370E+02  0.00000000000E+00 0.  1.
<mgrwt>
<rscale>  0 0.18255013E+04</rscale>
<asrwt>0</asrwt>
<pdfrwt beam="1">  1        2 0.99464818E-01 0.18255013E+04</pdfrwt>
<pdfrwt beam="2">  1       -2 0.19824767E+00 0.18255013E+04</pdfrwt>
<totfact> 0.58197885E+00</totfact>
</mgrwt>
</event>
<event>
12    2  0.3518828E-008  0.1943379E+04  0.7818608E-02  0.8633560E-01
         -1   -1    0    0    0  501 -0.00000000000E+00  0.00000000000E+00  0.42994512882E+03  0.42994512882E+03  0.00000000000E+00 0.  1.
          1   -1    0    0  501    0  0.00000000000E+00 -0.00000000000E+00 -0.21960478000E+04  0.21960478000E+04  0.00000000000E+00 0. -1.
         23    2    1    2    0    0  0.41084104623E+02  0.72386671974E+03 -0.10306874316E+04  0.12635069086E+04  0.91990187874E+02 0.  0.
        254    2    1    2    0    0 -0.41084104623E+02 -0.72386671974E+03 -0.73541523960E+03  0.13624860203E+04  0.88874160998E+03 0.  0.
         23    2    4    4    0    0  0.69102528940E+02 -0.10197778914E+03 -0.70775408983E+03  0.72414378127E+03  0.91069947275E+02 0.  0.
         23    2    4    4    0    0 -0.11018663356E+03 -0.62188893060E+03 -0.27661149775E+02  0.63834223904E+03  0.88480160011E+02 0.  0.
          3    1    3    3  502    0  0.60824958520E+02  0.54031751081E+03 -0.81323164577E+03  0.97825783807E+03  0.00000000000E+00 0. -1.
         -3    1    3    3    0  502 -0.19740853898E+02  0.18354920893E+03 -0.21745578585E+03  0.28524907048E+03  0.00000000000E+00 0.  1.
         11    1    5    5    0    0  0.90562050865E+02 -0.74346919818E+02 -0.50692993256E+03  0.52029501830E+03  0.00000000000E+00 0.  1.
        -11    1    5    5    0    0 -0.21459521925E+02 -0.27630869318E+02 -0.20082415727E+03  0.20384876296E+03  0.00000000000E+00 0. -1.
          1    1    6    6  503    0 -0.72484356803E+02 -0.31544450320E+03 -0.55289038794E+02  0.32835361181E+03  0.00000000000E+00 0. -1.
         -1    1    6    6    0  503 -0.37702276760E+02 -0.30644442740E+03  0.27627889019E+02  0.30998862723E+03  0.00000000000E+00 0.  1.
<mgrwt>
<rscale>  0 0.19433786E+04</rscale>
<asrwt>0</asrwt>
<pdfrwt beam="1">  1        1 0.33785351E+00 0.19433786E+04</pdfrwt>
<pdfrwt beam="2">  1       -1 0.66145404E-01 0.19433786E+04</pdfrwt>
<totfact> 0.47338103E+00</totfact>
</mgrwt>
</event>
<event>
12    2  0.3518828E-008  0.1886388E+04  0.7818608E-02  0.8661662E-01
         -1   -1    0    0    0  501 -0.00000000000E+00  0.00000000000E+00  0.34019991481E+03  0.34019991481E+03  0.00000000000E+00 0.  1.
          1   -1    0    0  501    0  0.00000000000E+00 -0.00000000000E+00 -0.26149769512E+04  0.26149769512E+04  0.00000000000E+00 0. -1.
         23    2    1    2    0    0  0.42244550130E+03 -0.23717038516E+02  0.39950326925E+02  0.43461079293E+03  0.90927516309E+02 0.  0.
        254    2    1    2    0    0 -0.42244550130E+03  0.23717038516E+02 -0.23147273634E+04  0.25205660731E+04  0.90347543566E+03 0.  0.
         23    2    4    4    0    0 -0.58385413157E+03 -0.26676576102E+03 -0.16028551449E+04  0.17291102234E+04  0.92886656842E+02 0.  0.
         23    2    4    4    0    0  0.16140863027E+03  0.29048279953E+03 -0.71187221850E+03  0.79145584974E+03  0.95954696970E+02 0.  0.
          1    1    3    3  502    0  0.88448071948E+02  0.17339054778E+02  0.38721533771E+02  0.98097203984E+02  0.00000000000E+00 0. -1.
         -1    1    3    3    0  502  0.33399742935E+03 -0.41056093294E+02  0.12287931547E+01  0.33651358894E+03  0.00000000000E+00 0.  1.
         11    1    5    5    0    0 -0.50447287560E+03 -0.24870676039E+03 -0.14614469258E+04  0.15659422250E+04  0.00000000000E+00 0.  1.
        -11    1    5    5    0    0 -0.79381255968E+02 -0.18059000626E+02 -0.14140821901E+03  0.16316799841E+03  0.00000000000E+00 0. -1.
          1    1    6    6  503    0  0.37182963766E+01  0.37341254932E+02 -0.33042288447E+02  0.49999878736E+02  0.00000000000E+00 0. -1.
         -1    1    6    6    0  503  0.15769033389E+03  0.25314154460E+03 -0.67882993005E+03  0.74145597101E+03  0.00000000000E+00 0.  1.
<mgrwt>
<rscale>  0 0.18863880E+04</rscale>
<asrwt>0</asrwt>
<pdfrwt beam="1">  1        1 0.40230415E+00 0.18863880E+04</pdfrwt>
<pdfrwt beam="2">  1       -1 0.52338448E-01 0.18863880E+04</pdfrwt>
<totfact> 0.38840050E+00</totfact>
</mgrwt>
</event>
<event>
12    2  0.3518828E-008  0.1916125E+04  0.7818608E-02  0.8646871E-01
         -1   -1    0    0    0  501 -0.00000000000E+00  0.00000000000E+00  0.19106175375E+04  0.19106175375E+04  0.00000000000E+00 0.  1.
          1   -1    0    0  501    0  0.00000000000E+00 -0.00000000000E+00 -0.48041193281E+03  0.48041193281E+03  0.00000000000E+00 0. -1.
         23    2    1    2    0    0 -0.39309476069E+03 -0.50320790607E+02 -0.23323302173E+03  0.46889099631E+03  0.91681247538E+02 0.  0.
        254    2    1    2    0    0  0.39309476069E+03  0.50320790607E+02  0.16634386264E+04  0.19221384740E+04  0.87779984990E+03 0.  0.
         23    2    4    4    0    0  0.36233919276E+03 -0.21943819528E+03  0.29376168099E+03  0.52292759752E+03  0.87832425009E+02 0.  0.
         23    2    4    4    0    0  0.30755567932E+02  0.26975898588E+03  0.13696769454E+04  0.13992108765E+04  0.89779321369E+02 0.  0.
          2    1    3    3  502    0 -0.35690835506E+03 -0.71891780797E+02 -0.21633286999E+03  0.42349960177E+03  0.00000000000E+00 0. -1.
         -2    1    3    3    0  502 -0.36186405623E+02  0.21570990190E+02 -0.16900151742E+02  0.45391394543E+02  0.00000000000E+00 0.  1.
         11    1    5    5    0    0  0.19100503590E+02  0.71509580216E+01  0.70865449817E+01  0.21591307459E+02  0.00000000000E+00 0.  1.
        -11    1    5    5    0    0  0.34323868917E+03 -0.22658915330E+03  0.28667513600E+03  0.50133629006E+03  0.00000000000E+00 0. -1.
          4    1    6    6  503    0  0.37213348265E+02  0.25253421268E+03  0.13414376412E+04  0.13655084427E+04  0.00000000000E+00 0. -1.
         -4    1    6    6    0  503 -0.64577803332E+01  0.17224773199E+02  0.28239304298E+02  0.33702433827E+02  0.00000000000E+00 0.  1.
<mgrwt>
<rscale>  0 0.19161247E+04</rscale>
<asrwt>0</asrwt>
<pdfrwt beam="1">  1        1 0.73909529E-01 0.19161247E+04</pdfrwt>
<pdfrwt beam="2">  1       -1 0.29394116E+00 0.19161247E+04</pdfrwt>
<totfact> 0.15829914E+00</totfact>
</mgrwt>
</event>
<event>
12    2  0.3518828E-008  0.1511862E+04  0.7818608E-02  0.8876603E-01
         -1   -1    0    0    0  501 -0.00000000000E+00  0.00000000000E+00  0.43489449862E+03  0.43489449862E+03  0.00000000000E+00 0.  1.
          1   -1    0    0  501    0  0.00000000000E+00 -0.00000000000E+00 -0.13139551321E+04  0.13139551321E+04  0.00000000000E+00 0. -1.
         23    2    1    2    0    0 -0.40656776465E+03 -0.24356148097E+03 -0.32261824109E+03  0.58047085456E+03  0.90798354861E+02 0.  0.
        254    2    1    2    0    0  0.40656776465E+03  0.24356148097E+03 -0.55644239239E+03  0.11683787762E+04  0.91151592760E+03 0.  0.
         23    2    4    4    0    0  0.66798436969E+03  0.69632047888E+02 -0.48660638157E+03  0.83437254438E+03  0.91323775574E+02 0.  0.
         23    2    4    4    0    0 -0.26141660505E+03  0.17392943308E+03 -0.69836010817E+02  0.33400623178E+03  0.89961132571E+02 0.  0.
          1    1    3    3  502    0  0.21286573940E+01 -0.12785078704E+02 -0.11845275668E+02  0.17558473038E+02  0.00000000000E+00 0. -1.
         -1    1    3    3    0  502 -0.40869642204E+03 -0.23077640227E+03 -0.31077296542E+03  0.56291238152E+03  0.00000000000E+00 0.  1.
         11    1    5    5    0    0  0.52519408762E+02 -0.18843097591E+02 -0.34678166671E+02  0.65695706611E+02  0.00000000000E+00 0. -1.
        -11    1    5    5    0    0  0.61546496093E+03  0.88475145480E+02 -0.45192821490E+03  0.76867683777E+03  0.00000000000E+00 0.  1.
          4    1    6    6  503    0 -0.22403278711E+02  0.55410407276E+02 -0.10099616857E+02  0.60615364324E+02  0.00000000000E+00 0. -1.
         -4    1    6    6    0  503 -0.23901332633E+03  0.11851902581E+03 -0.59736393960E+02  0.27339086745E+03  0.00000000000E+00 0.  1.
<mgrwt>
<rscale>  0 0.15118622E+04</rscale>
<asrwt>0</asrwt>
<pdfrwt beam="1">  1        1 0.20214694E+00 0.15118622E+04</pdfrwt>
<pdfrwt beam="2">  1       -1 0.66906847E-01 0.15118622E+04</pdfrwt>
<totfact> 0.19334191E+01</totfact>
</mgrwt>
</event>
<event>
12    2  0.3518828E-008  0.2008522E+04  0.7818608E-02  0.8602647E-01
          2   -1    0    0  501    0  0.00000000000E+00  0.00000000000E+00  0.30230392530E+04  0.30230392530E+04  0.00000000000E+00 0.  1.
         -2   -1    0    0    0  501 -0.00000000000E+00 -0.00000000000E+00 -0.33361790779E+03  0.33361790779E+03  0.00000000000E+00 0. -1.
         23    2    1    2    0    0 -0.70510042383E+03  0.17965643255E+03  0.51993390751E+03  0.89902005236E+03  0.91993178676E+02 0.  0.
        254    2    1    2    0    0  0.70510042383E+03 -0.17965643255E+03  0.21694874377E+04  0.24576371084E+04  0.89658316563E+03 0.  0.
         23    2    4    4    0    0  0.24576125432E+03  0.34056889822E+03  0.10844246409E+04  0.11664438526E+04  0.90712131785E+02 0.  0.
         23    2    4    4    0    0  0.45933916951E+03 -0.52022533077E+03  0.10850627968E+04  0.12911932558E+04  0.90509024501E+02 0.  0.
          4    1    3    3  502    0 -0.34282510349E+03  0.13193080343E+03  0.28000870567E+03  0.46188706816E+03  0.00000000000E+00 0. -1.
         -4    1    3    3    0  502 -0.36227532034E+03  0.47725629121E+02  0.23992520184E+03  0.43713298420E+03  0.00000000000E+00 0.  1.
         11    1    5    5    0    0 -0.15892281452E+01  0.75919971203E+01  0.70910311330E+02  0.71333276381E+02  0.00000000000E+00 0. -1.
        -11    1    5    5    0    0  0.24735048247E+03  0.33297690110E+03  0.10135143296E+04  0.10951105762E+04  0.00000000000E+00 0.  1.
          1    1    6    6  503    0  0.39637734518E+03 -0.41271700562E+03  0.84175105020E+03  0.10178384729E+04  0.00000000000E+00 0. -1.
         -1    1    6    6    0  503  0.62961824330E+02 -0.10750832515E+03  0.24331174657E+03  0.27335478287E+03  0.00000000000E+00 0.  1.
<mgrwt>
<rscale>  0 0.20085219E+04</rscale>
<asrwt>0</asrwt>
<pdfrwt beam="1">  1        2 0.46508294E+00 0.20085219E+04</pdfrwt>
<pdfrwt beam="2">  1       -2 0.51325834E-01 0.20085219E+04</pdfrwt>
<totfact> 0.56216303E+00</totfact>
</mgrwt>
</event>
<event>
12    2  0.3518828E-008  0.1954163E+04  0.7818608E-02  0.8628356E-01
          2   -1    0    0  501    0  0.00000000000E+00  0.00000000000E+00  0.95906535743E+03  0.95906535743E+03  0.00000000000E+00 0. -1.
         -2   -1    0    0    0  501 -0.00000000000E+00 -0.00000000000E+00 -0.99543618450E+03  0.99543618450E+03  0.00000000000E+00 0.  1.
         23    2    1    2    0    0  0.36395610631E+02 -0.52721274281E+03  0.54069436632E+03  0.76206517344E+03  0.95472583201E+02 0.  0.
        254    2    1    2    0    0 -0.36395610631E+02  0.52721274281E+03 -0.57706519340E+03  0.11924363685E+04  0.89979016378E+03 0.  0.
         23    2    4    4    0    0  0.32173585825E+03  0.18216216217E+03  0.52980377673E+02  0.38447042882E+03  0.91178804590E+02 0.  0.
         23    2    4    4    0    0 -0.35813146889E+03  0.34505058064E+03 -0.63004557107E+03  0.80796593967E+03  0.92376868562E+02 0.  0.
          4    1    3    3  502    0  0.20023979574E+02 -0.51580222211E+03  0.51143843030E+03  0.72665133322E+03  0.00000000000E+00 0. -1.
         -4    1    3    3    0  502  0.16371631058E+02 -0.11410520701E+02  0.29255936027E+02  0.35413840217E+02  0.00000000000E+00 0.  1.
         11    1    5    5    0    0  0.35835461918E+02  0.12425200126E+02  0.34814995488E+02  0.51484462121E+02  0.00000000000E+00 0.  1.
        -11    1    5    5    0    0  0.28590039634E+03  0.16973696205E+03  0.18165382185E+02  0.33298596670E+03  0.00000000000E+00 0. -1.
          3    1    6    6  503    0 -0.32272821260E+03  0.26260811367E+03 -0.51536452582E+03  0.66235724125E+03  0.00000000000E+00 0. -1.
         -3    1    6    6    0  503 -0.35403256290E+02  0.82442466968E+02 -0.11468104525E+03  0.14560869842E+03  0.00000000000E+00 0.  1.
<mgrwt>
<rscale>  0 0.19541631E+04</rscale>
<asrwt>0</asrwt>
<pdfrwt beam="1">  1        2 0.14754852E+00 0.19541631E+04</pdfrwt>
<pdfrwt beam="2">  1       -2 0.15314403E+00 0.19541631E+04</pdfrwt>
<totfact> 0.70788275E+00</totfact>
</mgrwt>
</event>
<event>
12    2  0.3518828E-008  0.1584409E+04  0.7818608E-02  0.8830184E-01
          2   -1    0    0  501    0  0.00000000000E+00  0.00000000000E+00  0.37994333414E+04  0.37994333414E+04  0.00000000000E+00 0. -1.
         -2   -1    0    0    0  501 -0.00000000000E+00 -0.00000000000E+00 -0.16517925659E+03  0.16517925659E+03  0.00000000000E+00 0.  1.
         23    2    1    2    0    0  0.31327568309E+03 -0.36113873729E+03  0.17823791878E+04  0.18475987154E+04  0.90457741841E+02 0.  0.
        254    2    1    2    0    0 -0.31327568309E+03  0.36113873729E+03  0.18518748971E+04  0.21170138826E+04  0.90760360484E+03 0.  0.
         23    2    4    4    0    0 -0.42244742006E+03  0.60325628452E+03  0.14126623401E+04  0.15956926344E+04  0.90775155144E+02 0.  0.
         23    2    4    4    0    0  0.10917173697E+03 -0.24211754724E+03  0.43921255692E+03  0.52132124816E+03  0.91262252838E+02 0.  0.
          1    1    3    3  502    0  0.16978968401E+03 -0.16250864307E+03  0.72260367667E+03  0.75986424407E+03  0.00000000000E+00 0. -1.
         -1    1    3    3    0  502  0.14348599908E+03 -0.19863009421E+03  0.10597755111E+04  0.10877344714E+04  0.00000000000E+00 0.  1.
         11    1    5    5    0    0 -0.17233712342E+03  0.32248908767E+03  0.72187096982E+03  0.80919527486E+03  0.00000000000E+00 0. -1.
        -11    1    5    5    0    0 -0.25011029663E+03  0.28076719686E+03  0.69079137031E+03  0.78649735957E+03  0.00000000000E+00 0.  1.
          2    1    6    6  503    0  0.45778223542E+02 -0.13714550296E+03  0.15599164067E+03  0.21269209363E+03  0.00000000000E+00 0. -1.
         -2    1    6    6    0  503  0.63393513425E+02 -0.10497204427E+03  0.28322091625E+03  0.30862915453E+03  0.00000000000E+00 0.  1.
<mgrwt>
<rscale>  0 0.15844085E+04</rscale>
<asrwt>0</asrwt>
<pdfrwt beam="1">  1        2 0.58452814E+00 0.15844085E+04</pdfrwt>
<pdfrwt beam="2">  1       -2 0.25412196E-01 0.15844085E+04</pdfrwt>
<totfact> 0.66854336E+00</totfact>
</mgrwt>
</event>
<event>
12    2  0.3518828E-008  0.1201494E+04  0.7818608E-02  0.9111550E-01
          2   -1    0    0  501    0  0.00000000000E+00  0.00000000000E+00  0.26102670184E+03  0.26102670184E+03  0.00000000000E+00 0. -1.
         -2   -1    0    0    0  501 -0.00000000000E+00 -0.00000000000E+00 -0.13826049495E+04  0.13826049495E+04  0.00000000000E+00 0.  1.
         23    2    1    2    0    0  0.66486077833E+02 -0.63315236301E+02  0.64539703337E+02  0.14488862368E+03  0.91641269475E+02 0.  0.
        254    2    1    2    0    0 -0.66486077833E+02  0.63315236301E+02 -0.11861179510E+04  0.14987430276E+04  0.91155123366E+03 0.  0.
         23    2    4    4    0    0  0.31867360693E+03 -0.47584867147E+02 -0.11873974614E+03  0.35474282307E+03  0.89028960849E+02 0.  0.
         23    2    4    4    0    0 -0.38515968476E+03  0.11090010345E+03 -0.10673782048E+04  0.11440002046E+04  0.93773238289E+02 0.  0.
          1    1    3    3  502    0  0.75840370851E+02 -0.11243697269E+02  0.41551109714E+02  0.87204800886E+02  0.00000000000E+00 0. -1.
         -1    1    3    3    0  502 -0.93542930187E+01 -0.52071539032E+02  0.22988593623E+02  0.57683822791E+02  0.00000000000E+00 0.  1.
         11    1    5    5    0    0  0.21897785731E+03 -0.67415364211E+02 -0.10547453693E+03  0.25223205836E+03  0.00000000000E+00 0. -1.
        -11    1    5    5    0    0  0.99695749616E+02  0.19830497064E+02 -0.13265209216E+02  0.10251076471E+03  0.00000000000E+00 0.  1.
          2    1    6    6  503    0 -0.33718148040E+03  0.11948439728E+03 -0.86958742620E+03  0.94029259475E+03  0.00000000000E+00 0. -1.
         -2    1    6    6    0  503 -0.47978204355E+02 -0.85842938367E+01 -0.19779077863E+03  0.20370760984E+03  0.00000000000E+00 0.  1.
<mgrwt>
<rscale>  0 0.12014938E+04</rscale>
<asrwt>0</asrwt>
<pdfrwt beam="1">  1        2 0.40157953E-01 0.12014938E+04</pdfrwt>
<pdfrwt beam="2">  1       -2 0.21270846E+00 0.12014938E+04</pdfrwt>
<totfact> 0.13919776E+01</totfact>
</mgrwt>
</event>
<event>
12    2  0.3518828E-008  0.1571871E+04  0.7818608E-02  0.8838018E-01
         -4   -1    0    0    0  501 -0.00000000000E+00  0.00000000000E+00  0.39104766443E+03  0.39104766443E+03  0.00000000000E+00 0.  1.
          4   -1    0    0  501    0  0.00000000000E+00 -0.00000000000E+00 -0.15795884618E+04  0.15795884618E+04  0.00000000000E+00 0. -1.
         23    2    1    2    0    0 -0.21779084554E+03 -0.48272579343E+03 -0.41108553779E+03  0.67652475386E+03  0.90760008600E+02 0.  0.
        254    2    1    2    0    0  0.21779084554E+03  0.48272579343E+03 -0.77745525959E+03  0.12941113724E+04  0.88872409633E+03 0.  0.
         23    2    4    4    0    0  0.31776907153E+02  0.29262947601E+03 -0.92604827705E+03  0.97623362101E+03  0.93940881887E+02 0.  0.
         23    2    4    4    0    0  0.18601393839E+03  0.19009631742E+03  0.14859301746E+03  0.31787775137E+03  0.90711547269E+02 0.  0.
          2    1    3    3  502    0 -0.33451585183E+02 -0.15351335672E+03 -0.15365650298E+03  0.21976278154E+03  0.00000000000E+00 0. -1.
         -2    1    3    3    0  502 -0.18433926036E+03 -0.32921243671E+03 -0.25742903482E+03  0.45676197232E+03  0.00000000000E+00 0.  1.
         11    1    5    5    0    0  0.59052730217E+02  0.25859415869E+03 -0.78598995475E+03  0.82954106157E+03  0.00000000000E+00 0.  1.
        -11    1    5    5    0    0 -0.27275823063E+02  0.34035317326E+02 -0.14005832230E+03  0.14669255944E+03  0.00000000000E+00 0. -1.
          3    1    6    6  503    0 -0.59774437440E+01  0.20369935588E+02  0.26689908893E+02  0.34103010810E+02  0.00000000000E+00 0. -1.
         -3    1    6    6    0  503  0.19199138213E+03  0.16972638183E+03  0.12190310857E+03  0.28377474056E+03  0.00000000000E+00 0.  1.
<mgrwt>
<rscale>  0 0.15718707E+04</rscale>
<asrwt>0</asrwt>
<pdfrwt beam="1">  1        4 0.24301361E+00 0.15718707E+04</pdfrwt>
<pdfrwt beam="2">  1       -4 0.60161180E-01 0.15718707E+04</pdfrwt>
<totfact> 0.35039873E-01</totfact>
</mgrwt>
</event>
<event>
12    2  0.3518828E-008  0.1603588E+04  0.7818608E-02  0.8818347E-01
          1   -1    0    0  501    0  0.00000000000E+00  0.00000000000E+00  0.12146819109E+04  0.12146819109E+04  0.00000000000E+00 0. -1.
         -1   -1    0    0    0  501 -0.00000000000E+00 -0.00000000000E+00 -0.52925256150E+03  0.52925256150E+03  0.00000000000E+00 0.  1.
         23    2    1    2    0    0  0.32565193758E+03  0.24319425973E+03 -0.16236235317E+03  0.44817618129E+03  0.96476542936E+02 0.  0.
        254    2    1    2    0    0 -0.32565193758E+03 -0.24319425973E+03  0.84779170260E+03  0.12957582911E+04  0.89165360182E+03 0.  0.
         23    2    4    4    0    0  0.15473792602E+03  0.10592853243E+03  0.61840103559E+03  0.65239343593E+03  0.89625190038E+02 0.  0.
         23    2    4    4    0    0 -0.48038986360E+03 -0.34912279216E+03  0.22939066700E+03  0.64336485521E+03  0.92936073506E+02 0.  0.
          1    1    3    3  502    0  0.13018373795E+03  0.53343809339E+02 -0.24536457537E+02  0.14281248325E+03  0.00000000000E+00 0. -1.
         -1    1    3    3    0  502  0.19546819963E+03  0.18985045039E+03 -0.13782589563E+03  0.30536369805E+03  0.00000000000E+00 0.  1.
         11    1    5    5    0    0  0.15409237450E+03  0.11883862066E+03  0.57027745015E+03  0.60256406115E+03  0.00000000000E+00 0. -1.
        -11    1    5    5    0    0  0.64555152502E+00 -0.12910088237E+02  0.48123585436E+02  0.49829374773E+02  0.00000000000E+00 0.  1.
          4    1    6    6  503    0 -0.16734927681E+03 -0.16521760831E+03  0.12098700949E+03  0.26446265334E+03  0.00000000000E+00 0. -1.
         -4    1    6    6    0  503 -0.31304058679E+03 -0.18390518385E+03  0.10840365752E+03  0.37890220187E+03  0.00000000000E+00 0.  1.
<mgrwt>
<rscale>  0 0.16035879E+04</rscale>
<asrwt>0</asrwt>
<pdfrwt beam="1">  1        1 0.18687414E+00 0.16035879E+04</pdfrwt>
<pdfrwt beam="2">  1       -1 0.81423472E-01 0.16035879E+04</pdfrwt>
<totfact> 0.15022952E+01</totfact>
</mgrwt>
</event>
<event>
12    2  0.3518828E-008  0.3381109E+04  0.7818608E-02  0.8142558E-01
          1   -1    0    0  501    0  0.00000000000E+00  0.00000000000E+00  0.21039865633E+04  0.21039865633E+04  0.00000000000E+00 0. -1.
         -1   -1    0    0    0  501 -0.00000000000E+00 -0.00000000000E+00 -0.13583618793E+04  0.13583618793E+04  0.00000000000E+00 0.  1.
         23    2    1    2    0    0  0.12307765200E+04  0.53366396145E+03 -0.48191940048E+03  0.14278044641E+04  0.82287381883E+02 0.  0.
        254    2    1    2    0    0 -0.12307765200E+04 -0.53366396145E+03  0.12275440844E+04  0.20345439785E+04  0.91263171934E+03 0.  0.
         23    2    4    4    0    0  0.10135809795E+03 -0.18221110216E+03  0.86132530578E+02  0.24313728953E+03  0.90678437154E+02 0.  0.
         23    2    4    4    0    0 -0.13321346180E+04 -0.35145285928E+03  0.11414115539E+04  0.17914066889E+04  0.90641255757E+02 0.  0.
          1    1    3    3  502    0  0.47240321221E+03  0.24800489712E+03 -0.19898383735E+03  0.56944340494E+03  0.00000000000E+00 0. -1.
         -1    1    3    3    0  502  0.75837330781E+03  0.28565906432E+03 -0.28293556313E+03  0.85836105918E+03  0.00000000000E+00 0.  1.
         11    1    5    5    0    0 -0.74985311263E+01 -0.72231490950E+02  0.26603962752E+02  0.77339427771E+02  0.00000000000E+00 0. -1.
        -11    1    5    5    0    0  0.10885662907E+03 -0.10997961121E+03  0.59528567826E+02  0.16579786176E+03  0.00000000000E+00 0.  1.
          2    1    6    6  503    0 -0.77749521781E+03 -0.16060229657E+03  0.64028592264E+03  0.10199303771E+04  0.00000000000E+00 0. -1.
         -2    1    6    6    0  503 -0.55463940015E+03 -0.19085056271E+03  0.50112563122E+03  0.77147631185E+03  0.00000000000E+00 0.  1.
<mgrwt>
<rscale>  0 0.33811094E+04</rscale>
<asrwt>0</asrwt>
<pdfrwt beam="1">  1        1 0.32369024E+00 0.33811094E+04</pdfrwt>
<pdfrwt beam="2">  1       -1 0.20897875E+00 0.33811094E+04</pdfrwt>
<totfact> 0.27261881E-01</totfact>
</mgrwt>
</event>
<event>
12    2  0.3518828E-008  0.1149944E+04  0.7818608E-02  0.9157835E-01
         -1   -1    0    0    0  501 -0.00000000000E+00  0.00000000000E+00  0.18271972039E+03  0.18271972039E+03  0.00000000000E+00 0.  1.
          1   -1    0    0  501    0  0.00000000000E+00 -0.00000000000E+00 -0.18092893382E+04  0.18092893382E+04  0.00000000000E+00 0. -1.
         23    2    1    2    0    0 -0.14048081179E+03 -0.13407517270E+03 -0.43599413551E+03  0.48594219952E+03  0.91312237185E+02 0.  0.
        254    2    1    2    0    0  0.14048081179E+03  0.13407517270E+03 -0.11905754823E+04  0.15060668591E+04  0.90169639822E+03 0.  0.
         23    2    4    4    0    0 -0.55958157412E+02 -0.21767669564E+03  0.31769238640E+01  0.24287600624E+03  0.92001099761E+02 0.  0.
         23    2    4    4    0    0  0.19643896920E+03  0.35175186834E+03 -0.11937524062E+04  0.12631908529E+04  0.91042176863E+02 0.  0.
          2    1    3    3  502    0 -0.44236238803E+02 -0.33066731613E+02 -0.23412479215E+03  0.24055076774E+03  0.00000000000E+00 0. -1.
         -2    1    3    3    0  502 -0.96244572988E+02 -0.10100844109E+03 -0.20186934336E+03  0.24539143178E+03  0.00000000000E+00 0.  1.
         11    1    5    5    0    0 -0.15716170275E+02 -0.94000196393E+02 -0.43409440522E+02  0.10472542412E+03  0.00000000000E+00 0.  1.
        -11    1    5    5    0    0 -0.40241987137E+02 -0.12367649925E+03  0.46586364386E+02  0.13815058212E+03  0.00000000000E+00 0. -1.
          4    1    6    6  503    0  0.12273901653E+03  0.19534188199E+03 -0.81142398943E+03  0.84358295838E+03  0.00000000000E+00 0. -1.
         -4    1    6    6    0  503  0.73699952671E+02  0.15640998635E+03 -0.38232841677E+03  0.41960789449E+03  0.00000000000E+00 0.  1.
<mgrwt>
<rscale>  0 0.11499441E+04</rscale>
<asrwt>0</asrwt>
<pdfrwt beam="1">  1        1 0.27835221E+00 0.11499441E+04</pdfrwt>
<pdfrwt beam="2">  1       -1 0.28110726E-01 0.11499441E+04</pdfrwt>
<totfact> 0.45646292E+01</totfact>
</mgrwt>
</event>
<event>
12    2  0.3518828E-008  0.2083945E+04  0.7818608E-02  0.8568349E-01
          1   -1    0    0  501    0  0.00000000000E+00  0.00000000000E+00  0.67783766448E+03  0.67783766448E+03  0.00000000000E+00 0. -1.
         -1   -1    0    0    0  501 -0.00000000000E+00 -0.00000000000E+00 -0.16017210011E+04  0.16017210011E+04  0.00000000000E+00 0.  1.
         23    2    1    2    0    0  0.26143919874E+02  0.56388753488E+03 -0.10615889686E+04  0.12056956715E+04  0.89879126705E+02 0.  0.
        254    2    1    2    0    0 -0.26143919874E+02 -0.56388753488E+03  0.13770563200E+03  0.10738629941E+04  0.90308705697E+03 0.  0.
         23    2    4    4    0    0  0.33538967472E+03  0.45197727502E+02  0.63828316457E+02  0.35625917627E+03  0.91200209530E+02 0.  0.
         23    2    4    4    0    0 -0.36153359459E+03 -0.60908526238E+03  0.73877315540E+02  0.71760381782E+03  0.88351484078E+02 0.  0.
          3    1    3    3  502    0 -0.24126290636E+02  0.21543861181E+03 -0.46329878661E+03  0.51150917785E+03  0.00000000000E+00 0. -1.
         -3    1    3    3    0  502  0.50270210510E+02  0.34844892307E+03 -0.59829018202E+03  0.69418649364E+03  0.00000000000E+00 0.  1.
         11    1    5    5    0    0  0.65095856812E+02 -0.19603866498E+02 -0.98825969117E+01  0.68698237805E+02  0.00000000000E+00 0.  1.
        -11    1    5    5    0    0  0.27029381790E+03  0.64801594000E+02  0.73710913369E+02  0.28756093847E+03  0.00000000000E+00 0. -1.
          1    1    6    6  503    0 -0.33246449444E+03 -0.59404199275E+03  0.74902493098E+02  0.68485685562E+03  0.00000000000E+00 0. -1.
         -1    1    6    6    0  503 -0.29069100150E+02 -0.15043269627E+02 -0.10251775579E+01  0.32746962204E+02  0.00000000000E+00 0.  1.
<mgrwt>
<rscale>  0 0.20839451E+04</rscale>
<asrwt>0</asrwt>
<pdfrwt beam="1">  1        1 0.10428272E+00 0.20839451E+04</pdfrwt>
<pdfrwt beam="2">  1       -1 0.24641862E+00 0.20839451E+04</pdfrwt>
<totfact> 0.19383955E+00</totfact>
</mgrwt>
</event>
<event>
12    2  0.3518828E-008  0.1854743E+04  0.7818608E-02  0.8677717E-01
         -2   -1    0    0    0  501 -0.00000000000E+00  0.00000000000E+00  0.48917351111E+03  0.48917351111E+03  0.00000000000E+00 0.  1.
          2   -1    0    0  501    0  0.00000000000E+00 -0.00000000000E+00 -0.17581046819E+04  0.17581046819E+04  0.00000000000E+00 0. -1.
         23    2    1    2    0    0  0.46932718302E+03  0.49168500476E+03 -0.64799053776E+03  0.94331112590E+03  0.89005587437E+02 0.  0.
        254    2    1    2    0    0 -0.46932718302E+03 -0.49168500476E+03 -0.62094063301E+03  0.13039670671E+04  0.92343959939E+03 0.  0.
         23    2    4    4    0    0  0.17782299021E+01 -0.60441015107E+03 -0.16925151455E+03  0.63407040016E+03  0.89913315846E+02 0.  0.
         23    2    4    4    0    0 -0.47110541292E+03  0.11272514631E+03 -0.45168911847E+03  0.66989666693E+03  0.10045504433E+03 0.  0.
          3    1    3    3  502    0  0.41288158415E+03  0.44726157685E+03 -0.61122746109E+03  0.86261992200E+03  0.00000000000E+00 0. -1.
         -3    1    3    3    0  502  0.56445598876E+02  0.44423427913E+02 -0.36763076670E+02  0.80691203896E+02  0.00000000000E+00 0.  1.
         11    1    5    5    0    0  0.39783261497E+01 -0.53399615725E+03 -0.11784249110E+03  0.54685882615E+03  0.00000000000E+00 0. -1.
        -11    1    5    5    0    0 -0.22000962476E+01 -0.70413993826E+02 -0.51409023441E+02  0.87211574009E+02  0.00000000000E+00 0.  1.
          2    1    6    6  503    0 -0.29303695858E+03  0.57423439537E+02 -0.34014026569E+03  0.45261850476E+03  0.00000000000E+00 0. -1.
         -2    1    6    6    0  503 -0.17806845434E+03  0.55301706777E+02 -0.11154885277E+03  0.21727816218E+03  0.00000000000E+00 0.  1.
<mgrwt>
<rscale>  0 0.18547434E+04</rscale>
<asrwt>0</asrwt>
<pdfrwt beam="1">  1        2 0.27047764E+00 0.18547434E+04</pdfrwt>
<pdfrwt beam="2">  1       -2 0.75257464E-01 0.18547434E+04</pdfrwt>
<totfact> 0.13559074E+01</totfact>
</mgrwt>
</event>
<event>
12    2  0.3518828E-008  0.1609139E+04  0.7818608E-02  0.8814953E-01
         -2   -1    0    0    0  501 -0.00000000000E+00  0.00000000000E+00  0.95896911939E+03  0.95896911939E+03  0.00000000000E+00 0.  1.
          2   -1    0    0  501    0  0.00000000000E+00 -0.00000000000E+00 -0.67502876119E+03  0.67502876119E+03  0.00000000000E+00 0. -1.
         23    2    1    2    0    0 -0.11010834599E+03 -0.31641680857E+03 -0.35103131201E+03  0.49359359442E+03  0.90378149122E+02 0.  0.
        254    2    1    2    0    0  0.11010834599E+03  0.31641680857E+03  0.63497167021E+03  0.11404042862E+04  0.88605274635E+03 0.  0.
         23    2    4    4    0    0  0.46139896501E+03  0.13512381945E+03  0.15788739036E+03  0.51433968995E+03  0.92029544843E+02 0.  0.
         23    2    4    4    0    0 -0.35129061902E+03  0.18129298912E+03  0.47708427985E+03  0.62606459621E+03  0.89862236951E+02 0.  0.
          1    1    3    3  502    0 -0.84759279033E+01 -0.56184609454E+02 -0.19560637461E+02  0.60093013164E+02  0.00000000000E+00 0.  1.
         -1    1    3    3    0  502 -0.10163241809E+03 -0.26023219912E+03 -0.33147067455E+03  0.43350058125E+03  0.00000000000E+00 0. -1.
         11    1    5    5    0    0  0.12613365307E+03  0.56039270737E+02  0.67835245418E+01  0.13818869168E+03  0.00000000000E+00 0.  1.
        -11    1    5    5    0    0  0.33526531194E+03  0.79084548711E+02  0.15110386582E+03  0.37615099827E+03  0.00000000000E+00 0. -1.
          1    1    6    6  503    0 -0.25542875728E+03  0.13314449716E+03  0.28018725380E+03  0.40184101876E+03  0.00000000000E+00 0. -1.
         -1    1    6    6    0  503 -0.95861861741E+02  0.48148491963E+02  0.19689702605E+03  0.22422357745E+03  0.00000000000E+00 0.  1.
<mgrwt>
<rscale>  0 0.16091386E+04</rscale>
<asrwt>0</asrwt>
<pdfrwt beam="1">  1        2 0.10385058E+00 0.16091386E+04</pdfrwt>
<pdfrwt beam="2">  1       -2 0.14753371E+00 0.16091386E+04</pdfrwt>
<totfact> 0.12860517E+01</totfact>
</mgrwt>
</event>
<event>
12    2  0.3518828E-008  0.1232161E+04  0.7818608E-02  0.9085162E-01
          3   -1    0    0  501    0  0.00000000000E+00  0.00000000000E+00  0.69410590035E+03  0.69410590035E+03  0.00000000000E+00 0. -1.
         -3   -1    0    0    0  501 -0.00000000000E+00 -0.00000000000E+00 -0.54682648150E+03  0.54682648150E+03  0.00000000000E+00 0.  1.
         23    2    1    2    0    0  0.26593512409E+03 -0.62781227250E+02  0.71179123806E+02  0.29583019538E+03  0.88238676992E+02 0.  0.
        254    2    1    2    0    0 -0.26593512409E+03  0.62781227250E+02  0.76100295035E+02  0.94510218647E+03  0.90153420082E+03 0.  0.
         23    2    4    4    0    0 -0.11097224917E+03  0.16379361673E+03  0.46027782328E+03  0.50918557951E+03  0.90945537633E+02 0.  0.
         23    2    4    4    0    0 -0.15496287491E+03 -0.10101238948E+03 -0.38417752824E+03  0.43591660695E+03  0.90630676840E+02 0.  0.
          3    1    3    3  502    0 -0.41090687031E+01  0.46383770470E+01  0.85135369348E+01  0.10529923949E+02  0.00000000000E+00 0. -1.
         -3    1    3    3    0  502  0.27004419279E+03 -0.67419604297E+02  0.62665586872E+02  0.28530027143E+03  0.00000000000E+00 0.  1.
         11    1    5    5    0    0 -0.45918449912E+02  0.10131701774E+03  0.15447141856E+03  0.19035509260E+03  0.00000000000E+00 0. -1.
        -11    1    5    5    0    0 -0.65053799263E+02  0.62476598983E+02  0.30580640472E+03  0.31883048691E+03  0.00000000000E+00 0.  1.
          4    1    6    6  503    0 -0.22271678953E+02  0.12827273774E+02 -0.22334292408E+02  0.34049776111E+02  0.00000000000E+00 0. -1.
         -4    1    6    6    0  503 -0.13269119596E+03 -0.11383966325E+03 -0.36184323583E+03  0.40186683084E+03  0.00000000000E+00 0.  1.
<mgrwt>
<rscale>  0 0.12321615E+04</rscale>
<asrwt>0</asrwt>
<pdfrwt beam="1">  1        3 0.10678552E+00 0.12321615E+04</pdfrwt>
<pdfrwt beam="2">  1       -3 0.84127151E-01 0.12321615E+04</pdfrwt>
<totfact> 0.25129294E+00</totfact>
</mgrwt>
</event>
<event>
12    2  0.3518828E-008  0.1651151E+04  0.7818608E-02  0.8789726E-01
          1   -1    0    0  501    0  0.00000000000E+00  0.00000000000E+00  0.95623597641E+03  0.95623597641E+03  0.00000000000E+00 0. -1.
         -1   -1    0    0    0  501 -0.00000000000E+00 -0.00000000000E+00 -0.71276891752E+03  0.71276891752E+03  0.00000000000E+00 0.  1.
         23    2    1    2    0    0 -0.21713935980E+03  0.19134802124E+03 -0.41540641870E+03  0.51415735464E+03  0.89619896376E+02 0.  0.
        254    2    1    2    0    0  0.21713935980E+03 -0.19134802124E+03  0.65887347759E+03  0.11548475393E+04  0.90321371376E+03 0.  0.
         23    2    4    4    0    0  0.29846767129E+03  0.28441708926E+03  0.15131015384E+03  0.44827813724E+03  0.89902693008E+02 0.  0.
         23    2    4    4    0    0 -0.81328311489E+02 -0.47576511049E+03  0.50756332374E+03  0.70656940205E+03  0.93021812944E+02 0.  0.
          3    1    3    3  502    0 -0.28669756904E+02  0.68500768342E+01 -0.11235837890E+02  0.31545563344E+02  0.00000000000E+00 0. -1.
         -3    1    3    3    0  502 -0.18846960289E+03  0.18449794441E+03 -0.40417058081E+03  0.48261179130E+03  0.00000000000E+00 0.  1.
         11    1    5    5    0    0  0.23027742886E+03  0.26199435131E+03  0.11151315942E+03  0.36620201950E+03  0.00000000000E+00 0.  1.
        -11    1    5    5    0    0  0.68190242424E+02  0.22422737947E+02  0.39796994422E+02  0.82076117744E+02  0.00000000000E+00 0. -1.
          4    1    6    6  503    0 -0.37985647169E+02 -0.56982592692E+02  0.94966716603E+02  0.11708374150E+03  0.00000000000E+00 0. -1.
         -4    1    6    6    0  503 -0.43342664320E+02 -0.41878251780E+03  0.41259660714E+03  0.58948566055E+03  0.00000000000E+00 0.  1.
<mgrwt>
<rscale>  0 0.16511515E+04</rscale>
<asrwt>0</asrwt>
<pdfrwt beam="1">  1        1 0.14711323E+00 0.16511515E+04</pdfrwt>
<pdfrwt beam="2">  1       -1 0.10965676E+00 0.16511515E+04</pdfrwt>
<totfact> 0.12040149E+01</totfact>
</mgrwt>
</event>
<event>
12    2  0.3518828E-008  0.2336081E+04  0.7818608E-02  0.8463829E-01
         -1   -1    0    0    0  501 -0.00000000000E+00  0.00000000000E+00  0.59016492119E+03  0.59016492119E+03  0.00000000000E+00 0.  1.
          1   -1    0    0  501    0  0.00000000000E+00 -0.00000000000E+00 -0.23117585352E+04  0.23117585352E+04  0.00000000000E+00 0. -1.
         23    2    1    2    0    0 -0.78753795692E+03  0.42810191345E+03 -0.13497616766E+04  0.16230151266E+04  0.93990614725E+02 0.  0.
        254    2    1    2    0    0  0.78753795692E+03 -0.42810191345E+03 -0.37183193747E+03  0.12789083298E+04  0.83298273963E+03 0.  0.
         23    2    4    4    0    0  0.11628207774E+03  0.15546287368E+03  0.13271918165E+03  0.25242011237E+03  0.91713168387E+02 0.  0.
         23    2    4    4    0    0  0.67125587918E+03 -0.58356478713E+03 -0.50455111911E+03  0.10264882175E+04  0.89296767550E+02 0.  0.
          3    1    3    3  502    0 -0.67889064967E+03  0.34844589032E+03 -0.11946515834E+04  0.14175681495E+04  0.00000000000E+00 0. -1.
         -3    1    3    3    0  502 -0.10864730725E+03  0.79656023133E+02 -0.15511009315E+03  0.20544697708E+03  0.00000000000E+00 0.  1.
         11    1    5    5    0    0  0.96267986702E+02  0.95545055613E+02  0.13197262604E+03  0.18924364438E+03  0.00000000000E+00 0.  1.
        -11    1    5    5    0    0  0.20014091038E+02  0.59917818067E+02  0.74655560737E+00  0.63176467987E+02  0.00000000000E+00 0. -1.
          3    1    6    6  503    0  0.42127234240E+03 -0.36366629045E+03 -0.26547071248E+03  0.61660218656E+03  0.00000000000E+00 0. -1.
         -3    1    6    6    0  503  0.24998353678E+03 -0.21989849668E+03 -0.23908040663E+03  0.40988603091E+03  0.00000000000E+00 0.  1.
<mgrwt>
<rscale>  0 0.23360812E+04</rscale>
<asrwt>0</asrwt>
<pdfrwt beam="1">  1        1 0.35565517E+00 0.23360812E+04</pdfrwt>
<pdfrwt beam="2">  1       -1 0.90794602E-01 0.23360812E+04</pdfrwt>
<totfact> 0.19497755E+00</totfact>
</mgrwt>
</event>
<event>
12    2  0.3518828E-008  0.1161373E+04  0.7818608E-02  0.9147356E-01
         -1   -1    0    0    0  501 -0.00000000000E+00  0.00000000000E+00  0.19513202469E+03  0.19513202469E+03  0.00000000000E+00 0.  1.
          1   -1    0    0  501    0  0.00000000000E+00 -0.00000000000E+00 -0.17280430012E+04  0.17280430012E+04  0.00000000000E+00 0. -1.
         23    2    1    2    0    0  0.13742175649E+03  0.85862203571E+02 -0.70973214525E+02  0.19913240396E+03  0.91430082388E+02 0.  0.
        254    2    1    2    0    0 -0.13742175649E+03 -0.85862203571E+02 -0.14619377620E+04  0.17240426219E+04  0.89933524626E+03 0.  0.
         23    2    4    4    0    0  0.46575313787E+02 -0.33790233020E+03 -0.13249437394E+04  0.13712343441E+04  0.91980809592E+02 0.  0.
         23    2    4    4    0    0 -0.18399707028E+03  0.25204012663E+03 -0.13699402256E+03  0.35280827778E+03  0.91253336115E+02 0.  0.
          1    1    3    3  502    0  0.14305117601E+01 -0.10925272347E+02  0.88289014167E+01  0.14119399420E+02  0.00000000000E+00 0. -1.
         -1    1    3    3    0  502  0.13599124473E+03  0.96787475918E+02 -0.79802115942E+02  0.18501300454E+03  0.00000000000E+00 0.  1.
         11    1    5    5    0    0  0.51333113839E+02 -0.78319199067E+02 -0.34629132103E+03  0.35872923569E+03  0.00000000000E+00 0. -1.
        -11    1    5    5    0    0 -0.47578000515E+01 -0.25958313113E+03 -0.97865241838E+03  0.10125051085E+04  0.00000000000E+00 0.  1.
          3    1    6    6  503    0 -0.94034228113E+02  0.13995455632E+03 -0.24685770432E+02  0.17040862993E+03  0.00000000000E+00 0. -1.
         -3    1    6    6    0  503 -0.89962842170E+02  0.11208557031E+03 -0.11230825212E+03  0.18239964785E+03  0.00000000000E+00 0.  1.
<mgrwt>
<rscale>  0 0.11613725E+04</rscale>
<asrwt>0</asrwt>
<pdfrwt beam="1">  1        1 0.26585277E+00 0.11613725E+04</pdfrwt>
<pdfrwt beam="2">  1       -1 0.30020311E-01 0.11613725E+04</pdfrwt>
<totfact> 0.46152716E+01</totfact>
</mgrwt>
</event>
<event>
12    2  0.3518828E-008  0.1254420E+04  0.7818608E-02  0.9066513E-01
         -3   -1    0    0    0  501 -0.00000000000E+00  0.00000000000E+00  0.39889645982E+03  0.39889645982E+03  0.00000000000E+00 0.  1.
          3   -1    0    0  501    0  0.00000000000E+00 -0.00000000000E+00 -0.98620110022E+03  0.98620110022E+03  0.00000000000E+00 0. -1.
         23    2    1    2    0    0  0.49248734614E+02  0.69148785210E+01 -0.47130760501E+03  0.48187654690E+03  0.87183109110E+02 0.  0.
        254    2    1    2    0    0 -0.49248734614E+02 -0.69148785210E+01 -0.11599703539E+03  0.90322101313E+03  0.89435990123E+03 0.  0.
         23    2    4    4    0    0 -0.30708105189E+03  0.10765090067E+03  0.25970199848E+03  0.42600216895E+03  0.90250934017E+02 0.  0.
         23    2    4    4    0    0  0.25783231728E+03 -0.11456577919E+03 -0.37569903388E+03  0.47721884418E+03  0.83577745768E+02 0.  0.
          2    1    3    3  502    0  0.11452808584E+02  0.27546505330E+02 -0.37728476934E+03  0.37846238116E+03  0.00000000000E+00 0. -1.
         -2    1    3    3    0  502  0.37795926029E+02 -0.20631626809E+02 -0.94022835668E+02  0.10341416574E+03  0.00000000000E+00 0.  1.
         11    1    5    5    0    0 -0.26147486476E+03  0.96326204244E+02  0.17473791781E+03  0.32890907930E+03  0.00000000000E+00 0. -1.
        -11    1    5    5    0    0 -0.45606187132E+02  0.11324696426E+02  0.84964080673E+02  0.97093089653E+02  0.00000000000E+00 0.  1.
          2    1    6    6  503    0  0.25816487432E+03 -0.12193813348E+03 -0.37207661738E+03  0.46899788905E+03  0.00000000000E+00 0. -1.
         -2    1    6    6    0  503 -0.33255704376E+00  0.73723542891E+01 -0.36224164935E+01  0.82209551273E+01  0.00000000000E+00 0.  1.
<mgrwt>
<rscale>  0 0.12544196E+04</rscale>
<asrwt>0</asrwt>
<pdfrwt beam="1">  1        3 0.15172325E+00 0.12544196E+04</pdfrwt>
<pdfrwt beam="2">  1       -3 0.61368686E-01 0.12544196E+04</pdfrwt>
<totfact> 0.20956161E+00</totfact>
</mgrwt>
</event>
<event>
12    2  0.3518828E-008  0.1836692E+04  0.7818608E-02  0.8687027E-01
         -2   -1    0    0    0  501 -0.00000000000E+00  0.00000000000E+00  0.20206424872E+03  0.20206424872E+03  0.00000000000E+00 0.  1.
          2   -1    0    0  501    0  0.00000000000E+00 -0.00000000000E+00 -0.41737197400E+04  0.41737197400E+04  0.00000000000E+00 0. -1.
         23    2    1    2    0    0 -0.28372206288E+03  0.60620938501E+03 -0.17884304266E+04  0.19116905408E+04  0.89940565259E+02 0.  0.
        254    2    1    2    0    0  0.28372206288E+03 -0.60620938501E+03 -0.21832250646E+04  0.24640934479E+04  0.92590324008E+03 0.  0.
         23    2    4    4    0    0 -0.51563025054E+02  0.21848456928E+03 -0.37015070535E+03  0.44218087433E+03  0.90100656959E+02 0.  0.
         23    2    4    4    0    0  0.33528508793E+03 -0.82469395429E+03 -0.18130743593E+04  0.20219125736E+04  0.91409051358E+02 0.  0.
          1    1    3    3  502    0 -0.28860336938E+03  0.58849317562E+03 -0.17147069693E+04  0.18357113371E+04  0.00000000000E+00 0. -1.
         -1    1    3    3    0  502  0.48813065027E+01  0.17716209389E+02 -0.73723457326E+02  0.75979203658E+02  0.00000000000E+00 0.  1.
         11    1    5    5    0    0 -0.60437134884E+02  0.67538518846E+02 -0.14330265575E+03  0.16955751221E+03  0.00000000000E+00 0. -1.
        -11    1    5    5    0    0  0.88741098293E+01  0.15094605044E+03 -0.22684804960E+03  0.27262336212E+03  0.00000000000E+00 0.  1.
          2    1    6    6  503    0  0.19274967296E+03 -0.36641446254E+03 -0.79285078869E+03  0.89444081298E+03  0.00000000000E+00 0. -1.
         -2    1    6    6    0  503  0.14253541497E+03 -0.45827949175E+03 -0.10202235706E+04  0.11274717606E+04  0.00000000000E+00 0.  1.
<mgrwt>
<rscale>  0 0.18366922E+04</rscale>
<asrwt>0</asrwt>
<pdfrwt beam="1">  1        2 0.64211071E+00 0.18366922E+04</pdfrwt>
<pdfrwt beam="2">  1       -2 0.31086808E-01 0.18366922E+04</pdfrwt>
<totfact> 0.22486906E+00</totfact>
</mgrwt>
</event>
<event>
12    2  0.3518828E-008  0.1667200E+04  0.7818608E-02  0.8780296E-01
          2   -1    0    0  501    0  0.00000000000E+00  0.00000000000E+00  0.16156738546E+04  0.16156738546E+04  0.00000000000E+00 0. -1.
         -2   -1    0    0    0  501 -0.00000000000E+00 -0.00000000000E+00 -0.43009231715E+03  0.43009231715E+03  0.00000000000E+00 0.  1.
         23    2    1    2    0    0 -0.56466619344E+03  0.23620317161E+03  0.26613973497E+03  0.67360645595E+03  0.90969504136E+02 0.  0.
        254    2    1    2    0    0  0.56466619344E+03 -0.23620317161E+03  0.91944180250E+03  0.13721597158E+04  0.81413095337E+03 0.  0.
         23    2    4    4    0    0  0.43990400054E+03 -0.60034909841E+02  0.10207777872E+04  0.11167962885E+04  0.90149536583E+02 0.  0.
         23    2    4    4    0    0  0.12476219289E+03 -0.17616826176E+03 -0.10133598474E+03  0.25536342733E+03  0.91327087913E+02 0.  0.
          2    1    3    3  502    0 -0.55453875582E+02  0.48515215806E+02  0.52015916717E+02  0.90191541032E+02  0.00000000000E+00 0. -1.
         -2    1    3    3    0  502 -0.50921231786E+03  0.18768795580E+03  0.21412381825E+03  0.58341491492E+03  0.00000000000E+00 0.  1.
         11    1    5    5    0    0  0.17180147724E+03 -0.56535425936E+02  0.33984408163E+03  0.38497532620E+03  0.00000000000E+00 0. -1.
        -11    1    5    5    0    0  0.26810252331E+03 -0.34994839047E+01  0.68093370562E+03  0.73182096228E+03  0.00000000000E+00 0.  1.
          1    1    6    6  503    0  0.75440373187E+01 -0.18813711045E+02 -0.47884048251E+02  0.51997598976E+02  0.00000000000E+00 0. -1.
         -1    1    6    6    0  503  0.11721815558E+03 -0.15735455072E+03 -0.53451936493E+02  0.20336582836E+03  0.00000000000E+00 0.  1.
<mgrwt>
<rscale>  0 0.16671999E+04</rscale>
<asrwt>0</asrwt>
<pdfrwt beam="1">  1        2 0.24856521E+00 0.16671999E+04</pdfrwt>
<pdfrwt beam="2">  1       -2 0.66168049E-01 0.16671999E+04</pdfrwt>
<totfact> 0.21901547E+01</totfact>
</mgrwt>
</event>
<event>
12    2  0.3518828E-008  0.1869766E+04  0.7818608E-02  0.8670054E-01
         -1   -1    0    0    0  501 -0.00000000000E+00  0.00000000000E+00  0.14326900272E+04  0.14326900272E+04  0.00000000000E+00 0.  1.
          1   -1    0    0  501    0  0.00000000000E+00 -0.00000000000E+00 -0.61004551298E+03  0.61004551298E+03  0.00000000000E+00 0. -1.
         23    2    1    2    0    0 -0.22361191783E+03  0.49716136187E+03  0.81506686168E+03  0.98512533339E+03  0.94690147069E+02 0.  0.
        254    2    1    2    0    0  0.22361191783E+03 -0.49716136187E+03  0.75776525852E+01  0.10576102068E+04  0.90626167262E+03 0.  0.
         23    2    4    4    0    0 -0.50486929889E+02 -0.38953067570E+03  0.39378857653E+03  0.56357825864E+03  0.90928176071E+02 0.  0.
         23    2    4    4    0    0  0.27409884771E+03 -0.10763068618E+03 -0.38621092395E+03  0.49403194820E+03  0.90521517556E+02 0.  0.
          2    1    3    3  502    0 -0.19117642970E+03  0.46828408512E+03  0.77832943601E+03  0.92824302993E+03  0.00000000000E+00 0.  1.
         -2    1    3    3    0  502 -0.32435488127E+02  0.28877276756E+02  0.36737425666E+02  0.56882303465E+02  0.00000000000E+00 0. -1.
         11    1    5    5    0    0 -0.74496659834E+02 -0.23167282150E+03  0.24519007252E+03  0.34545653881E+03  0.00000000000E+00 0.  1.
        -11    1    5    5    0    0  0.24009729945E+02 -0.15785785419E+03  0.14859850402E+03  0.21812171982E+03  0.00000000000E+00 0. -1.
          2    1    6    6  503    0 -0.42727292095E+01  0.18421339522E+00 -0.25308976002E+02  0.25667769980E+02  0.00000000000E+00 0. -1.
         -2    1    6    6    0  503  0.27837157692E+03 -0.10781489957E+03 -0.36090194795E+03  0.46836417822E+03  0.00000000000E+00 0.  1.
<mgrwt>
<rscale>  0 0.18697659E+04</rscale>
<asrwt>0</asrwt>
<pdfrwt beam="1">  1        1 0.93853156E-01 0.18697659E+04</pdfrwt>
<pdfrwt beam="2">  1       -1 0.22041385E+00 0.18697659E+04</pdfrwt>
<totfact> 0.34287405E+00</totfact>
</mgrwt>
</event>
<event>
12    2  0.3518828E-008  0.1269642E+04  0.7818608E-02  0.9053992E-01
         -1   -1    0    0    0  501 -0.00000000000E+00  0.00000000000E+00  0.45255829602E+03  0.45255829602E+03  0.00000000000E+00 0.  1.
          1   -1    0    0  501    0  0.00000000000E+00 -0.00000000000E+00 -0.89048739569E+03  0.89048739569E+03  0.00000000000E+00 0. -1.
         23    2    1    2    0    0 -0.26886379793E+03 -0.13064695013E+03 -0.14294145241E+03  0.34375814835E+03  0.91548011035E+02 0.  0.
        254    2    1    2    0    0  0.26886379793E+03  0.13064695013E+03 -0.29498764726E+03  0.99928754337E+03  0.90675328226E+03 0.  0.
         23    2    4    4    0    0  0.10657402686E+03 -0.24690037785E+02  0.31298710672E+03  0.34347670844E+03  0.89708968898E+02 0.  0.
         23    2    4    4    0    0  0.16228977107E+03  0.15533698791E+03 -0.60797475398E+03  0.65581083492E+03  0.99934979448E+02 0.  0.
          4    1    3    3  502    0 -0.20391954580E+03 -0.12095634213E+03 -0.14525975228E+03  0.27805397586E+03  0.00000000000E+00 0.  1.
         -4    1    3    3    0  502 -0.64944252133E+02 -0.96906079984E+01  0.23182998662E+01  0.65704172491E+02  0.00000000000E+00 0. -1.
         11    1    5    5    0    0 -0.13028705997E+02 -0.16690124600E+02  0.38042301333E+02  0.43537617411E+02  0.00000000000E+00 0. -1.
        -11    1    5    5    0    0  0.11960273286E+03 -0.79999131849E+01  0.27494480539E+03  0.29993909103E+03  0.00000000000E+00 0.  1.
          3    1    6    6  503    0  0.16715080114E+03  0.10966490406E+03 -0.49030973157E+03  0.52949921093E+03  0.00000000000E+00 0. -1.
         -3    1    6    6    0  503 -0.48610300720E+01  0.45672083847E+02 -0.11766502241E+03  0.12631162399E+03  0.00000000000E+00 0.  1.
<mgrwt>
<rscale>  0 0.12696416E+04</rscale>
<asrwt>0</asrwt>
<pdfrwt beam="1">  1        1 0.13699806E+00 0.12696416E+04</pdfrwt>
<pdfrwt beam="2">  1       -1 0.69624353E-01 0.12696416E+04</pdfrwt>
<totfact> 0.38071566E+01</totfact>
</mgrwt>
</event>
<event>
12    2  0.3518828E-008  0.1702126E+04  0.7818608E-02  0.8760153E-01
          2   -1    0    0  501    0  0.00000000000E+00  0.00000000000E+00  0.27498912020E+04  0.27498912020E+04  0.00000000000E+00 0. -1.
         -2   -1    0    0    0  501 -0.00000000000E+00 -0.00000000000E+00 -0.26339533233E+03  0.26339533233E+03  0.00000000000E+00 0.  1.
         23    2    1    2    0    0 -0.97761739004E+02  0.24282906232E+03  0.18766047286E+04  0.18970125301E+04  0.92129913592E+02 0.  0.
        254    2    1    2    0    0  0.97761739004E+02 -0.24282906232E+03  0.60989114105E+03  0.11162740042E+04  0.89753949068E+03 0.  0.
         23    2    4    4    0    0  0.39971903233E+03 -0.35125087679E+03  0.56054323151E+03  0.77880089756E+03  0.95758239330E+02 0.  0.
         23    2    4    4    0    0 -0.30195729332E+03  0.10842181446E+03  0.49347909541E+02  0.33747310661E+03  0.92300512823E+02 0.  0.
          4    1    3    3  502    0 -0.68216288268E+02  0.19689199121E+03  0.16830185054E+04  0.16958688651E+04  0.00000000000E+00 0. -1.
         -4    1    3    3    0  502 -0.29545450736E+02  0.45937071109E+02  0.19358622319E+03  0.20114366500E+03  0.00000000000E+00 0.  1.
         11    1    5    5    0    0  0.39656115826E+03 -0.35707763017E+03  0.55662939078E+03  0.77110405581E+03  0.00000000000E+00 0.  1.
        -11    1    5    5    0    0  0.31578740671E+01  0.58267533851E+01  0.39138407334E+01  0.76968417498E+01  0.00000000000E+00 0. -1.
          1    1    6    6  503    0 -0.11363536900E+03  0.21755630492E+02  0.59134360450E+02  0.12993528055E+03  0.00000000000E+00 0. -1.
         -1    1    6    6    0  503 -0.18832192433E+03  0.86666183970E+02 -0.97864509085E+01  0.20753782606E+03  0.00000000000E+00 0.  1.
<mgrwt>
<rscale>  0 0.17021263E+04</rscale>
<asrwt>0</asrwt>
<pdfrwt beam="1">  1        2 0.42306017E+00 0.17021263E+04</pdfrwt>
<pdfrwt beam="2">  1       -2 0.40522361E-01 0.17021263E+04</pdfrwt>
<totfact> 0.13639408E+01</totfact>
</mgrwt>
</event>
<event>
12    2  0.3518828E-008  0.1804433E+04  0.7818608E-02  0.8703946E-01
         -2   -1    0    0    0  501 -0.00000000000E+00  0.00000000000E+00  0.29626927884E+03  0.29626927884E+03  0.00000000000E+00 0.  1.
          2   -1    0    0  501    0  0.00000000000E+00 -0.00000000000E+00 -0.27474815799E+04  0.27474815799E+04  0.00000000000E+00 0. -1.
         23    2    1    2    0    0  0.44450785093E+03  0.52768747232E+03 -0.91529814941E+03  0.11498747358E+04  0.91651010832E+02 0.  0.
        254    2    1    2    0    0 -0.44450785093E+03 -0.52768747232E+03 -0.15359141516E+04  0.18938761229E+04  0.86700241621E+03 0.  0.
         23    2    4    4    0    0 -0.65227196339E+03 -0.33581180546E+03 -0.74717846453E+03  0.10509353974E+04  0.89225942420E+02 0.  0.
         23    2    4    4    0    0  0.20776411246E+03 -0.19187566686E+03 -0.78873568711E+03  0.84294072548E+03  0.91993937756E+02 0.  0.
          3    1    3    3  502    0  0.70547859532E+02  0.12176188300E+03 -0.14299184807E+03  0.20062309251E+03  0.00000000000E+00 0. -1.
         -3    1    3    3    0  502  0.37395999140E+03  0.40592558933E+03 -0.77230630134E+03  0.94925164331E+03  0.00000000000E+00 0.  1.
         11    1    5    5    0    0 -0.65448152147E+03 -0.33564805169E+03 -0.73975732621E+03  0.10431905762E+04  0.00000000000E+00 0. -1.
        -11    1    5    5    0    0  0.22095580829E+01 -0.16375377027E+00 -0.74211383124E+01  0.77448212420E+01  0.00000000000E+00 0.  1.
          1    1    6    6  503    0  0.19758684893E+03 -0.13862624939E+03 -0.67718484075E+03  0.71891383936E+03  0.00000000000E+00 0. -1.
         -1    1    6    6    0  503  0.10177263526E+02 -0.53249417475E+02 -0.11155084636E+03  0.12402688611E+03  0.00000000000E+00 0.  1.
<mgrwt>
<rscale>  0 0.18044327E+04</rscale>
<asrwt>0</asrwt>
<pdfrwt beam="1">  1        2 0.42268949E+00 0.18044327E+04</pdfrwt>
<pdfrwt beam="2">  1       -2 0.45579887E-01 0.18044327E+04</pdfrwt>
<totfact> 0.10739133E+01</totfact>
</mgrwt>
</event>
<event>
12    2  0.3518828E-008  0.1333917E+04  0.7818608E-02  0.9003093E-01
         -1   -1    0    0    0  501 -0.00000000000E+00  0.00000000000E+00  0.38696784097E+03  0.38696784097E+03  0.00000000000E+00 0.  1.
          1   -1    0    0  501    0  0.00000000000E+00 -0.00000000000E+00 -0.11495361843E+04  0.11495361843E+04  0.00000000000E+00 0. -1.
         23    2    1    2    0    0  0.85199790444E+02 -0.33830479103E+03 -0.30511308257E+03  0.46967026907E+03  0.76072548036E+02 0.  0.
        254    2    1    2    0    0 -0.85199790444E+02  0.33830479103E+03 -0.45745526075E+03  0.10668337562E+04  0.89842073208E+03 0.  0.
         23    2    4    4    0    0  0.20359511271E+03 -0.13367621061E+03  0.97654196663E+02  0.27779544496E+03  0.91179317372E+02 0.  0.
         23    2    4    4    0    0 -0.28879490315E+03  0.47198100164E+03 -0.55510945741E+03  0.78903831122E+03  0.90919661678E+02 0.  0.
          1    1    3    3  502    0  0.28313759082E+02 -0.12148169552E+03 -0.15901362601E+03  0.20210097614E+03  0.00000000000E+00 0. -1.
         -1    1    3    3    0  502  0.56886031362E+02 -0.21682309551E+03 -0.14609945656E+03  0.26756929293E+03  0.00000000000E+00 0.  1.
         11    1    5    5    0    0  0.15912104106E+02 -0.36790482307E+02  0.44706628181E+02  0.60045126770E+02  0.00000000000E+00 0. -1.
        -11    1    5    5    0    0  0.18768300860E+03 -0.96885728301E+02  0.52947568482E+02  0.21775031819E+03  0.00000000000E+00 0.  1.
          4    1    6    6  503    0 -0.70265887149E+02  0.18027607791E+03 -0.23068770070E+03  0.30108732025E+03  0.00000000000E+00 0. -1.
         -4    1    6    6    0  503 -0.21852901600E+03  0.29170492372E+03 -0.32442175671E+03  0.48795099097E+03  0.00000000000E+00 0.  1.
<mgrwt>
<rscale>  0 0.13339168E+04</rscale>
<asrwt>0</asrwt>
<pdfrwt beam="1">  1        1 0.17685172E+00 0.13339168E+04</pdfrwt>
<pdfrwt beam="2">  1       -1 0.59533514E-01 0.13339168E+04</pdfrwt>
<totfact> 0.32633140E+01</totfact>
</mgrwt>
</event>
<event>
12    2  0.3518828E-008  0.1943490E+04  0.7818608E-02  0.8633506E-01
          1   -1    0    0  501    0  0.00000000000E+00  0.00000000000E+00  0.17759550798E+04  0.17759550798E+04  0.00000000000E+00 0. -1.
         -1   -1    0    0    0  501 -0.00000000000E+00 -0.00000000000E+00 -0.53170747734E+03  0.53170747734E+03  0.00000000000E+00 0.  1.
         23    2    1    2    0    0  0.14272992252E+03  0.22934404573E+03  0.13316959249E+04  0.13618400289E+04  0.90684649513E+02 0.  0.
        254    2    1    2    0    0 -0.14272992252E+03 -0.22934404573E+03 -0.87448322470E+02  0.94582252828E+03  0.90219871637E+03 0.  0.
         23    2    4    4    0    0 -0.44322652840E+03  0.48838668171E+02 -0.22158979049E+03  0.50608147651E+03  0.90451393755E+02 0.  0.
         23    2    4    4    0    0  0.30049660588E+03 -0.27818271390E+03  0.13414146802E+03  0.43974105177E+03  0.87717881363E+02 0.  0.
          1    1    3    3  502    0  0.11893022688E+03  0.20979500289E+03  0.12720851745E+04  0.12947428444E+04  0.00000000000E+00 0. -1.
         -1    1    3    3    0  502  0.23799695637E+02  0.19549042838E+02  0.59610750433E+02  0.67097184408E+02  0.00000000000E+00 0.  1.
         11    1    5    5    0    0 -0.29376657484E+03 -0.94628777827E+01 -0.13039914338E+03  0.32154670445E+03  0.00000000000E+00 0.  1.
        -11    1    5    5    0    0 -0.14945995356E+03  0.58301545954E+02 -0.91190647114E+02  0.18453477206E+03  0.00000000000E+00 0. -1.
          3    1    6    6  503    0  0.69331186624E+00 -0.10804710849E+02 -0.81720690950E+01  0.13564850577E+02  0.00000000000E+00 0. -1.
         -3    1    6    6    0  503  0.29980329402E+03 -0.26737800305E+03  0.14231353711E+03  0.42617620119E+03  0.00000000000E+00 0.  1.
<mgrwt>
<rscale>  0 0.19434903E+04</rscale>
<asrwt>0</asrwt>
<pdfrwt beam="1">  1        1 0.27322386E+00 0.19434903E+04</pdfrwt>
<pdfrwt beam="2">  1       -1 0.81801151E-01 0.19434903E+04</pdfrwt>
<totfact> 0.58644957E+00</totfact>
</mgrwt>
</event>
<event>
12    2  0.3518828E-008  0.1729360E+04  0.7818608E-02  0.8744794E-01
          4   -1    0    0  501    0  0.00000000000E+00  0.00000000000E+00  0.81045409862E+03  0.81045409862E+03  0.00000000000E+00 0. -1.
         -4   -1    0    0    0  501 -0.00000000000E+00 -0.00000000000E+00 -0.92253434955E+03  0.92253434955E+03  0.00000000000E+00 0.  1.
         23    2    1    2    0    0 -0.12064399979E+03 -0.50840026326E+03  0.29368882054E+03  0.60622204260E+03  0.90698617706E+02 0.  0.
        254    2    1    2    0    0  0.12064399979E+03  0.50840026326E+03 -0.40576907148E+03  0.11267664056E+04  0.91210097631E+03 0.  0.
         23    2    4    4    0    0 -0.86395717556E+02 -0.58853502739E+02 -0.49134610280E+03  0.51078833779E+03  0.92497451258E+02 0.  0.
         23    2    4    4    0    0  0.20703971734E+03  0.56725376600E+03  0.85577031329E+02  0.61597806778E+03  0.86390231484E+02 0.  0.
          4    1    3    3  502    0 -0.12696266008E+03 -0.37561199376E+03  0.20434323731E+03  0.44604937568E+03  0.00000000000E+00 0. -1.
         -4    1    3    3    0  502  0.63186602904E+01 -0.13278826950E+03  0.89345583232E+02  0.16017266692E+03  0.00000000000E+00 0.  1.
         11    1    5    5    0    0 -0.90450111573E+02 -0.78284060705E+02 -0.42829972432E+03  0.44469120825E+03  0.00000000000E+00 0. -1.
        -11    1    5    5    0    0  0.40543940178E+01  0.19430557967E+02 -0.63046378485E+02  0.66097129543E+02  0.00000000000E+00 0.  1.
          2    1    6    6  503    0  0.13211375786E+03  0.45591303783E+03  0.82185297024E+02  0.48173142530E+03  0.00000000000E+00 0. -1.
         -2    1    6    6    0  503  0.74925959486E+02  0.11134072817E+03  0.33917343047E+01  0.13424664247E+03  0.00000000000E+00 0.  1.
<mgrwt>
<rscale>  0 0.17293603E+04</rscale>
<asrwt>0</asrwt>
<pdfrwt beam="1">  1        4 0.12468525E+00 0.17293603E+04</pdfrwt>
<pdfrwt beam="2">  1       -4 0.14192836E+00 0.17293603E+04</pdfrwt>
<totfact> 0.31494959E-01</totfact>
</mgrwt>
</event>
<event>
12    2  0.3518828E-008  0.1294308E+04  0.7818608E-02  0.9034091E-01
          2   -1    0    0  501    0  0.00000000000E+00  0.00000000000E+00  0.12922970713E+04  0.12922970713E+04  0.00000000000E+00 0. -1.
         -2   -1    0    0    0  501 -0.00000000000E+00 -0.00000000000E+00 -0.32408037229E+03  0.32408037229E+03  0.00000000000E+00 0.  1.
         23    2    1    2    0    0 -0.28243759539E+03 -0.14775926289E+03  0.19659593121E+03  0.38600651299E+03  0.93526856232E+02 0.  0.
        254    2    1    2    0    0  0.28243759539E+03  0.14775926289E+03  0.77162076781E+03  0.12303709306E+04  0.90377553769E+03 0.  0.
         23    2    4    4    0    0 -0.21571326362E+03  0.28675797254E+03  0.54428056239E+03  0.65831213089E+03  0.91494175615E+02 0.  0.
         23    2    4    4    0    0  0.49815085901E+03 -0.13899870965E+03  0.22734020543E+03  0.57205879972E+03  0.89959889521E+02 0.  0.
          2    1    3    3  502    0 -0.80656970292E+02 -0.74941466672E+02  0.10700753686E+03  0.15353300371E+03  0.00000000000E+00 0. -1.
         -2    1    3    3    0  502 -0.20178062510E+03 -0.72817796221E+02  0.89588394356E+02  0.23247350928E+03  0.00000000000E+00 0.  1.
         11    1    5    5    0    0 -0.18532558958E+03  0.18128739849E+03  0.40686413648E+03  0.48244079488E+03  0.00000000000E+00 0.  1.
        -11    1    5    5    0    0 -0.30387674033E+02  0.10547057405E+03  0.13741642591E+03  0.17587133601E+03  0.00000000000E+00 0. -1.
          2    1    6    6  503    0  0.16434790608E+03 -0.84106356301E+02  0.10461522224E+03  0.21219910020E+03  0.00000000000E+00 0. -1.
         -2    1    6    6    0  503  0.33380295293E+03 -0.54892353346E+02  0.12272498319E+03  0.35985969952E+03  0.00000000000E+00 0.  1.
<mgrwt>
<rscale>  0 0.12943077E+04</rscale>
<asrwt>0</asrwt>
<pdfrwt beam="1">  1        2 0.19881493E+00 0.12943077E+04</pdfrwt>
<pdfrwt beam="2">  1       -2 0.49858519E-01 0.12943077E+04</pdfrwt>
<totfact> 0.62324592E+01</totfact>
</mgrwt>
</event>
<event>
12    2  0.3518828E-008  0.1440893E+04  0.7818608E-02  0.8924738E-01
          2   -1    0    0  501    0  0.00000000000E+00  0.00000000000E+00  0.15947036786E+04  0.15947036786E+04  0.00000000000E+00 0. -1.
         -2   -1    0    0    0  501 -0.00000000000E+00 -0.00000000000E+00 -0.32547956090E+03  0.32547956090E+03  0.00000000000E+00 0.  1.
         23    2    1    2    0    0 -0.13289514518E+03  0.26686533044E+03 -0.23796955982E+02  0.31298680847E+03  0.92283383966E+02 0.  0.
        254    2    1    2    0    0  0.13289514518E+03 -0.26686533044E+03  0.12930210737E+04  0.16071964310E+04  0.90680684092E+03 0.  0.
         23    2    4    4    0    0  0.13123581906E+03 -0.47312701401E+03  0.12850438362E+04  0.13791065461E+04  0.97597095556E+02 0.  0.
         23    2    4    4    0    0  0.16593261265E+01  0.20626168357E+03  0.79772374981E+01  0.22808988491E+03  0.97029499675E+02 0.  0.
          3    1    3    3  502    0  0.24393219996E+00  0.77852908173E+02  0.12842092084E+02  0.78905349267E+02  0.00000000000E+00 0. -1.
         -3    1    3    3    0  502 -0.13313907738E+03  0.18901242227E+03 -0.36639048067E+02  0.23408145920E+03  0.00000000000E+00 0.  1.
         11    1    5    5    0    0  0.16905781716E+02 -0.24202748242E+03  0.60636975627E+03  0.65310595543E+03  0.00000000000E+00 0. -1.
        -11    1    5    5    0    0  0.11433003734E+03 -0.23109953159E+03  0.67867407991E+03  0.72600059069E+03  0.00000000000E+00 0.  1.
          3    1    6    6  503    0 -0.13963695422E+02  0.86036846699E+02  0.49135730856E+02  0.10005820220E+03  0.00000000000E+00 0. -1.
         -3    1    6    6    0  503  0.15623021549E+02  0.12022483687E+03 -0.41158493358E+02  0.12803168271E+03  0.00000000000E+00 0.  1.
<mgrwt>
<rscale>  0 0.14408934E+04</rscale>
<asrwt>0</asrwt>
<pdfrwt beam="1">  1        2 0.24533902E+00 0.14408934E+04</pdfrwt>
<pdfrwt beam="2">  1       -2 0.50073780E-01 0.14408934E+04</pdfrwt>
<totfact> 0.41102393E+01</totfact>
</mgrwt>
</event>
<event>
12    2  0.3518828E-008  0.2215807E+04  0.7818608E-02  0.8511878E-01
          2   -1    0    0  501    0  0.00000000000E+00  0.00000000000E+00  0.23441136499E+04  0.23441136499E+04  0.00000000000E+00 0. -1.
         -2   -1    0    0    0  501 -0.00000000000E+00 -0.00000000000E+00 -0.52363072903E+03  0.52363072903E+03  0.00000000000E+00 0.  1.
         23    2    1    2    0    0 -0.31894735438E+03 -0.85220493827E+03  0.53068992410E+03  0.10573268246E+04  0.91255393508E+02 0.  0.
        254    2    1    2    0    0  0.31894735438E+03  0.85220493827E+03  0.12897929968E+04  0.18104175543E+04  0.88660311005E+03 0.  0.
         23    2    4    4    0    0  0.22240795096E+03  0.25059645437E+03 -0.34824594309E+02  0.34958485075E+03  0.93450178751E+02 0.  0.
         23    2    4    4    0    0  0.96539403423E+02  0.60160848389E+03  0.13246175911E+04  0.14608327036E+04  0.90375886695E+02 0.  0.
          3    1    3    3  502    0 -0.10037408560E+03 -0.16402249047E+03  0.11925752495E+03  0.22627569842E+03  0.00000000000E+00 0. -1.
         -3    1    3    3    0  502 -0.21857326879E+03 -0.68818244780E+03  0.41143239916E+03  0.83105112620E+03  0.00000000000E+00 0.  1.
         11    1    5    5    0    0  0.17436906456E+03  0.13445511552E+03 -0.42217836029E+01  0.22022845461E+03  0.00000000000E+00 0.  1.
        -11    1    5    5    0    0  0.48038886400E+02  0.11614133886E+03 -0.30602810706E+02  0.12935639614E+03  0.00000000000E+00 0. -1.
          1    1    6    6  503    0  0.73355706476E+02  0.57085370627E+03  0.12098059273E+04  0.13397333299E+04  0.00000000000E+00 0. -1.
         -1    1    6    6    0  503  0.23183696946E+02  0.30754777624E+02  0.11481166379E+03  0.12109937363E+03  0.00000000000E+00 0.  1.
<mgrwt>
<rscale>  0 0.22158068E+04</rscale>
<asrwt>0</asrwt>
<pdfrwt beam="1">  1        2 0.36063286E+00 0.22158068E+04</pdfrwt>
<pdfrwt beam="2">  1       -2 0.80558575E-01 0.22158068E+04</pdfrwt>
<totfact> 0.53151016E+00</totfact>
</mgrwt>
</event>
<event>
12    2  0.3518828E-008  0.3547398E+04  0.7818608E-02  0.8102648E-01
         -2   -1    0    0    0  501 -0.00000000000E+00  0.00000000000E+00  0.18079717777E+04  0.18079717777E+04  0.00000000000E+00 0.  1.
          2   -1    0    0  501    0  0.00000000000E+00 -0.00000000000E+00 -0.17400755574E+04  0.17400755574E+04  0.00000000000E+00 0. -1.
         23    2    1    2    0    0 -0.12963791703E+04 -0.53123497258E+03 -0.87529050205E+03  0.16545474362E+04  0.92650992155E+02 0.  0.
        254    2    1    2    0    0  0.12963791703E+04  0.53123497258E+03  0.94318672230E+03  0.18934998989E+04  0.85611396711E+03 0.  0.
         23    2    4    4    0    0  0.12802685764E+04  0.45692194226E+03  0.52841430082E+03  0.14611367430E+04  0.88507735856E+02 0.  0.
         23    2    4    4    0    0  0.16110593922E+02  0.74313030313E+02  0.41477242147E+03  0.43236315593E+03  0.95497430735E+02 0.  0.
          2    1    3    3  502    0 -0.67550923142E+03 -0.22986305366E+03 -0.46386901182E+03  0.85107238546E+03  0.00000000000E+00 0. -1.
         -2    1    3    3    0  502 -0.62086993890E+03 -0.30137191892E+03 -0.41142149023E+03  0.80347505074E+03  0.00000000000E+00 0.  1.
         11    1    5    5    0    0  0.88251768195E+03  0.34685160238E+03  0.33853625690E+03  0.10068516724E+04  0.00000000000E+00 0. -1.
        -11    1    5    5    0    0  0.39775089445E+03  0.11007033988E+03  0.18987804392E+03  0.45428507054E+03  0.00000000000E+00 0.  1.
          1    1    6    6  503    0 -0.14073097822E+02  0.70591275803E+02  0.37728908670E+03  0.38409404479E+03  0.00000000000E+00 0. -1.
         -1    1    6    6    0  503  0.30183691744E+02  0.37217545097E+01  0.37483334772E+02  0.48269111133E+02  0.00000000000E+00 0.  1.
<mgrwt>
<rscale>  0 0.35473976E+04</rscale>
<asrwt>0</asrwt>
<pdfrwt beam="1">  1        2 0.26770393E+00 0.35473976E+04</pdfrwt>
<pdfrwt beam="2">  1       -2 0.27814950E+00 0.35473976E+04</pdfrwt>
<totfact> 0.32959355E-01</totfact>
</mgrwt>
</event>
<event>
12    2  0.3518828E-008  0.2288613E+04  0.7818608E-02  0.8482424E-01
         -2   -1    0    0    0  501 -0.00000000000E+00  0.00000000000E+00  0.10679783525E+04  0.10679783525E+04  0.00000000000E+00 0.  1.
          2   -1    0    0  501    0  0.00000000000E+00 -0.00000000000E+00 -0.12260901194E+04  0.12260901194E+04  0.00000000000E+00 0. -1.
         23    2    1    2    0    0  0.74621789844E+03  0.28646134709E+03  0.47352283915E+03  0.93355427082E+03  0.91643014155E+02 0.  0.
        254    2    1    2    0    0 -0.74621789844E+03 -0.28646134709E+03 -0.63163460609E+03  0.13605142011E+04  0.90174018452E+03 0.  0.
         23    2    4    4    0    0  0.89658504659E+02 -0.16464788724E+02  0.13820470314E+03  0.18921031902E+03  0.91598406793E+02 0.  0.
         23    2    4    4    0    0 -0.83587640309E+03 -0.26999655837E+03 -0.76983930923E+03  0.11713038821E+04  0.87822088868E+02 0.  0.
          4    1    3    3  502    0  0.41374353311E+03  0.13690775156E+03  0.30495482404E+03  0.53190684178E+03  0.00000000000E+00 0. -1.
         -4    1    3    3    0  502  0.33247436533E+03  0.14955359553E+03  0.16856801512E+03  0.40164742904E+03  0.00000000000E+00 0.  1.
         11    1    5    5    0    0  0.25260325560E+02 -0.22214335628E+02 -0.31353424821E+01  0.33784480568E+02  0.00000000000E+00 0. -1.
        -11    1    5    5    0    0  0.64398179100E+02  0.57495469037E+01  0.14134004562E+03  0.15542583845E+03  0.00000000000E+00 0.  1.
          3    1    6    6  503    0 -0.21432668827E+03 -0.29686873501E+02 -0.19201229714E+03  0.28928526063E+03  0.00000000000E+00 0. -1.
         -3    1    6    6    0  503 -0.62154971483E+03 -0.24030968486E+03 -0.57782701209E+03  0.88201862143E+03  0.00000000000E+00 0.  1.
<mgrwt>
<rscale>  0 0.22886133E+04</rscale>
<asrwt>0</asrwt>
<pdfrwt beam="1">  1        2 0.18862925E+00 0.22886133E+04</pdfrwt>
<pdfrwt beam="2">  1       -2 0.16430436E+00 0.22886133E+04</pdfrwt>
<totfact> 0.38844315E+00</totfact>
</mgrwt>
</event>
<event>
12    2  0.3518828E-008  0.1352988E+04  0.7818608E-02  0.8988569E-01
          2   -1    0    0  501    0  0.00000000000E+00  0.00000000000E+00  0.80567336467E+03  0.80567336467E+03  0.00000000000E+00 0.  1.
         -2   -1    0    0    0  501 -0.00000000000E+00 -0.00000000000E+00 -0.56802715301E+03  0.56802715301E+03  0.00000000000E+00 0. -1.
         23    2    1    2    0    0 -0.13936540995E+03 -0.30653834276E+03  0.23331554078E+03  0.42052967328E+03  0.94976794401E+02 0.  0.
        254    2    1    2    0    0  0.13936540995E+03  0.30653834276E+03  0.43306708896E+01  0.95317084440E+03  0.89169918181E+03 0.  0.
         23    2    4    4    0    0  0.27442359460E+03  0.40568991503E+03 -0.30947674244E+03  0.58652776648E+03  0.91358362052E+02 0.  0.
         23    2    4    4    0    0 -0.13505818465E+03 -0.99151572270E+02  0.31380741333E+03  0.36664307792E+03  0.88771089892E+02 0.  0.
          2    1    3    3  502    0 -0.96501311048E+02 -0.24354831899E+03  0.13082045806E+03  0.29281782555E+03  0.00000000000E+00 0. -1.
         -2    1    3    3    0  502 -0.42864098898E+02 -0.62990023767E+02  0.10249508272E+03  0.12771184773E+03  0.00000000000E+00 0.  1.
         11    1    5    5    0    0 -0.10225746870E+01  0.24737034066E+02 -0.20825808205E+01  0.24845596315E+02  0.00000000000E+00 0. -1.
        -11    1    5    5    0    0  0.27544616929E+03  0.38095288096E+03 -0.30739416162E+03  0.56168217017E+03  0.00000000000E+00 0.  1.
          1    1    6    6  503    0 -0.14103816040E+03 -0.10285218124E+03  0.26495891399E+03  0.31729097052E+03  0.00000000000E+00 0. -1.
         -1    1    6    6    0  503  0.59799757426E+01  0.37006089695E+01  0.48848499340E+02  0.49352107396E+02  0.00000000000E+00 0.  1.
<mgrwt>
<rscale>  0 0.13529883E+04</rscale>
<asrwt>0</asrwt>
<pdfrwt beam="1">  1        2 0.12394975E+00 0.13529883E+04</pdfrwt>
<pdfrwt beam="2">  1       -2 0.87388793E-01 0.13529883E+04</pdfrwt>
<totfact> 0.37699211E+01</totfact>
</mgrwt>
</event>
<event>
12    2  0.3518828E-008  0.1537182E+04  0.7818608E-02  0.8860097E-01
          2   -1    0    0  501    0  0.00000000000E+00  0.00000000000E+00  0.58479063486E+03  0.58479063486E+03  0.00000000000E+00 0. -1.
         -2   -1    0    0    0  501 -0.00000000000E+00 -0.00000000000E+00 -0.10101606681E+04  0.10101606681E+04  0.00000000000E+00 0.  1.
         23    2    1    2    0    0 -0.28054632778E+03 -0.80115168592E+02  0.27712896304E+03  0.41224947188E+03  0.89579476665E+02 0.  0.
        254    2    1    2    0    0  0.28054632778E+03  0.80115168592E+02 -0.70249899627E+03  0.11827018311E+04  0.90562359686E+03 0.  0.
         23    2    4    4    0    0 -0.11455598770E+03  0.20091093471E+03  0.10593402729E+03  0.27018220290E+03  0.91039148854E+02 0.  0.
         23    2    4    4    0    0  0.39510231548E+03 -0.12079576612E+03 -0.80843302355E+03  0.91251962817E+03  0.91818633230E+02 0.  0.
          2    1    3    3  502    0 -0.17793254623E+03 -0.77427400340E+02  0.22500956838E+03  0.29712673927E+03  0.00000000000E+00 0. -1.
         -2    1    3    3    0  502 -0.10261378155E+03 -0.26877682515E+01  0.52119394669E+02  0.11512273261E+03  0.00000000000E+00 0.  1.
         11    1    5    5    0    0  0.10861782285E+02  0.13943548719E+02  0.25669052488E+02  0.31165704242E+02  0.00000000000E+00 0.  1.
        -11    1    5    5    0    0 -0.12541776998E+03  0.18696738599E+03  0.80264974798E+02  0.23901649866E+03  0.00000000000E+00 0. -1.
          3    1    6    6  503    0  0.33507636523E+03 -0.85544256780E+02 -0.72921830856E+03  0.80706463926E+03  0.00000000000E+00 0. -1.
         -3    1    6    6    0  503  0.60025950244E+02 -0.35251509340E+02 -0.79214714993E+02  0.10545498891E+03  0.00000000000E+00 0.  1.
<mgrwt>
<rscale>  0 0.15371825E+04</rscale>
<asrwt>0</asrwt>
<pdfrwt beam="1">  1        2 0.89967791E-01 0.15371825E+04</pdfrwt>
<pdfrwt beam="2">  1       -2 0.15540933E+00 0.15371825E+04</pdfrwt>
<totfact> 0.13425072E+01</totfact>
</mgrwt>
</event>
<event>
12    2  0.3518828E-008  0.1304585E+04  0.7818608E-02  0.9025937E-01
          2   -1    0    0  501    0  0.00000000000E+00  0.00000000000E+00  0.84345763573E+03  0.84345763573E+03  0.00000000000E+00 0. -1.
         -2   -1    0    0    0  501 -0.00000000000E+00 -0.00000000000E+00 -0.50445354623E+03  0.50445354623E+03  0.00000000000E+00 0.  1.
         23    2    1    2    0    0 -0.49089703747E+02  0.24000132732E+03  0.32553652787E+03  0.41754291293E+03  0.91420003437E+02 0.  0.
        254    2    1    2    0    0  0.49089703747E+02 -0.24000132732E+03  0.13467561629E+02  0.93036826903E+03  0.89743707560E+03 0.  0.
         23    2    4    4    0    0 -0.20210768004E+03  0.17610099217E+03 -0.24291037761E+03  0.37331986088E+03  0.92212760514E+02 0.  0.
         23    2    4    4    0    0  0.25119738379E+03 -0.41610231949E+03  0.25637793924E+03  0.55704840814E+03  0.91279873899E+02 0.  0.
          2    1    3    3  502    0 -0.50563644709E+01  0.20199018390E+03  0.23488960053E+03  0.30983661122E+03  0.00000000000E+00 0.  1.
         -2    1    3    3    0  502 -0.44033339276E+02  0.38011143423E+02  0.90646927341E+02  0.10770630171E+03  0.00000000000E+00 0. -1.
         11    1    5    5    0    0 -0.52906167417E+02  0.42842033301E+02 -0.12161336610E+03  0.13937113468E+03  0.00000000000E+00 0. -1.
        -11    1    5    5    0    0 -0.14920151262E+03  0.13325895887E+03 -0.12129701151E+03  0.23394872620E+03  0.00000000000E+00 0.  1.
          2    1    6    6  503    0  0.21211803516E+03 -0.33687342394E+03  0.16800589025E+03  0.43209228616E+03  0.00000000000E+00 0.  1.
         -2    1    6    6    0  503  0.39079348627E+02 -0.79228895545E+02  0.88372048989E+02  0.12495612198E+03  0.00000000000E+00 0. -1.
<mgrwt>
<rscale>  0 0.13045845E+04</rscale>
<asrwt>0</asrwt>
<pdfrwt beam="1">  1        2 0.12976271E+00 0.13045845E+04</pdfrwt>
<pdfrwt beam="2">  1       -2 0.77608238E-01 0.13045845E+04</pdfrwt>
<totfact> 0.46525098E+01</totfact>
</mgrwt>
</event>
<event>
12    2  0.3518828E-008  0.1792611E+04  0.7818608E-02  0.8710239E-01
          1   -1    0    0  501    0  0.00000000000E+00  0.00000000000E+00  0.17107823864E+04  0.17107823864E+04  0.00000000000E+00 0. -1.
         -1   -1    0    0    0  501 -0.00000000000E+00 -0.00000000000E+00 -0.46958848471E+03  0.46958848471E+03  0.00000000000E+00 0.  1.
         23    2    1    2    0    0  0.47772550657E+03 -0.45636293761E+03  0.47636120761E+03  0.81957982782E+03  0.91116977555E+02 0.  0.
        254    2    1    2    0    0 -0.47772550657E+03  0.45636293761E+03  0.76483269407E+03  0.13607910433E+04  0.91120492927E+03 0.  0.
         23    2    4    4    0    0  0.13213235361E+03 -0.83603172488E+02  0.44530588161E+03  0.48092234229E+03  0.92414943577E+02 0.  0.
         23    2    4    4    0    0 -0.60985786017E+03  0.53996611010E+03  0.31952681246E+03  0.87986870100E+03  0.92636588078E+02 0.  0.
          2    1    3    3  502    0  0.42668746218E+03 -0.37176398347E+03  0.42819101077E+03  0.70966061712E+03  0.00000000000E+00 0. -1.
         -2    1    3    3    0  502  0.51038044387E+02 -0.84598954137E+02  0.48170196835E+02  0.10991921069E+03  0.00000000000E+00 0.  1.
         11    1    5    5    0    0 -0.34138499528E+01 -0.11813235152E+02  0.28338335563E+01  0.12618934538E+02  0.00000000000E+00 0. -1.
        -11    1    5    5    0    0  0.13554620356E+03 -0.71789937337E+02  0.44247204806E+03  0.46830340775E+03  0.00000000000E+00 0.  1.
          2    1    6    6  503    0 -0.10868446055E+03  0.79135377190E+02  0.88261101273E+02  0.16082519046E+03  0.00000000000E+00 0. -1.
         -2    1    6    6    0  503 -0.50117339962E+03  0.46083073291E+03  0.23126571119E+03  0.71904351054E+03  0.00000000000E+00 0.  1.
<mgrwt>
<rscale>  0 0.17926112E+04</rscale>
<asrwt>0</asrwt>
<pdfrwt beam="1">  1        1 0.26319729E+00 0.17926112E+04</pdfrwt>
<pdfrwt beam="2">  1       -1 0.72244383E-01 0.17926112E+04</pdfrwt>
<totfact> 0.85519507E+00</totfact>
</mgrwt>
</event>
<event>
12    2  0.3518828E-008  0.1128276E+04  0.7818608E-02  0.9178062E-01
         -2   -1    0    0    0  501 -0.00000000000E+00  0.00000000000E+00  0.84801402439E+03  0.84801402439E+03  0.00000000000E+00 0.  1.
          2   -1    0    0  501    0  0.00000000000E+00 -0.00000000000E+00 -0.37529068944E+03  0.37529068944E+03  0.00000000000E+00 0. -1.
         23    2    1    2    0    0  0.15214778901E+03  0.78904409054E+02  0.20117683678E+03  0.27942190548E+03  0.90717286844E+02 0.  0.
        254    2    1    2    0    0 -0.15214778901E+03 -0.78904409054E+02  0.27154649817E+03  0.94388280836E+03  0.88758233408E+03 0.  0.
         23    2    4    4    0    0 -0.44226558946E+01 -0.32118055028E+03  0.47680729691E+03  0.58208120397E+03  0.91086902881E+02 0.  0.
         23    2    4    4    0    0 -0.14772513312E+03  0.24227614122E+03 -0.20526079874E+03  0.36180160438E+03  0.90818290420E+02 0.  0.
          1    1    3    3  502    0  0.55808855391E+02  0.75548419567E+02  0.72556165936E+02  0.11868693801E+03  0.00000000000E+00 0. -1.
         -1    1    3    3    0  502  0.96338933624E+02  0.33559894873E+01  0.12862067085E+03  0.16073496747E+03  0.00000000000E+00 0.  1.
         11    1    5    5    0    0  0.90556789008E+01 -0.48639380999E+02  0.28050932967E+02  0.56873979504E+02  0.00000000000E+00 0.  1.
        -11    1    5    5    0    0 -0.13478334795E+02 -0.27254116928E+03  0.44875636394E+03  0.52520722447E+03  0.00000000000E+00 0. -1.
          2    1    6    6  503    0 -0.12521634055E+03  0.16531778313E+03 -0.10213681950E+03  0.23117316292E+03  0.00000000000E+00 0. -1.
         -2    1    6    6    0  503 -0.22508792569E+02  0.76958358096E+02 -0.10312397924E+03  0.13062844146E+03  0.00000000000E+00 0.  1.
<mgrwt>
<rscale>  0 0.11282762E+04</rscale>
<asrwt>0</asrwt>
<pdfrwt beam="1">  1        2 0.57737029E-01 0.11282762E+04</pdfrwt>
<pdfrwt beam="2">  1       -2 0.13046370E+00 0.11282762E+04</pdfrwt>
<totfact> 0.36426129E+01</totfact>
</mgrwt>
</event>
<event>
12    2  0.3518828E-008  0.3127447E+04  0.7818608E-02  0.8208245E-01
         -1   -1    0    0    0  501 -0.00000000000E+00  0.00000000000E+00  0.78883234902E+03  0.78883234902E+03  0.00000000000E+00 0.  1.
          1   -1    0    0  501    0  0.00000000000E+00 -0.00000000000E+00 -0.30998112040E+04  0.30998112040E+04  0.00000000000E+00 0. -1.
         23    2    1    2    0    0  0.33654345822E+03 -0.99197206804E+03  0.15863894834E+03  0.10636842332E+04  0.94803738820E+02 0.  0.
        254    2    1    2    0    0 -0.33654345822E+03  0.99197206804E+03 -0.24696178033E+04  0.28249593199E+04  0.88550154224E+03 0.  0.
         23    2    4    4    0    0  0.12147600135E+03  0.37299299741E+03 -0.25115260281E+03  0.47489461838E+03  0.92558487741E+02 0.  0.
         23    2    4    4    0    0 -0.45801945957E+03  0.61897907064E+03 -0.22184652005E+04  0.23500647015E+04  0.91100713507E+02 0.  0.
          3    1    3    3  502    0  0.36302290017E+02 -0.22589244620E+03  0.26339303009E+02  0.23030200258E+03  0.00000000000E+00 0. -1.
         -3    1    3    3    0  502  0.30024116820E+03 -0.76607962185E+03  0.13229964533E+03  0.83338223058E+03  0.00000000000E+00 0.  1.
         11    1    5    5    0    0  0.37679356706E+02  0.25442323594E+03 -0.17343967530E+03  0.31021321358E+03  0.00000000000E+00 0. -1.
        -11    1    5    5    0    0  0.83796644641E+02  0.11856976146E+03 -0.77712927511E+02  0.16468140481E+03  0.00000000000E+00 0.  1.
          3    1    6    6  503    0 -0.13170207207E+03  0.22524779600E+03 -0.85135752255E+03  0.89044462859E+03  0.00000000000E+00 0. -1.
         -3    1    6    6    0  503 -0.32631738749E+03  0.39373127464E+03 -0.13671076780E+04  0.14596200729E+04  0.00000000000E+00 0.  1.
<mgrwt>
<rscale>  0 0.31274471E+04</rscale>
<asrwt>0</asrwt>
<pdfrwt beam="1">  1        1 0.47689402E+00 0.31274471E+04</pdfrwt>
<pdfrwt beam="2">  1       -1 0.12135883E+00 0.31274471E+04</pdfrwt>
<totfact> 0.25568598E-01</totfact>
</mgrwt>
</event>
<event>
12    2  0.3518828E-008  0.1915604E+04  0.7818608E-02  0.8647128E-01
          2   -1    0    0  501    0  0.00000000000E+00  0.00000000000E+00  0.13525042468E+04  0.13525042468E+04  0.00000000000E+00 0.  1.
         -2   -1    0    0    0  501 -0.00000000000E+00 -0.00000000000E+00 -0.67828565436E+03  0.67828565436E+03  0.00000000000E+00 0. -1.
         23    2    1    2    0    0  0.66491536905E+03  0.32571709201E+03  0.19802517033E+03  0.77182459983E+03  0.91077839174E+02 0.  0.
        254    2    1    2    0    0 -0.66491536905E+03 -0.32571709201E+03  0.47619342213E+03  0.12589653014E+04  0.90001632358E+03 0.  0.
         23    2    4    4    0    0 -0.29144089481E+03 -0.30630277161E+01 -0.23787013891E+03  0.38626515455E+03  0.87586467716E+02 0.  0.
         23    2    4    4    0    0 -0.37347447424E+03 -0.32265406429E+03  0.71406356104E+03  0.87270014680E+03  0.90166229316E+02 0.  0.
          2    1    3    3  502    0  0.31566365933E+03  0.15813382083E+03  0.14144500616E+03  0.38033740400E+03  0.00000000000E+00 0. -1.
         -2    1    3    3    0  502  0.34925170972E+03  0.16758327118E+03  0.56580164172E+02  0.39148719583E+03  0.00000000000E+00 0.  1.
         11    1    5    5    0    0 -0.15922783357E+03 -0.47351437667E+00 -0.73693825173E+02  0.17545514261E+03  0.00000000000E+00 0.  1.
        -11    1    5    5    0    0 -0.13221306124E+03 -0.25895133395E+01 -0.16417631374E+03  0.21081001194E+03  0.00000000000E+00 0. -1.
          4    1    6    6  503    0 -0.37272385183E+03 -0.32703647654E+03  0.69915513602E+03  0.85714282995E+03  0.00000000000E+00 0. -1.
         -4    1    6    6    0  503 -0.75062240891E+00  0.43824122449E+01  0.14908425018E+02  0.15557316851E+02  0.00000000000E+00 0.  1.
<mgrwt>
<rscale>  0 0.19156035E+04</rscale>
<asrwt>0</asrwt>
<pdfrwt beam="1">  1        2 0.20807758E+00 0.19156035E+04</pdfrwt>
<pdfrwt beam="2">  1       -2 0.10435164E+00 0.19156035E+04</pdfrwt>
<totfact> 0.10756622E+01</totfact>
</mgrwt>
</event>
<event>
12    2  0.3518828E-008  0.1561860E+04  0.7818608E-02  0.8844327E-01
          1   -1    0    0  501    0  0.00000000000E+00  0.00000000000E+00  0.19683081680E+04  0.19683081680E+04  0.00000000000E+00 0. -1.
         -1   -1    0    0    0  501 -0.00000000000E+00 -0.00000000000E+00 -0.30983554573E+03  0.30983554573E+03  0.00000000000E+00 0.  1.
         23    2    1    2    0    0  0.62002531956E+02 -0.43951133887E+02 -0.18542767440E+03  0.21980191740E+03  0.90296424738E+02 0.  0.
        254    2    1    2    0    0 -0.62002531956E+02  0.43951133887E+02  0.18439002967E+04  0.20583417964E+04  0.91160662040E+03 0.  0.
         23    2    4    4    0    0 -0.36643374936E+03  0.20675887265E+03  0.46514763512E+03  0.63400842855E+03  0.92636067105E+02 0.  0.
         23    2    4    4    0    0  0.30443121740E+03 -0.16280773876E+03  0.13787526616E+04  0.14243333678E+04  0.92638625451E+02 0.  0.
          1    1    3    3  502    0  0.27850218230E+02 -0.52004844043E+02 -0.42700992867E+02  0.72825224004E+02  0.00000000000E+00 0. -1.
         -1    1    3    3    0  502  0.34152313725E+02  0.80537101559E+01 -0.14272668154E+03  0.14697669340E+03  0.00000000000E+00 0.  1.
         11    1    5    5    0    0 -0.35324612538E+03  0.20342662143E+03  0.46744058383E+03  0.62021441036E+03  0.00000000000E+00 0.  1.
        -11    1    5    5    0    0 -0.13187623974E+02  0.33322512217E+01 -0.22929487042E+01  0.13794018198E+02  0.00000000000E+00 0. -1.
          4    1    6    6  503    0  0.43079455405E+02 -0.65251260235E+02  0.27876482138E+03  0.28952269700E+03  0.00000000000E+00 0. -1.
         -4    1    6    6    0  503  0.26135176200E+03 -0.97556478528E+02  0.10999878402E+04  0.11348106708E+04  0.00000000000E+00 0.  1.
<mgrwt>
<rscale>  0 0.15618602E+04</rscale>
<asrwt>0</asrwt>
<pdfrwt beam="1">  1        1 0.30281663E+00 0.15618602E+04</pdfrwt>
<pdfrwt beam="2">  1       -1 0.47667008E-01 0.15618602E+04</pdfrwt>
<totfact> 0.13252011E+01</totfact>
</mgrwt>
</event>
<event>
12    2  0.3518828E-008  0.1684598E+04  0.7818608E-02  0.8770198E-01
          1   -1    0    0  501    0  0.00000000000E+00  0.00000000000E+00  0.24294399599E+04  0.24294399599E+04  0.00000000000E+00 0. -1.
         -1   -1    0    0    0  501 -0.00000000000E+00 -0.00000000000E+00 -0.29202927819E+03  0.29202927819E+03  0.00000000000E+00 0.  1.
         23    2    1    2    0    0 -0.50363603448E+03  0.31515081597E+03  0.83392353584E+03  0.10281653380E+04  0.93414166613E+02 0.  0.
        254    2    1    2    0    0  0.50363603448E+03 -0.31515081597E+03  0.13034871458E+04  0.16933039001E+04  0.90290091740E+03 0.  0.
         23    2    4    4    0    0  0.36181623126E+03  0.25513034739E+03  0.77166883906E+03  0.89466509434E+03  0.94606313225E+02 0.  0.
         23    2    4    4    0    0  0.14181980322E+03 -0.57028116336E+03  0.53181830677E+03  0.79863880574E+03  0.98284122521E+02 0.  0.
          3    1    3    3  502    0 -0.35717225797E+03  0.25069029973E+03  0.54807603772E+03  0.70057475787E+03  0.00000000000E+00 0. -1.
         -3    1    3    3    0  502 -0.14646377651E+03  0.64460516245E+02  0.28584749812E+03  0.32759058009E+03  0.00000000000E+00 0.  1.
         11    1    5    5    0    0  0.33829311005E+03  0.25747286215E+03  0.75226584722E+03  0.86408240808E+03  0.00000000000E+00 0. -1.
        -11    1    5    5    0    0  0.23523121216E+02 -0.23425147665E+01  0.19402991836E+02  0.30582686268E+02  0.00000000000E+00 0.  1.
          4    1    6    6  503    0  0.26627896049E+02 -0.15782244119E+03  0.91261331682E+02  0.18424331318E+03  0.00000000000E+00 0. -1.
         -4    1    6    6    0  503  0.11519190717E+03 -0.41245872217E+03  0.44055697509E+03  0.61439549256E+03  0.00000000000E+00 0.  1.
<mgrwt>
<rscale>  0 0.16845980E+04</rscale>
<asrwt>0</asrwt>
<pdfrwt beam="1">  1        1 0.37375998E+00 0.16845980E+04</pdfrwt>
<pdfrwt beam="2">  1       -1 0.44927583E-01 0.16845980E+04</pdfrwt>
<totfact> 0.71056719E+00</totfact>
</mgrwt>
</event>
<event>
12    2  0.3518828E-008  0.1965398E+04  0.7818608E-02  0.8622971E-01
         -2   -1    0    0    0  501 -0.00000000000E+00  0.00000000000E+00  0.48491608547E+03  0.48491608547E+03  0.00000000000E+00 0.  1.
          2   -1    0    0  501    0  0.00000000000E+00 -0.00000000000E+00 -0.19914735053E+04  0.19914735053E+04  0.00000000000E+00 0. -1.
         23    2    1    2    0    0  0.43043192327E+03 -0.61900316905E+03 -0.35029838576E+03  0.83685077509E+03  0.95779417583E+02 0.  0.
        254    2    1    2    0    0 -0.43043192327E+03  0.61900316905E+03 -0.11562590341E+04  0.16395388157E+04  0.88471238855E+03 0.  0.
         23    2    4    4    0    0  0.20716936951E+02  0.60387354902E+03 -0.33294322835E+03  0.69617339827E+03  0.93347482461E+02 0.  0.
         23    2    4    4    0    0 -0.45114886023E+03  0.15129620033E+02 -0.82331580576E+03  0.94336541746E+03  0.91242508487E+02 0.  0.
          2    1    3    3  502    0  0.23579728363E+00 -0.53711025462E+01  0.51271121847E+01  0.74291064251E+01  0.00000000000E+00 0. -1.
         -2    1    3    3    0  502  0.43019612599E+03 -0.61363206650E+03 -0.35542549795E+03  0.82942166866E+03  0.00000000000E+00 0.  1.
         11    1    5    5    0    0  0.34439595482E+02  0.49350375603E+03 -0.23375811449E+03  0.54715162345E+03  0.00000000000E+00 0. -1.
        -11    1    5    5    0    0 -0.13722658531E+02  0.11036979299E+03 -0.99185113854E+02  0.14902177482E+03  0.00000000000E+00 0.  1.
          4    1    6    6  503    0 -0.26499563817E+03  0.30943004124E+02 -0.56224716165E+03  0.62233594507E+03  0.00000000000E+00 0. -1.
         -4    1    6    6    0  503 -0.18615322206E+03 -0.15813384091E+02 -0.26106864411E+03  0.32102947238E+03  0.00000000000E+00 0.  1.
<mgrwt>
<rscale>  0 0.19653982E+04</rscale>
<asrwt>0</asrwt>
<pdfrwt beam="1">  1        2 0.30638054E+00 0.19653982E+04</pdfrwt>
<pdfrwt beam="2">  1       -2 0.74602474E-01 0.19653982E+04</pdfrwt>
<totfact> 0.10167066E+01</totfact>
</mgrwt>
</event>
<event>
12    2  0.3518828E-008  0.2488411E+04  0.7818608E-02  0.8407126E-01
         -2   -1    0    0    0  501 -0.00000000000E+00  0.00000000000E+00  0.52420433610E+03  0.52420433610E+03  0.00000000000E+00 0. -1.
          2   -1    0    0  501    0  0.00000000000E+00 -0.00000000000E+00 -0.29531370102E+04  0.29531370102E+04  0.00000000000E+00 0.  1.
         23    2    1    2    0    0 -0.33118797329E+03  0.10329652452E+04 -0.10118754832E+04  0.14862402144E+04  0.91188321852E+02 0.  0.
        254    2    1    2    0    0  0.33118797329E+03 -0.10329652452E+04 -0.14170571909E+04  0.19911011319E+04  0.88302319552E+03 0.  0.
         23    2    4    4    0    0  0.42191684427E+03 -0.11476946550E+04 -0.12569716068E+04  0.17561731915E+04  0.94603454355E+02 0.  0.
         23    2    4    4    0    0 -0.90728870980E+02  0.11472940986E+03 -0.16008558414E+03  0.23492794044E+03  0.90383502005E+02 0.  0.
          1    1    3    3  502    0 -0.10905358623E+03  0.22532530315E+03 -0.25435254100E+03  0.35687447656E+03  0.00000000000E+00 0. -1.
         -1    1    3    3    0  502 -0.22213438706E+03  0.80763994201E+03 -0.75752294220E+03  0.11293657378E+04  0.00000000000E+00 0.  1.
         11    1    5    5    0    0  0.29857855429E+03 -0.80692129002E+03 -0.82107311134E+03  0.11892990270E+04  0.00000000000E+00 0. -1.
        -11    1    5    5    0    0  0.12333828998E+03 -0.34077336500E+03 -0.43589849543E+03  0.56687416451E+03  0.00000000000E+00 0.  1.
          2    1    6    6  503    0 -0.87846575203E+02  0.52439524044E+02 -0.64969120200E+02  0.12119369223E+03  0.00000000000E+00 0. -1.
         -2    1    6    6    0  503 -0.28822957766E+01  0.62289885815E+02 -0.95116463936E+02  0.11373424821E+03  0.00000000000E+00 0.  1.
<mgrwt>
<rscale>  0 0.24884109E+04</rscale>
<asrwt>0</asrwt>
<pdfrwt beam="1">  1        2 0.45432878E+00 0.24884109E+04</pdfrwt>
<pdfrwt beam="2">  1       -2 0.80646820E-01 0.24884109E+04</pdfrwt>
<totfact> 0.22573936E+00</totfact>
</mgrwt>
</event>
<event>
12    2  0.3518828E-008  0.2399182E+04  0.7818608E-02  0.8439810E-01
         -2   -1    0    0    0  501 -0.00000000000E+00  0.00000000000E+00  0.98517673824E+03  0.98517673824E+03  0.00000000000E+00 0.  1.
          2   -1    0    0  501    0  0.00000000000E+00 -0.00000000000E+00 -0.14606710485E+04  0.14606710485E+04  0.00000000000E+00 0. -1.
         23    2    1    2    0    0  0.72400726372E+03 -0.60197755204E+03 -0.60512556775E+03  0.11229434314E+04  0.90892828864E+02 0.  0.
        254    2    1    2    0    0 -0.72400726372E+03  0.60197755204E+03  0.12963125749E+03  0.13229043553E+04  0.92016747352E+03 0.  0.
         23    2    4    4    0    0  0.16362577199E+03  0.21090923837E+03 -0.13312123583E+03  0.31383666019E+03  0.97550426759E+02 0.  0.
         23    2    4    4    0    0 -0.88763303572E+03  0.39106831367E+03  0.26275249332E+03  0.10090676951E+04  0.91388776960E+02 0.  0.
          3    1    3    3  502    0  0.63404189043E+03 -0.50977509346E+03 -0.48712523223E+03  0.94824614769E+03  0.00000000000E+00 0. -1.
         -3    1    3    3    0  502  0.89965373297E+02 -0.92202458583E+02 -0.11800033552E+03  0.17469728374E+03  0.00000000000E+00 0.  1.
         11    1    5    5    0    0  0.16305349587E+03  0.18465216368E+03 -0.14407820268E+03  0.28537938355E+03  0.00000000000E+00 0. -1.
        -11    1    5    5    0    0  0.57227612682E+00  0.26257074686E+02  0.10956966856E+02  0.28457276639E+02  0.00000000000E+00 0.  1.
          4    1    6    6  503    0 -0.63729987806E+03  0.29043162327E+03  0.14773651260E+03  0.71577073112E+03  0.00000000000E+00 0. -1.
         -4    1    6    6    0  503 -0.25033315766E+03  0.10063669040E+03  0.11501598072E+03  0.29329696401E+03  0.00000000000E+00 0.  1.
<mgrwt>
<rscale>  0 0.23991825E+04</rscale>
<asrwt>0</asrwt>
<pdfrwt beam="1">  1        2 0.22471862E+00 0.23991825E+04</pdfrwt>
<pdfrwt beam="2">  1       -2 0.15156565E+00 0.23991825E+04</pdfrwt>
<totfact> 0.35029187E+00</totfact>
</mgrwt>
</event>
<event>
12    2  0.3518828E-008  0.1635471E+04  0.7818608E-02  0.8799049E-01
         -1   -1    0    0    0  501 -0.00000000000E+00  0.00000000000E+00  0.12448203677E+04  0.12448203677E+04  0.00000000000E+00 0.  1.
          1   -1    0    0  501    0  0.00000000000E+00 -0.00000000000E+00 -0.53717869086E+03  0.53717869086E+03  0.00000000000E+00 0. -1.
         23    2    1    2    0    0  0.23590927270E+03  0.20501608483E+03  0.77770171902E+03  0.84316287474E+03  0.91754507257E+02 0.  0.
        254    2    1    2    0    0 -0.23590927270E+03 -0.20501608483E+03 -0.70060042134E+02  0.93883618386E+03  0.88250789835E+03 0.  0.
         23    2    4    4    0    0  0.78229197609E+02  0.29247977446E+03 -0.12598675514E+03  0.34059425046E+03  0.92019319459E+02 0.  0.
         23    2    4    4    0    0 -0.31413847031E+03 -0.49749585928E+03  0.55926713006E+02  0.59824193340E+03  0.92631015980E+02 0.  0.
          3    1    3    3  502    0  0.45740404941E+01  0.81821683702E+01  0.13035732352E+01  0.94640915496E+01  0.00000000000E+00 0. -1.
         -3    1    3    3    0  502  0.23133523220E+03  0.19683391646E+03  0.77639814578E+03  0.83369878319E+03  0.00000000000E+00 0.  1.
         11    1    5    5    0    0  0.85962738212E+02  0.29486632824E+03 -0.11745235721E+03  0.32883248031E+03  0.00000000000E+00 0.  1.
        -11    1    5    5    0    0 -0.77335406032E+01 -0.23865537834E+01 -0.85343979270E+01  0.11761770156E+02  0.00000000000E+00 0. -1.
          3    1    6    6  503    0  0.51192788343E+01 -0.17974482062E+02  0.74782420765E+01  0.20129906253E+02  0.00000000000E+00 0. -1.
         -3    1    6    6    0  503 -0.31925774914E+03 -0.47952137722E+03  0.48448470929E+02  0.57811202715E+03  0.00000000000E+00 0.  1.
<mgrwt>
<rscale>  0 0.16354705E+04</rscale>
<asrwt>0</asrwt>
<pdfrwt beam="1">  1        1 0.82642876E-01 0.16354705E+04</pdfrwt>
<pdfrwt beam="2">  1       -1 0.19151082E+00 0.16354705E+04</pdfrwt>
<totfact> 0.66150444E+00</totfact>
</mgrwt>
</event>
<event>
12    2  0.3518828E-008  0.2310989E+04  0.7818608E-02  0.8473601E-01
          2   -1    0    0  501    0  0.00000000000E+00  0.00000000000E+00  0.13554579449E+04  0.13554579449E+04  0.00000000000E+00 0. -1.
         -2   -1    0    0    0  501 -0.00000000000E+00 -0.00000000000E+00 -0.98503084802E+03  0.98503084802E+03  0.00000000000E+00 0.  1.
         23    2    1    2    0    0 -0.76332582720E+03  0.66290990382E+03  0.19885861597E+03  0.10344210551E+04  0.91467540656E+02 0.  0.
        254    2    1    2    0    0  0.76332582720E+03 -0.66290990382E+03  0.17156848092E+03  0.13060677378E+04  0.80886422417E+03 0.  0.
         23    2    4    4    0    0 -0.14268234943E+03 -0.89516531658E+02 -0.69204624583E+02  0.20358351078E+03  0.91024741251E+02 0.  0.
         23    2    4    4    0    0  0.90600817664E+03 -0.57339337216E+03  0.24077310550E+03  0.11024842271E+04  0.88707424850E+02 0.  0.
          3    1    3    3  502    0 -0.34986533428E+03  0.28902742677E+03  0.13425459251E+03  0.47325141433E+03  0.00000000000E+00 0. -1.
         -3    1    3    3    0  502 -0.41346049292E+03  0.37388247705E+03  0.64604023458E+02  0.56116964075E+03  0.00000000000E+00 0.  1.
         11    1    5    5    0    0 -0.66095077970E+02 -0.93801826417E+02 -0.40833809569E+02  0.12179795555E+03  0.00000000000E+00 0.  1.
        -11    1    5    5    0    0 -0.76587271461E+02  0.42852947591E+01 -0.28370815013E+02  0.81785555238E+02  0.00000000000E+00 0. -1.
          3    1    6    6  503    0  0.17552176398E+02  0.13178225736E+00  0.96553899512E+01  0.20033043154E+02  0.00000000000E+00 0. -1.
         -3    1    6    6    0  503  0.88845600024E+03 -0.57352515442E+03  0.23111771555E+03  0.10824511839E+04  0.00000000000E+00 0.  1.
<mgrwt>
<rscale>  0 0.23109893E+04</rscale>
<asrwt>0</asrwt>
<pdfrwt beam="1">  1        2 0.20853199E+00 0.23109893E+04</pdfrwt>
<pdfrwt beam="2">  1       -2 0.15154321E+00 0.23109893E+04</pdfrwt>
<totfact> 0.40546965E+00</totfact>
</mgrwt>
</event>
<event>
12    2  0.3518828E-008  0.1268175E+04  0.7818608E-02  0.9055191E-01
          1   -1    0    0  501    0  0.00000000000E+00  0.00000000000E+00  0.10575657069E+04  0.10575657069E+04  0.00000000000E+00 0. -1.
         -1   -1    0    0    0  501 -0.00000000000E+00 -0.00000000000E+00 -0.38018145258E+03  0.38018145258E+03  0.00000000000E+00 0.  1.
         23    2    1    2    0    0  0.60954228113E+01  0.10886550672E+03 -0.15509228556E+03  0.21008906660E+03  0.90525941769E+02 0.  0.
        254    2    1    2    0    0 -0.60954228113E+01 -0.10886550672E+03  0.83247653986E+03  0.12276580929E+04  0.89567759311E+03 0.  0.
         23    2    4    4    0    0  0.10488080239E+03  0.36346531462E+03  0.48741833822E+03  0.62458068275E+03  0.97043161477E+02 0.  0.
         23    2    4    4    0    0 -0.11097622520E+03 -0.47233082134E+03  0.34505820164E+03  0.60307741011E+03  0.96047242099E+02 0.  0.
          1    1    3    3  502    0 -0.40820318847E+02  0.43188376517E+02 -0.81481607717E+02  0.10085031826E+03  0.00000000000E+00 0. -1.
         -1    1    3    3    0  502  0.46915741659E+02  0.65677130200E+02 -0.73610677843E+02  0.10923874834E+03  0.00000000000E+00 0.  1.
         11    1    5    5    0    0  0.74270675340E+02  0.34670402240E+03  0.45594525435E+03  0.57758625964E+03  0.00000000000E+00 0. -1.
        -11    1    5    5    0    0  0.30610127050E+02  0.16761292219E+02  0.31473083873E+02  0.46994423109E+02  0.00000000000E+00 0.  1.
          2    1    6    6  503    0 -0.38158414395E+02 -0.31944855817E+03  0.19099031538E+03  0.37414000919E+03  0.00000000000E+00 0. -1.
         -2    1    6    6    0  503 -0.72817810806E+02 -0.15288226316E+03  0.15406788626E+03  0.22893740091E+03  0.00000000000E+00 0.  1.
<mgrwt>
<rscale>  0 0.12681749E+04</rscale>
<asrwt>0</asrwt>
<pdfrwt beam="1">  1        1 0.16270242E+00 0.12681749E+04</pdfrwt>
<pdfrwt beam="2">  1       -1 0.58489455E-01 0.12681749E+04</pdfrwt>
<totfact> 0.39834957E+01</totfact>
</mgrwt>
</event>
<event>
12    2  0.3518828E-008  0.1931001E+04  0.7818608E-02  0.8639577E-01
         -2   -1    0    0    0  501 -0.00000000000E+00  0.00000000000E+00  0.76929261363E+03  0.76929261363E+03  0.00000000000E+00 0.  1.
          2   -1    0    0  501    0  0.00000000000E+00 -0.00000000000E+00 -0.12117507934E+04  0.12117507934E+04  0.00000000000E+00 0. -1.
         23    2    1    2    0    0  0.38836174010E+03  0.58761071280E+03  0.92243063296E+02  0.71576297090E+03  0.87730592256E+02 0.  0.
        254    2    1    2    0    0 -0.38836174010E+03 -0.58761071280E+03 -0.53470124306E+03  0.12652804361E+04  0.90494086644E+03 0.  0.
         23    2    4    4    0    0  0.92337404996E+02  0.47236491203E+02  0.15515405765E+03  0.20779099801E+03  0.91361013508E+02 0.  0.
         23    2    4    4    0    0 -0.48069914509E+03 -0.63484720400E+03 -0.68985530071E+03  0.10574894381E+04  0.90999644489E+02 0.  0.
          3    1    3    3  502    0  0.89561494759E+02  0.20561249200E+03  0.16164051962E+02  0.22485336286E+03  0.00000000000E+00 0. -1.
         -3    1    3    3    0  502  0.29880024534E+03  0.38199822079E+03  0.76079011334E+02  0.49090960804E+03  0.00000000000E+00 0.  1.
         11    1    5    5    0    0  0.59394190417E+02  0.35654999831E+02  0.25989198238E+02  0.73989102530E+02  0.00000000000E+00 0. -1.
        -11    1    5    5    0    0  0.32943214579E+02  0.11581491371E+02  0.12916485941E+03  0.13380189548E+03  0.00000000000E+00 0.  1.
          3    1    6    6  503    0 -0.21759578612E+03 -0.28259586551E+03 -0.36902603898E+03  0.51321395810E+03  0.00000000000E+00 0. -1.
         -3    1    6    6    0  503 -0.26310335897E+03 -0.35225133849E+03 -0.32082926172E+03  0.54427548002E+03  0.00000000000E+00 0.  1.
<mgrwt>
<rscale>  0 0.19310007E+04</rscale>
<asrwt>0</asrwt>
<pdfrwt beam="1">  1        2 0.18642320E+00 0.19310007E+04</pdfrwt>
<pdfrwt beam="2">  1       -2 0.11835271E+00 0.19310007E+04</pdfrwt>
<totfact> 0.95699939E+00</totfact>
</mgrwt>
</event>
<event>
12    2  0.3518828E-008  0.2022253E+04  0.7818608E-02  0.8596287E-01
         -1   -1    0    0    0  501 -0.00000000000E+00  0.00000000000E+00  0.40965309466E+03  0.40965309466E+03  0.00000000000E+00 0.  1.
          1   -1    0    0  501    0  0.00000000000E+00 -0.00000000000E+00 -0.24957128169E+04  0.24957128169E+04  0.00000000000E+00 0. -1.
         23    2    1    2    0    0  0.60363841498E+03 -0.59423013131E+02 -0.96900163761E+02  0.62080342442E+03  0.89982328829E+02 0.  0.
        254    2    1    2    0    0 -0.60363841498E+03  0.59423013131E+02 -0.19891595584E+04  0.22845624871E+04  0.94581159755E+03 0.  0.
         23    2    4    4    0    0 -0.20559275592E+03 -0.34587831366E+03 -0.32983941823E+03  0.52825608136E+03  0.91434438403E+02 0.  0.
         23    2    4    4    0    0 -0.39804565906E+03  0.40530132679E+03 -0.16593201402E+04  0.17563064057E+04  0.92516760597E+02 0.  0.
          3    1    3    3  502    0  0.46841247162E+03 -0.50694611231E+02 -0.11252376573E+03  0.48439837430E+03  0.00000000000E+00 0. -1.
         -3    1    3    3    0  502  0.13522594336E+03 -0.87284019004E+01  0.15623601965E+02  0.13640505011E+03  0.00000000000E+00 0.  1.
         11    1    5    5    0    0 -0.79325905985E+02 -0.87439542907E+02 -0.54334013461E+02  0.12996329498E+03  0.00000000000E+00 0. -1.
        -11    1    5    5    0    0 -0.12626684993E+03 -0.25843877075E+03 -0.27550540477E+03  0.39829278637E+03  0.00000000000E+00 0.  1.
          1    1    6    6  503    0 -0.38219700725E+03  0.39439235853E+03 -0.16378545833E+04  0.17274801073E+04  0.00000000000E+00 0. -1.
         -1    1    6    6    0  503 -0.15848651816E+02  0.10908968262E+02 -0.21465556853E+02  0.28826298478E+02  0.00000000000E+00 0.  1.
<mgrwt>
<rscale>  0 0.20222527E+04</rscale>
<asrwt>0</asrwt>
<pdfrwt beam="1">  1        1 0.38395583E+00 0.20222527E+04</pdfrwt>
<pdfrwt beam="2">  1       -1 0.63023551E-01 0.20222527E+04</pdfrwt>
<totfact> 0.32263386E+00</totfact>
</mgrwt>
</event>
<event>
12    2  0.3518828E-008  0.2301934E+04  0.7818608E-02  0.8477159E-01
         -2   -1    0    0    0  501 -0.00000000000E+00  0.00000000000E+00  0.44009614823E+03  0.44009614823E+03  0.00000000000E+00 0.  1.
          2   -1    0    0  501    0  0.00000000000E+00 -0.00000000000E+00 -0.30100806924E+04  0.30100806924E+04  0.00000000000E+00 0. -1.
         23    2    1    2    0    0  0.54101003071E+03  0.58597115725E+03 -0.25521088668E+03  0.84208771823E+03  0.89022907552E+02 0.  0.
        254    2    1    2    0    0 -0.54101003071E+03 -0.58597115725E+03 -0.23147736574E+04  0.26080891224E+04  0.89883131592E+03 0.  0.
         23    2    4    4    0    0 -0.40929265631E+03 -0.60939860415E+02 -0.18210175667E+04  0.18697235246E+04  0.92341404435E+02 0.  0.
         23    2    4    4    0    0 -0.13171737440E+03 -0.52503129683E+03 -0.49375609072E+03  0.73836559777E+03  0.91549710381E+02 0.  0.
          3    1    3    3  502    0  0.78150548003E+01  0.39414935312E+01 -0.14367304326E+02  0.16823492099E+02  0.00000000000E+00 0. -1.
         -3    1    3    3    0  502  0.53319497591E+03  0.58202966372E+03 -0.24084358235E+03  0.82526422614E+03  0.00000000000E+00 0.  1.
         11    1    5    5    0    0 -0.33691439427E+03 -0.17555685340E+02 -0.13741740472E+04  0.14149819162E+04  0.00000000000E+00 0. -1.
        -11    1    5    5    0    0 -0.72378262034E+02 -0.43384175075E+02 -0.44684351948E+03  0.45474160835E+03  0.00000000000E+00 0.  1.
          1    1    6    6  503    0 -0.14048947871E+03 -0.48743742780E+03 -0.47686747884E+03  0.69622922376E+03  0.00000000000E+00 0. -1.
         -1    1    6    6    0  503  0.87721043075E+01 -0.37593869034E+02 -0.16888611877E+02  0.42136374002E+02  0.00000000000E+00 0.  1.
<mgrwt>
<rscale>  0 0.23019339E+04</rscale>
<asrwt>0</asrwt>
<pdfrwt beam="1">  1        2 0.46308935E+00 0.23019339E+04</pdfrwt>
<pdfrwt beam="2">  1       -2 0.67707098E-01 0.23019339E+04</pdfrwt>
<totfact> 0.31116875E+00</totfact>
</mgrwt>
</event>
<event>
12    2  0.3518828E-008  0.3347248E+04  0.7818608E-02  0.8150976E-01
          2   -1    0    0  501    0  0.00000000000E+00  0.00000000000E+00  0.31080400204E+04  0.31080400204E+04  0.00000000000E+00 0.  1.
         -2   -1    0    0    0  501 -0.00000000000E+00 -0.00000000000E+00 -0.90121657592E+03  0.90121657592E+03  0.00000000000E+00 0. -1.
         23    2    1    2    0    0 -0.68544971053E+02  0.13258646998E+04  0.19832793849E+04  0.23883746592E+04  0.91218304655E+02 0.  0.
        254    2    1    2    0    0  0.68544971053E+02 -0.13258646998E+04  0.22354405963E+03  0.16208819371E+04  0.90259109906E+03 0.  0.
         23    2    4    4    0    0  0.18709806202E+03  0.54205868635E+02  0.18084909747E+02  0.21778408860E+03  0.95702059959E+02 0.  0.
         23    2    4    4    0    0 -0.11855309097E+03 -0.13800705685E+04  0.20545914988E+03  0.14030978485E+04  0.88433595760E+02 0.  0.
          1    1    3    3  502    0 -0.33695121716E+02  0.20993885398E+03  0.27507812444E+03  0.34767464415E+03  0.00000000000E+00 0. -1.
         -1    1    3    3    0  502 -0.34849849337E+02  0.11159258459E+04  0.17082012604E+04  0.20407000151E+04  0.00000000000E+00 0.  1.
         11    1    5    5    0    0  0.49345787603E+02  0.28414855515E+02 -0.36219120788E+02  0.67485075971E+02  0.00000000000E+00 0.  1.
        -11    1    5    5    0    0  0.13775227442E+03  0.25791013120E+02  0.54304030536E+02  0.15029901263E+03  0.00000000000E+00 0. -1.
          1    1    6    6  503    0 -0.12262317385E+03 -0.10772006721E+04  0.13942346905E+03  0.10930858313E+04  0.00000000000E+00 0. -1.
         -1    1    6    6    0  503  0.40700828813E+01 -0.30286989636E+03  0.66035680833E+02  0.31001201725E+03  0.00000000000E+00 0.  1.
<mgrwt>
<rscale>  0 0.33472479E+04</rscale>
<asrwt>0</asrwt>
<pdfrwt beam="1">  1        2 0.47816000E+00 0.33472479E+04</pdfrwt>
<pdfrwt beam="2">  1       -2 0.13864871E+00 0.33472479E+04</pdfrwt>
<totfact> 0.45532375E-01</totfact>
</mgrwt>
</event>
<event>
12    2  0.3518828E-008  0.1546977E+04  0.7818608E-02  0.8853801E-01
         -2   -1    0    0    0  501 -0.00000000000E+00  0.00000000000E+00  0.45352760331E+03  0.45352760331E+03  0.00000000000E+00 0.  1.
          2   -1    0    0  501    0  0.00000000000E+00 -0.00000000000E+00 -0.13191804317E+04  0.13191804317E+04  0.00000000000E+00 0. -1.
         23    2    1    2    0    0  0.35475606346E+03 -0.20473788767E+03 -0.63500870953E+03  0.76096472635E+03  0.89787450980E+02 0.  0.
        254    2    1    2    0    0 -0.35475606346E+03  0.20473788767E+03 -0.23064411885E+03  0.10117433087E+04  0.89591201902E+03 0.  0.
         23    2    4    4    0    0 -0.39594514493E+03 -0.86673196291E+02  0.21591452710E+03  0.46943238816E+03  0.97277352394E+02 0.  0.
         23    2    4    4    0    0  0.41189081474E+02  0.29141108396E+03 -0.44655864595E+03  0.54231092049E+03  0.89830673620E+02 0.  0.
          1    1    3    3  502    0  0.16128841920E+03 -0.12392578410E+03 -0.37829669778E+03  0.42951128703E+03  0.00000000000E+00 0. -1.
         -1    1    3    3    0  502  0.19346764426E+03 -0.80812103572E+02 -0.25671201175E+03  0.33145343932E+03  0.00000000000E+00 0.  1.
         11    1    5    5    0    0 -0.36933243721E+03 -0.66511109420E+02  0.22122217812E+03  0.43562533093E+03  0.00000000000E+00 0.  1.
        -11    1    5    5    0    0 -0.26612707720E+02 -0.20162086872E+02 -0.53076510222E+01  0.33807057230E+02  0.00000000000E+00 0. -1.
          3    1    6    6  503    0  0.11368865248E+02 -0.15914117310E+01 -0.78298848741E+01  0.13895711046E+02  0.00000000000E+00 0. -1.
         -3    1    6    6    0  503  0.29820216226E+02  0.29300249570E+03 -0.43872876107E+03  0.52841520945E+03  0.00000000000E+00 0.  1.
<mgrwt>
<rscale>  0 0.15469774E+04</rscale>
<asrwt>0</asrwt>
<pdfrwt beam="1">  1        2 0.20295084E+00 0.15469774E+04</pdfrwt>
<pdfrwt beam="2">  1       -2 0.69773477E-01 0.15469774E+04</pdfrwt>
<totfact> 0.29040761E+01</totfact>
</mgrwt>
</event>
<event>
12    2  0.3518828E-008  0.1434451E+04  0.7818608E-02  0.8929252E-01
          2   -1    0    0  501    0  0.00000000000E+00  0.00000000000E+00  0.70210063386E+03  0.70210063386E+03  0.00000000000E+00 0.  1.
         -2   -1    0    0    0  501 -0.00000000000E+00 -0.00000000000E+00 -0.73267664074E+03  0.73267664074E+03  0.00000000000E+00 0. -1.
         23    2    1    2    0    0  0.39512223627E+03  0.16345172735E+03  0.24797993464E+02  0.43811999506E+03  0.92174512872E+02 0.  0.
        254    2    1    2    0    0 -0.39512223627E+03 -0.16345172735E+03 -0.55374000342E+02  0.99665727954E+03  0.89856630483E+03 0.  0.
         23    2    4    4    0    0  0.26805549250E+03  0.59194614564E+02 -0.16722309481E+01  0.28914359295E+03  0.90793565498E+02 0.  0.
         23    2    4    4    0    0 -0.66317772876E+03 -0.22264634192E+03 -0.53701769394E+02  0.70751368659E+03  0.91190148506E+02 0.  0.
          1    1    3    3  502    0  0.35002717503E+02  0.46769923535E+02  0.10097552433E+02  0.59283864122E+02  0.00000000000E+00 0. -1.
         -1    1    3    3    0  502  0.36011951876E+03  0.11668180382E+03  0.14700441031E+02  0.37883613094E+03  0.00000000000E+00 0.  1.
         11    1    5    5    0    0  0.87698869168E+02 -0.13338224746E+02 -0.27889670771E+02  0.92988352112E+02  0.00000000000E+00 0. -1.
        -11    1    5    5    0    0  0.18035662333E+03  0.72532839310E+02  0.26217439823E+02  0.19615524084E+03  0.00000000000E+00 0.  1.
          2    1    6    6  503    0 -0.38216221027E+03 -0.84869200944E+02 -0.10872262234E+02  0.39162347007E+03  0.00000000000E+00 0. -1.
         -2    1    6    6    0  503 -0.28101551849E+03 -0.13777714097E+03 -0.42829507160E+02  0.31589021652E+03  0.00000000000E+00 0.  1.
<mgrwt>
<rscale>  0 0.14344514E+04</rscale>
<asrwt>0</asrwt>
<pdfrwt beam="1">  1        2 0.10801548E+00 0.14344514E+04</pdfrwt>
<pdfrwt beam="2">  1       -2 0.11271948E+00 0.14344514E+04</pdfrwt>
<totfact> 0.24537440E+01</totfact>
</mgrwt>
</event>
<event>
12    2  0.3518828E-008  0.2066093E+04  0.7818608E-02  0.8576329E-01
         -1   -1    0    0    0  501 -0.00000000000E+00  0.00000000000E+00  0.71734628744E+03  0.71734628744E+03  0.00000000000E+00 0.  1.
          1   -1    0    0  501    0  0.00000000000E+00 -0.00000000000E+00 -0.14876842039E+04  0.14876842039E+04  0.00000000000E+00 0. -1.
         23    2    1    2    0    0  0.86929726543E+02 -0.64222492599E+03 -0.87537767959E+03  0.10926903954E+04  0.87616125305E+02 0.  0.
        254    2    1    2    0    0 -0.86929726543E+02  0.64222492599E+03  0.10503976311E+03  0.11123400959E+04  0.89791842851E+03 0.  0.
         23    2    4    4    0    0  0.24649524002E+02 -0.20405299401E+03  0.11509334650E+03  0.25384585387E+03  0.94583379713E+02 0.  0.
         23    2    4    4    0    0 -0.11157925055E+03  0.84627792000E+03 -0.10053583391E+02  0.85849424206E+03  0.90967258277E+02 0.  0.
          4    1    3    3  502    0 -0.89125269302E+01 -0.25183526915E+03 -0.33859981684E+03  0.42207851389E+03  0.00000000000E+00 0.  1.
         -4    1    3    3    0  502  0.95842253473E+02 -0.39038965683E+03 -0.53677786275E+03  0.67061188153E+03  0.00000000000E+00 0. -1.
         11    1    5    5    0    0  0.52886017907E+02 -0.66916635550E+02  0.32416665457E+02  0.91244765344E+02  0.00000000000E+00 0.  1.
        -11    1    5    5    0    0 -0.28236493905E+02 -0.13713635846E+03  0.82676681047E+02  0.16260108852E+03  0.00000000000E+00 0. -1.
          2    1    6    6  503    0 -0.26028909788E+02  0.36119137165E+03 -0.43798365405E+02  0.36476705980E+03  0.00000000000E+00 0. -1.
         -2    1    6    6    0  503 -0.85550340757E+02  0.48508654835E+03  0.33744782014E+02  0.49372718226E+03  0.00000000000E+00 0.  1.
<mgrwt>
<rscale>  0 0.20660927E+04</rscale>
<asrwt>0</asrwt>
<pdfrwt beam="1">  1        1 0.22887449E+00 0.20660927E+04</pdfrwt>
<pdfrwt beam="2">  1       -1 0.11036097E+00 0.20660927E+04</pdfrwt>
<totfact> 0.46601372E+00</totfact>
</mgrwt>
</event>
<event>
12    2  0.3518828E-008  0.2438161E+04  0.7818608E-02  0.8425353E-01
          1   -1    0    0  501    0  0.00000000000E+00  0.00000000000E+00  0.29511140428E+04  0.29511140428E+04  0.00000000000E+00 0. -1.
         -1   -1    0    0    0  501 -0.00000000000E+00 -0.00000000000E+00 -0.50359215259E+03  0.50359215259E+03  0.00000000000E+00 0.  1.
         23    2    1    2    0    0  0.76380450249E+02  0.10496940210E+04  0.10921779468E+04  0.15194956286E+04  0.91229310454E+02 0.  0.
        254    2    1    2    0    0 -0.76380450249E+02 -0.10496940210E+04  0.13553439434E+04  0.19352105668E+04  0.89464586387E+03 0.  0.
         23    2    4    4    0    0 -0.11490605293E+02 -0.24009966840E+03 -0.91558254792E+02  0.27298723854E+03  0.91428844521E+02 0.  0.
         23    2    4    4    0    0 -0.64889844956E+02 -0.80959435261E+03  0.14469021982E+04  0.16622233282E+04  0.99028853675E+02 0.  0.
          1    1    3    3  502    0  0.43498561691E+02  0.30257963508E+03  0.36914079732E+03  0.47928226410E+03  0.00000000000E+00 0. -1.
         -1    1    3    3    0  502  0.32881888558E+02  0.74711438594E+03  0.72303714944E+03  0.10402133645E+04  0.00000000000E+00 0.  1.
         11    1    5    5    0    0 -0.24544738273E+02 -0.45482987351E+02 -0.53249605340E+02  0.74206918708E+02  0.00000000000E+00 0.  1.
        -11    1    5    5    0    0  0.13054132980E+02 -0.19461668105E+03 -0.38308649452E+02  0.19878031984E+03  0.00000000000E+00 0. -1.
          1    1    6    6  503    0 -0.45145636337E+02 -0.71820901236E+03  0.13331879198E+04  0.15150090242E+04  0.00000000000E+00 0. -1.
         -1    1    6    6    0  503 -0.19744208619E+02 -0.91385340254E+02  0.11371427843E+03  0.14721430401E+03  0.00000000000E+00 0.  1.
<mgrwt>
<rscale>  0 0.24381615E+04</rscale>
<asrwt>0</asrwt>
<pdfrwt beam="1">  1        1 0.45401753E+00 0.24381615E+04</pdfrwt>
<pdfrwt beam="2">  1       -1 0.77475718E-01 0.24381615E+04</pdfrwt>
<totfact> 0.96769975E-01</totfact>
</mgrwt>
</event>
<event>
12    2  0.3518828E-008  0.1326930E+04  0.7818608E-02  0.9008478E-01
          2   -1    0    0  501    0  0.00000000000E+00  0.00000000000E+00  0.81982931750E+03  0.81982931750E+03  0.00000000000E+00 0. -1.
         -2   -1    0    0    0  501 -0.00000000000E+00 -0.00000000000E+00 -0.53692375645E+03  0.53692375645E+03  0.00000000000E+00 0.  1.
         23    2    1    2    0    0  0.29469261620E+03 -0.31443521490E+02 -0.12099537422E+03  0.33265060613E+03  0.90466082547E+02 0.  0.
        254    2    1    2    0    0 -0.29469261620E+03  0.31443521490E+02  0.40390093527E+03  0.10241024678E+04  0.89320628412E+03 0.  0.
         23    2    4    4    0    0  0.28598302942E+03 -0.13164837113E+03  0.18475614369E+03  0.37608486306E+03  0.90484279567E+02 0.  0.
         23    2    4    4    0    0 -0.58067564562E+03  0.16309189262E+03  0.21914479157E+03  0.64801760476E+03  0.90106634352E+02 0.  0.
          2    1    3    3  502    0  0.11802846681E+03  0.24681291392E+02 -0.22223478096E+02  0.12261226734E+03  0.00000000000E+00 0. -1.
         -2    1    3    3    0  502  0.17666414938E+03 -0.56124812882E+02 -0.98771896125E+02  0.21003833879E+03  0.00000000000E+00 0.  1.
         11    1    5    5    0    0  0.35536713080E+02 -0.54871082488E+02  0.31104998929E+02  0.72396233523E+02  0.00000000000E+00 0. -1.
        -11    1    5    5    0    0  0.25044631634E+03 -0.76777288646E+02  0.15365114477E+03  0.30368862953E+03  0.00000000000E+00 0.  1.
          2    1    6    6  503    0 -0.18370878434E+03  0.88113866045E+02  0.99125500448E+02  0.22658074868E+03  0.00000000000E+00 0. -1.
         -2    1    6    6    0  503 -0.39696686128E+03  0.74978026579E+02  0.12001929112E+03  0.42143685608E+03  0.00000000000E+00 0.  1.
<mgrwt>
<rscale>  0 0.13269300E+04</rscale>
<asrwt>0</asrwt>
<pdfrwt beam="1">  1        2 0.12612759E+00 0.13269300E+04</pdfrwt>
<pdfrwt beam="2">  1       -2 0.82603655E-01 0.13269300E+04</pdfrwt>
<totfact> 0.41950308E+01</totfact>
</mgrwt>
</event>
<event>
12    2  0.3518828E-008  0.1918475E+04  0.7818608E-02  0.8645715E-01
         -1   -1    0    0    0  501 -0.00000000000E+00  0.00000000000E+00  0.32799246725E+03  0.32799246725E+03  0.00000000000E+00 0.  1.
          1   -1    0    0  501    0  0.00000000000E+00 -0.00000000000E+00 -0.28053584325E+04  0.28053584325E+04  0.00000000000E+00 0. -1.
         23    2    1    2    0    0 -0.20665815498E+03 -0.25304865670E+03  0.12687826363E+03  0.36216562493E+03  0.91239412633E+02 0.  0.
        254    2    1    2    0    0  0.20665815498E+03  0.25304865670E+03 -0.26042442289E+04  0.27711852748E+04  0.88917861428E+03 0.  0.
         23    2    4    4    0    0 -0.30757307655E+02 -0.14647033682E+03 -0.63784282748E+02  0.18698646593E+03  0.92173381042E+02 0.  0.
         23    2    4    4    0    0  0.23741546264E+03  0.39951899352E+03 -0.25404599461E+04  0.25841988089E+04  0.90361595401E+02 0.  0.
          3    1    3    3  502    0  0.69445182179E+01 -0.14272493361E+02  0.17519166013E+02  0.23640041832E+02  0.00000000000E+00 0. -1.
         -3    1    3    3    0  502 -0.21360267320E+03 -0.23877616334E+03  0.10935909762E+03  0.33852558309E+03  0.00000000000E+00 0.  1.
         11    1    5    5    0    0 -0.54345529115E+02 -0.86103265026E+02 -0.67346245365E+02  0.12207671992E+03  0.00000000000E+00 0. -1.
        -11    1    5    5    0    0  0.23588221460E+02 -0.60367071796E+02  0.35619626169E+01  0.64909746006E+02  0.00000000000E+00 0.  1.
          3    1    6    6  503    0  0.24952453644E+02  0.13661222508E+02 -0.87651689490E+02  0.92152442255E+02  0.00000000000E+00 0. -1.
         -3    1    6    6    0  503  0.21246300900E+03  0.38585777101E+03 -0.24528082566E+04  0.24920463666E+04  0.00000000000E+00 0.  1.
<mgrwt>
<rscale>  0 0.19184748E+04</rscale>
<asrwt>0</asrwt>
<pdfrwt beam="1">  1        1 0.43159361E+00 0.19184748E+04</pdfrwt>
<pdfrwt beam="2">  1       -1 0.50460379E-01 0.19184748E+04</pdfrwt>
<totfact> 0.30485709E+00</totfact>
</mgrwt>
</event>
<event>
12    2  0.3518828E-008  0.2265887E+04  0.7818608E-02  0.8491494E-01
          2   -1    0    0  501    0  0.00000000000E+00  0.00000000000E+00  0.27307598467E+04  0.27307598467E+04  0.00000000000E+00 0. -1.
         -2   -1    0    0    0  501 -0.00000000000E+00 -0.00000000000E+00 -0.47003811505E+03  0.47003811505E+03  0.00000000000E+00 0.  1.
         23    2    1    2    0    0 -0.28233082133E+03 -0.32341622691E+03  0.20740309260E+04  0.21200634168E+04  0.93572757892E+02 0.  0.
        254    2    1    2    0    0  0.28233082133E+03  0.32341622691E+03  0.18669080566E+03  0.10807345449E+04  0.97407646062E+03 0.  0.
         23    2    4    4    0    0  0.60005679624E+03  0.81187346470E+01  0.12712456042E+03  0.62012886894E+03  0.90912527521E+02 0.  0.
         23    2    4    4    0    0 -0.31772597492E+03  0.31529749226E+03  0.59566245240E+02  0.46060567596E+03  0.90813806171E+02 0.  0.
          3    1    3    3  502    0 -0.24147083305E+03 -0.30262281344E+03  0.19442672349E+04  0.19824388544E+04  0.00000000000E+00 0. -1.
         -3    1    3    3    0  502 -0.40859988275E+02 -0.20793413467E+02  0.12976369104E+03  0.13762456248E+03  0.00000000000E+00 0.  1.
         11    1    5    5    0    0  0.31980556232E+03 -0.32012571444E+02  0.95304565434E+02  0.33523627879E+03  0.00000000000E+00 0.  1.
        -11    1    5    5    0    0  0.28025123392E+03  0.40131306091E+02  0.31819994988E+02  0.28489259015E+03  0.00000000000E+00 0. -1.
          2    1    6    6  503    0 -0.11346057559E+03  0.55853537092E+02  0.12905066165E+02  0.12711986686E+03  0.00000000000E+00 0. -1.
         -2    1    6    6    0  503 -0.20426539933E+03  0.25944395517E+03  0.46661179075E+02  0.33348580910E+03  0.00000000000E+00 0.  1.
<mgrwt>
<rscale>  0 0.22658872E+04</rscale>
<asrwt>0</asrwt>
<pdfrwt beam="1">  1        2 0.42011689E+00 0.22658872E+04</pdfrwt>
<pdfrwt beam="2">  1       -2 0.72313558E-01 0.22658872E+04</pdfrwt>
<totfact> 0.40069091E+00</totfact>
</mgrwt>
</event>
<event>
12    2  0.3518828E-008  0.1151161E+04  0.7818608E-02  0.9156714E-01
          1   -1    0    0  501    0  0.00000000000E+00  0.00000000000E+00  0.10173639173E+04  0.10173639173E+04  0.00000000000E+00 0. -1.
         -1   -1    0    0    0  501 -0.00000000000E+00 -0.00000000000E+00 -0.32563828190E+03  0.32563828190E+03  0.00000000000E+00 0.  1.
         23    2    1    2    0    0 -0.72446481649E+02 -0.89913984616E+02  0.34224286385E+03  0.37251391251E+03  0.91123102602E+02 0.  0.
        254    2    1    2    0    0  0.72446481649E+02  0.89913984616E+02  0.34948277160E+03  0.97048828673E+03  0.89798457097E+03 0.  0.
         23    2    4    4    0    0 -0.19846480796E+03 -0.10462382775E+03 -0.20472578179E+03  0.31725704202E+03  0.91678567012E+02 0.  0.
         23    2    4    4    0    0  0.27091128961E+03  0.19453781236E+03  0.55420855339E+03  0.65323124472E+03  0.91247198044E+02 0.  0.
          1    1    3    3  502    0 -0.47870441174E+02 -0.48517922939E+01  0.61175597714E+02  0.77830410395E+02  0.00000000000E+00 0. -1.
         -1    1    3    3    0  502 -0.24576040475E+02 -0.85062192322E+02  0.28106726613E+03  0.29468350212E+03  0.00000000000E+00 0.  1.
         11    1    5    5    0    0 -0.10726712871E+03 -0.12331977028E+02 -0.62577692134E+02  0.12479696355E+03  0.00000000000E+00 0.  1.
        -11    1    5    5    0    0 -0.91197679247E+02 -0.92291850721E+02 -0.14214808965E+03  0.19246007846E+03  0.00000000000E+00 0. -1.
          2    1    6    6  503    0  0.25464901259E+03  0.20342050561E+03  0.53559045446E+03  0.62696344122E+03  0.00000000000E+00 0. -1.
         -2    1    6    6    0  503  0.16262277020E+02 -0.88826932417E+01  0.18618098926E+02  0.26267803501E+02  0.00000000000E+00 0.  1.
<mgrwt>
<rscale>  0 0.11511605E+04</rscale>
<asrwt>0</asrwt>
<pdfrwt beam="1">  1        1 0.15651753E+00 0.11511605E+04</pdfrwt>
<pdfrwt beam="2">  1       -1 0.50098197E-01 0.11511605E+04</pdfrwt>
<totfact> 0.58225271E+01</totfact>
</mgrwt>
</event>
<event>
12    2  0.3518828E-008  0.2317686E+04  0.7818608E-02  0.8470980E-01
          2   -1    0    0  501    0  0.00000000000E+00  0.00000000000E+00  0.15001241690E+04  0.15001241690E+04  0.00000000000E+00 0. -1.
         -2   -1    0    0    0  501 -0.00000000000E+00 -0.00000000000E+00 -0.89520361099E+03  0.89520361099E+03  0.00000000000E+00 0.  1.
         23    2    1    2    0    0  0.37412874107E+03  0.15215707695E+03 -0.66776421470E+03  0.78563219365E+03  0.90469919379E+02 0.  0.
        254    2    1    2    0    0 -0.37412874107E+03 -0.15215707695E+03  0.12726847727E+04  0.16096955863E+04  0.89903796304E+03 0.  0.
         23    2    4    4    0    0 -0.53646809636E+03 -0.25142906154E+03  0.12641561979E+04  0.13991234394E+04  0.91874449991E+02 0.  0.
         23    2    4    4    0    0  0.16233935529E+03  0.99271984590E+02  0.85285747413E+01  0.21057214688E+03  0.89771372129E+02 0.  0.
          1    1    3    3  502    0  0.30447569935E+02  0.27595766875E+02 -0.31291905294E+02  0.51650403690E+02  0.00000000000E+00 0. -1.
         -1    1    3    3    0  502  0.34368117114E+03  0.12456131007E+03 -0.63647230940E+03  0.73398178996E+03  0.00000000000E+00 0.  1.
         11    1    5    5    0    0 -0.34418415337E+02 -0.22966687740E+02  0.45802183970E+02  0.61724679962E+02  0.00000000000E+00 0.  1.
        -11    1    5    5    0    0 -0.50204968102E+03 -0.22846237380E+03  0.12183540140E+04  0.13373987594E+04  0.00000000000E+00 0. -1.
          3    1    6    6  503    0  0.12666897662E+03  0.10436806621E+03  0.32473615975E+02  0.16730887190E+03  0.00000000000E+00 0. -1.
         -3    1    6    6    0  503  0.35670378666E+02 -0.50960816176E+01 -0.23945041234E+02  0.43263274977E+02  0.00000000000E+00 0.  1.
<mgrwt>
<rscale>  0 0.23176855E+04</rscale>
<asrwt>0</asrwt>
<pdfrwt beam="1">  1        2 0.23078833E+00 0.23176855E+04</pdfrwt>
<pdfrwt beam="2">  1       -2 0.13772363E+00 0.23176855E+04</pdfrwt>
<totfact> 0.43068255E+00</totfact>
</mgrwt>
</event>
<event>
12    2  0.3518828E-008  0.2407949E+04  0.7818608E-02  0.8436534E-01
         -1   -1    0    0    0  501 -0.00000000000E+00  0.00000000000E+00  0.11544641737E+04  0.11544641737E+04  0.00000000000E+00 0.  1.
          1   -1    0    0  501    0  0.00000000000E+00 -0.00000000000E+00 -0.12556078950E+04  0.12556078950E+04  0.00000000000E+00 0. -1.
         23    2    1    2    0    0 -0.95196783490E+03  0.24650991604E+03 -0.35983546480E+03  0.10511201057E+04  0.91444067985E+02 0.  0.
        254    2    1    2    0    0  0.95196783490E+03 -0.24650991604E+03  0.25869174350E+03  0.13589519630E+04  0.90156481863E+03 0.  0.
         23    2    4    4    0    0  0.44024817110E+03 -0.24631649018E+03  0.55775038769E+03  0.75754015207E+03  0.91056694093E+02 0.  0.
         23    2    4    4    0    0  0.51171966380E+03 -0.19342586308E+00 -0.29905864419E+03  0.60141181093E+03  0.10199530345E+03 0.  0.
          3    1    3    3  502    0 -0.78706435811E+03  0.23405970871E+03 -0.28064879670E+03  0.86776609644E+03  0.00000000000E+00 0. -1.
         -3    1    3    3    0  502 -0.16490347680E+03  0.12450207331E+02 -0.79186668092E+02  0.18335400930E+03  0.00000000000E+00 0.  1.
         11    1    5    5    0    0  0.33316484589E+03 -0.22349795406E+03  0.40982770155E+03  0.57350579331E+03  0.00000000000E+00 0. -1.
        -11    1    5    5    0    0  0.10708332521E+03 -0.22818536122E+02  0.14792268614E+03  0.18403435875E+03  0.00000000000E+00 0.  1.
          3    1    6    6  503    0  0.33848640533E+03  0.40702887351E+02 -0.22586156043E+03  0.40895380682E+03  0.00000000000E+00 0. -1.
         -3    1    6    6    0  503  0.17323325847E+03 -0.40896313214E+02 -0.73197083763E+02  0.19245800411E+03  0.00000000000E+00 0.  1.
<mgrwt>
<rscale>  0 0.24079488E+04</rscale>
<asrwt>0</asrwt>
<pdfrwt beam="1">  1        1 0.19317045E+00 0.24079488E+04</pdfrwt>
<pdfrwt beam="2">  1       -1 0.17760987E+00 0.24079488E+04</pdfrwt>
<totfact> 0.18879157E+00</totfact>
</mgrwt>
</event>
<event>
12    2  0.3518828E-008  0.1301955E+04  0.7818608E-02  0.9028017E-01
         -1   -1    0    0    0  501 -0.00000000000E+00  0.00000000000E+00  0.25638518082E+03  0.25638518082E+03  0.00000000000E+00 0.  1.
          1   -1    0    0  501    0  0.00000000000E+00 -0.00000000000E+00 -0.16528700587E+04  0.16528700587E+04  0.00000000000E+00 0. -1.
         23    2    1    2    0    0 -0.29617222050E+03  0.64431440774E+02 -0.20881125483E+03  0.37871041955E+03  0.89163035907E+02 0.  0.
        254    2    1    2    0    0  0.29617222050E+03 -0.64431440774E+02 -0.11876736231E+04  0.15305448200E+04  0.91658573866E+03 0.  0.
         23    2    4    4    0    0  0.41989659781E+03  0.32693990440E+03 -0.73794904124E+03  0.91474481070E+03  0.94796768380E+02 0.  0.
         23    2    4    4    0    0 -0.12372437731E+03 -0.39137134517E+03 -0.44972458183E+03  0.61580000929E+03  0.92077144705E+02 0.  0.
          2    1    3    3  502    0 -0.11009468239E+03  0.64667863223E+02 -0.10707562564E+03  0.16663721442E+03  0.00000000000E+00 0. -1.
         -2    1    3    3    0  502 -0.18607753811E+03 -0.23642244925E+00 -0.10173562920E+03  0.21207320513E+03  0.00000000000E+00 0.  1.
         11    1    5    5    0    0  0.39178319286E+03  0.32987393934E+03 -0.70343816377E+03  0.87013569994E+03  0.00000000000E+00 0.  1.
        -11    1    5    5    0    0  0.28113404952E+02 -0.29340349424E+01 -0.34510877466E+02  0.44609110756E+02  0.00000000000E+00 0. -1.
          4    1    6    6  503    0 -0.73432739070E+02 -0.31760218368E+03 -0.30910716425E+03  0.44923351749E+03  0.00000000000E+00 0.  1.
         -4    1    6    6    0  503 -0.50291638244E+02 -0.73769161495E+02 -0.14061741758E+03  0.16656649180E+03  0.00000000000E+00 0. -1.
<mgrwt>
<rscale>  0 0.13019545E+04</rscale>
<asrwt>0</asrwt>
<pdfrwt beam="1">  1        1 0.25428770E+00 0.13019545E+04</pdfrwt>
<pdfrwt beam="2">  1       -1 0.39443875E-01 0.13019545E+04</pdfrwt>
<totfact> 0.31514897E+01</totfact>
</mgrwt>
</event>
<event>
12    2  0.3518828E-008  0.1979606E+04  0.7818608E-02  0.8616215E-01
         -2   -1    0    0    0  501 -0.00000000000E+00  0.00000000000E+00  0.66498236600E+03  0.66498236600E+03  0.00000000000E+00 0.  1.
          2   -1    0    0  501    0  0.00000000000E+00 -0.00000000000E+00 -0.14732873791E+04  0.14732873791E+04  0.00000000000E+00 0. -1.
         23    2    1    2    0    0  0.27479490062E+03 -0.13148819432E+03  0.45605501164E+03  0.55616297947E+03  0.92356393575E+02 0.  0.
        254    2    1    2    0    0 -0.27479490062E+03  0.13148819432E+03 -0.12643600247E+04  0.15821067656E+04  0.90091851077E+03 0.  0.
         23    2    4    4    0    0  0.84454548745E+02 -0.13058325909E+03 -0.10752562252E+04  0.10904198142E+04  0.93031516623E+02 0.  0.
         23    2    4    4    0    0 -0.35924944937E+03  0.26207145341E+03 -0.18910379952E+03  0.49168695138E+03  0.90852614744E+02 0.  0.
          1    1    3    3  502    0  0.51334846428E+01 -0.21410238188E+02  0.11907566358E+02  0.25030803032E+02  0.00000000000E+00 0. -1.
         -1    1    3    3    0  502  0.26966141598E+03 -0.11007795613E+03  0.44414744529E+03  0.53113217644E+03  0.00000000000E+00 0.  1.
         11    1    5    5    0    0  0.87981074967E+02 -0.90246765262E+02 -0.96041498229E+03  0.96864962004E+03  0.00000000000E+00 0.  1.
        -11    1    5    5    0    0 -0.35265262217E+01 -0.40336493828E+02 -0.11484124291E+03  0.12177019420E+03  0.00000000000E+00 0. -1.
          3    1    6    6  503    0 -0.31393474586E+03  0.26055390983E+03 -0.17730000695E+03  0.44483553933E+03  0.00000000000E+00 0. -1.
         -3    1    6    6    0  503 -0.45314703504E+02  0.15175435780E+01 -0.11803792568E+02  0.46851412051E+02  0.00000000000E+00 0.  1.
<mgrwt>
<rscale>  0 0.19796061E+04</rscale>
<asrwt>0</asrwt>
<pdfrwt beam="1">  1        2 0.22665960E+00 0.19796061E+04</pdfrwt>
<pdfrwt beam="2">  1       -2 0.10230498E+00 0.19796061E+04</pdfrwt>
<totfact> 0.95703344E+00</totfact>
</mgrwt>
</event>
<event>
12    2  0.3518828E-008  0.2963109E+04  0.7818608E-02  0.8254345E-01
         -1   -1    0    0    0  501 -0.00000000000E+00  0.00000000000E+00  0.76854876517E+03  0.76854876517E+03  0.00000000000E+00 0.  1.
          1   -1    0    0  501    0  0.00000000000E+00 -0.00000000000E+00 -0.28560362188E+04  0.28560362188E+04  0.00000000000E+00 0. -1.
         23    2    1    2    0    0 -0.87766085167E+03 -0.81441816051E+02  0.29145435579E+03  0.93203582670E+03  0.82606299974E+02 0.  0.
        254    2    1    2    0    0  0.87766085167E+03  0.81441816051E+02 -0.23789418095E+04  0.26925491573E+04  0.90196202348E+03 0.  0.
         23    2    4    4    0    0  0.27377946261E+03 -0.38788363062E+03 -0.10606308912E+04  0.11657833022E+04  0.93294776641E+02 0.  0.
         23    2    4    4    0    0  0.60388138906E+03  0.46932544667E+03 -0.13183109182E+04  0.15267658551E+04  0.90173122887E+02 0.  0.
          1    1    3    3  502    0 -0.28288230549E+03  0.12056896764E+02  0.98775776052E+02  0.29987400930E+03  0.00000000000E+00 0. -1.
         -1    1    3    3    0  502 -0.59477854618E+03 -0.93498712815E+02  0.19267857974E+03  0.63216181740E+03  0.00000000000E+00 0.  1.
         11    1    5    5    0    0  0.17299236428E+03 -0.21601336635E+03 -0.71719521132E+03  0.76873734376E+03  0.00000000000E+00 0. -1.
        -11    1    5    5    0    0  0.10078709832E+03 -0.17187026427E+03 -0.34343567988E+03  0.39704595848E+03  0.00000000000E+00 0.  1.
          1    1    6    6  503    0  0.25149869249E+03  0.17379873013E+03 -0.44720857042E+03  0.54171311261E+03  0.00000000000E+00 0. -1.
         -1    1    6    6    0  503  0.35238269657E+03  0.29552671654E+03 -0.87110234783E+03  0.98505274246E+03  0.00000000000E+00 0.  1.
<mgrwt>
<rscale>  0 0.29631086E+04</rscale>
<asrwt>0</asrwt>
<pdfrwt beam="1">  1        1 0.43939018E+00 0.29631086E+04</pdfrwt>
<pdfrwt beam="2">  1       -1 0.11823827E+00 0.29631086E+04</pdfrwt>
<totfact> 0.41615017E-01</totfact>
</mgrwt>
</event>
<event>
12    2  0.3518828E-008  0.1395591E+04  0.7818608E-02  0.8957016E-01
         -2   -1    0    0    0  501 -0.00000000000E+00  0.00000000000E+00  0.19272747915E+03  0.19272747915E+03  0.00000000000E+00 0.  1.
          2   -1    0    0  501    0  0.00000000000E+00 -0.00000000000E+00 -0.25264617669E+04  0.25264617669E+04  0.00000000000E+00 0. -1.
         23    2    1    2    0    0 -0.10405681172E+03 -0.54604786185E+02 -0.14421085482E+04  0.14512036191E+04  0.11182744050E+03 0.  0.
        254    2    1    2    0    0  0.10405681172E+03  0.54604786185E+02 -0.89162573953E+03  0.12679856270E+04  0.89385770011E+03 0.  0.
         23    2    4    4    0    0  0.16664697163E+03 -0.11642842337E+03 -0.10090669662E+04  0.10326225252E+04  0.82257803809E+02 0.  0.
         23    2    4    4    0    0 -0.62590159908E+02  0.17103320955E+03  0.11744122665E+03  0.23536310181E+03  0.91833877682E+02 0.  0.
          4    1    3    3  502    0 -0.11652012735E+03 -0.65991888797E+02 -0.13898452103E+04  0.13962813391E+04  0.00000000000E+00 0. -1.
         -4    1    3    3    0  502  0.12463315637E+02  0.11387102611E+02 -0.52263337966E+02  0.54922279978E+02  0.00000000000E+00 0.  1.
         11    1    5    5    0    0  0.11996904019E+03 -0.11133900754E+03 -0.64072469313E+03  0.66129953697E+03  0.00000000000E+00 0. -1.
        -11    1    5    5    0    0  0.46677931431E+02 -0.50894158241E+01 -0.36834227306E+03  0.37132298819E+03  0.00000000000E+00 0.  1.
          2    1    6    6  503    0 -0.79061707278E+02  0.14636219723E+03  0.72382537555E+02  0.18141631150E+03  0.00000000000E+00 0. -1.
         -2    1    6    6    0  503  0.16471547370E+02  0.24671012322E+02  0.45058689097E+02  0.53946790311E+02  0.00000000000E+00 0.  1.
<mgrwt>
<rscale>  0 0.13955911E+04</rscale>
<asrwt>0</asrwt>
<pdfrwt beam="1">  1        2 0.38868642E+00 0.13955911E+04</pdfrwt>
<pdfrwt beam="2">  1       -2 0.29650381E-01 0.13955911E+04</pdfrwt>
<totfact> 0.34423988E+01</totfact>
</mgrwt>
</event>
<event>
12    2  0.3518828E-008  0.1614429E+04  0.7818608E-02  0.8811733E-01
          1   -1    0    0  501    0  0.00000000000E+00  0.00000000000E+00  0.91937420309E+03  0.91937420309E+03  0.00000000000E+00 0. -1.
         -1   -1    0    0    0  501 -0.00000000000E+00 -0.00000000000E+00 -0.70873761249E+03  0.70873761249E+03  0.00000000000E+00 0.  1.
         23    2    1    2    0    0  0.35993479672E+02  0.15403665546E+03 -0.48905761773E+03  0.52229025961E+03  0.92665743531E+02 0.  0.
        254    2    1    2    0    0 -0.35993479672E+02 -0.15403665546E+03  0.69969420832E+03  0.11058215560E+04  0.84157382723E+03 0.  0.
         23    2    4    4    0    0 -0.42671296314E+03 -0.59462238969E+02  0.30978198708E+03  0.53857976961E+03  0.92106340350E+02 0.  0.
         23    2    4    4    0    0  0.39071948347E+03 -0.94574416490E+02  0.38991222124E+03  0.56724178636E+03  0.90142492251E+02 0.  0.
          3    1    3    3  502    0  0.50645082615E+02  0.43840452325E+02 -0.24708162430E+03  0.25600046625E+03  0.00000000000E+00 0. -1.
         -3    1    3    3    0  502 -0.14651602944E+02  0.11019620313E+03 -0.24197599343E+03  0.26628979336E+03  0.00000000000E+00 0.  1.
         11    1    5    5    0    0 -0.38454292142E+02 -0.33968960818E+02  0.31411291777E+02  0.60160552976E+02  0.00000000000E+00 0. -1.
        -11    1    5    5    0    0 -0.38825867100E+03 -0.25493278150E+02  0.27837069531E+03  0.47841921663E+03  0.00000000000E+00 0.  1.
          1    1    6    6  503    0  0.81356040353E+02 -0.43014183269E+01  0.12911498061E+03  0.15266953108E+03  0.00000000000E+00 0. -1.
         -1    1    6    6    0  503  0.30936344311E+03 -0.90272998163E+02  0.26079724063E+03  0.41457225529E+03  0.00000000000E+00 0.  1.
<mgrwt>
<rscale>  0 0.16144288E+04</rscale>
<asrwt>0</asrwt>
<pdfrwt beam="1">  1        1 0.14144219E+00 0.16144288E+04</pdfrwt>
<pdfrwt beam="2">  1       -1 0.10903656E+00 0.16144288E+04</pdfrwt>
<totfact> 0.13106236E+01</totfact>
</mgrwt>
</event>
<event>
12    2  0.3518828E-008  0.1319117E+04  0.7818608E-02  0.9014541E-01
          1   -1    0    0  501    0  0.00000000000E+00  0.00000000000E+00  0.67885036039E+03  0.67885036039E+03  0.00000000000E+00 0. -1.
         -1   -1    0    0    0  501 -0.00000000000E+00 -0.00000000000E+00 -0.64081452880E+03  0.64081452880E+03  0.00000000000E+00 0.  1.
         23    2    1    2    0    0 -0.33635068129E+03 -0.14053472467E+03  0.43819357059E+02  0.37826943615E+03  0.91026592968E+02 0.  0.
        254    2    1    2    0    0  0.33635068129E+03  0.14053472467E+03 -0.57835254740E+01  0.94139545304E+03  0.86793442159E+03 0.  0.
         23    2    4    4    0    0  0.62150382413E+03  0.12645567026E+03  0.11045439628E+02  0.64064198808E+03  0.89677841211E+02 0.  0.
         23    2    4    4    0    0 -0.28515314284E+03  0.14079054408E+02 -0.16828965102E+02  0.30075346496E+03  0.93053199699E+02 0.  0.
          4    1    3    3  502    0 -0.18122870913E+03 -0.11248984241E+03  0.54867875850E+02  0.22024598398E+03  0.00000000000E+00 0. -1.
         -4    1    3    3    0  502 -0.15512197216E+03 -0.28044882262E+02 -0.11048518792E+02  0.15802345217E+03  0.00000000000E+00 0.  1.
         11    1    5    5    0    0  0.29213008466E+03  0.19143783133E+02 -0.15847781643E+02  0.29318530485E+03  0.00000000000E+00 0.  1.
        -11    1    5    5    0    0  0.32937373947E+03  0.10731188713E+03  0.26893221271E+02  0.34745668323E+03  0.00000000000E+00 0. -1.
          2    1    6    6  503    0 -0.18715247966E+03 -0.34724364998E+02 -0.18650742874E+02  0.19125815637E+03  0.00000000000E+00 0.  1.
         -2    1    6    6    0  503 -0.98000663178E+02  0.48803419406E+02  0.18217777719E+01  0.10949530859E+03  0.00000000000E+00 0. -1.
<mgrwt>
<rscale>  0 0.13191166E+04</rscale>
<asrwt>0</asrwt>
<pdfrwt beam="1">  1        1 0.10443852E+00 0.13191166E+04</pdfrwt>
<pdfrwt beam="2">  1       -1 0.98586850E-01 0.13191166E+04</pdfrwt>
<totfact> 0.27584398E+01</totfact>
</mgrwt>
</event>
<event>
12    2  0.3518828E-008  0.1134732E+04  0.7818608E-02  0.9171985E-01
         -1   -1    0    0    0  501 -0.00000000000E+00  0.00000000000E+00  0.16428712033E+03  0.16428712033E+03  0.00000000000E+00 0.  1.
          1   -1    0    0  501    0  0.00000000000E+00 -0.00000000000E+00 -0.19594015695E+04  0.19594015695E+04  0.00000000000E+00 0. -1.
         23    2    1    2    0    0 -0.77577523889E+02  0.70021254477E+02 -0.23159731653E+02  0.14049792774E+03  0.91005748378E+02 0.  0.
        254    2    1    2    0    0  0.77577523889E+02 -0.70021254477E+02 -0.17719547175E+04  0.19831907621E+04  0.88447771572E+03 0.  0.
         23    2    4    4    0    0  0.26099390454E+03  0.10181794340E+03 -0.13432699774E+03  0.32385050881E+03  0.91382153225E+02 0.  0.
         23    2    4    4    0    0 -0.18341638065E+03 -0.17183919788E+03 -0.16376277198E+04  0.16593402533E+04  0.91734666061E+02 0.  0.
          3    1    3    3  502    0  0.18934860644E+02  0.87203297198E+01  0.74482655395E+01  0.22137067502E+02  0.00000000000E+00 0. -1.
         -3    1    3    3    0  502 -0.96512384533E+02  0.61300924757E+02 -0.30607997192E+02  0.11836086024E+03  0.00000000000E+00 0.  1.
         11    1    5    5    0    0  0.37550405598E+02  0.26943643873E+02  0.10305010540E+02  0.47351728036E+02  0.00000000000E+00 0.  1.
        -11    1    5    5    0    0  0.22344349894E+03  0.74874299529E+02 -0.14463200829E+03  0.27649878078E+03  0.00000000000E+00 0. -1.
          3    1    6    6  503    0 -0.12139668473E+03 -0.10416119290E+03 -0.74348200696E+03  0.76049470993E+03  0.00000000000E+00 0. -1.
         -3    1    6    6    0  503 -0.62019695927E+02 -0.67678004979E+02 -0.89414571281E+03  0.89884554333E+03  0.00000000000E+00 0.  1.
<mgrwt>
<rscale>  0 0.11347325E+04</rscale>
<asrwt>0</asrwt>
<pdfrwt beam="1">  1        1 0.30144640E+00 0.11347325E+04</pdfrwt>
<pdfrwt beam="2">  1       -1 0.25274942E-01 0.11347325E+04</pdfrwt>
<totfact> 0.43488965E+01</totfact>
</mgrwt>
</event>
<event>
12    2  0.3518828E-008  0.1486334E+04  0.7818608E-02  0.8893592E-01
         -2   -1    0    0    0  501 -0.00000000000E+00  0.00000000000E+00  0.12076297181E+04  0.12076297181E+04  0.00000000000E+00 0.  1.
          2   -1    0    0  501    0  0.00000000000E+00 -0.00000000000E+00 -0.45733985281E+03  0.45733985281E+03  0.00000000000E+00 0. -1.
         23    2    1    2    0    0  0.18165580713E+03 -0.40943799171E+03  0.92774957704E+02  0.46676135433E+03  0.92847551370E+02 0.  0.
        254    2    1    2    0    0 -0.18165580713E+03  0.40943799171E+03  0.65751490761E+03  0.11982082166E+04  0.89595690481E+03 0.  0.
         23    2    4    4    0    0  0.34000666319E+03  0.36506490694E+02  0.25045651705E+03  0.43361996995E+03  0.91436078916E+02 0.  0.
         23    2    4    4    0    0 -0.52166247033E+03  0.37293150102E+03  0.40705839056E+03  0.76458824665E+03  0.87687035507E+02 0.  0.
          1    1    3    3  502    0  0.12684725168E+03 -0.32987734068E+03  0.10663179736E+03  0.36916070397E+03  0.00000000000E+00 0. -1.
         -1    1    3    3    0  502  0.54808555458E+02 -0.79560651031E+02 -0.13856839657E+02  0.97600650352E+02  0.00000000000E+00 0.  1.
         11    1    5    5    0    0  0.32974759283E+03  0.43075220826E+02  0.21467354429E+03  0.39582026255E+03  0.00000000000E+00 0. -1.
        -11    1    5    5    0    0  0.10259070364E+02 -0.65687301324E+01  0.35782972753E+02  0.37799707398E+02  0.00000000000E+00 0.  1.
          3    1    6    6  503    0 -0.40246274237E+03  0.33012871953E+03  0.32433568009E+03  0.61331465320E+03  0.00000000000E+00 0. -1.
         -3    1    6    6    0  503 -0.11919972795E+03  0.42802781491E+02  0.82722710473E+02  0.15127359345E+03  0.00000000000E+00 0.  1.
<mgrwt>
<rscale>  0 0.14863340E+04</rscale>
<asrwt>0</asrwt>
<pdfrwt beam="1">  1        2 0.70359978E-01 0.14863340E+04</pdfrwt>
<pdfrwt beam="2">  1       -2 0.18578919E+00 0.14863340E+04</pdfrwt>
<totfact> 0.10915038E+01</totfact>
</mgrwt>
</event>
<event>
12    2  0.3518828E-008  0.3156628E+04  0.7818608E-02  0.8200367E-01
         -2   -1    0    0    0  501 -0.00000000000E+00  0.00000000000E+00  0.11142540541E+04  0.11142540541E+04  0.00000000000E+00 0.  1.
          2   -1    0    0  501    0  0.00000000000E+00 -0.00000000000E+00 -0.22356432255E+04  0.22356432255E+04  0.00000000000E+00 0. -1.
         23    2    1    2    0    0 -0.10895647895E+04  0.82791835940E+03 -0.13573384880E+02  0.13714917021E+04  0.90581520901E+02 0.  0.
        254    2    1    2    0    0  0.10895647895E+04 -0.82791835940E+03 -0.11078157865E+04  0.19784055775E+04  0.90234836496E+03 0.  0.
         23    2    4    4    0    0  0.20479372154E+03 -0.69457084335E+03 -0.60372080886E+03  0.94715083917E+03  0.90811740802E+02 0.  0.
         23    2    4    4    0    0  0.88477106795E+03 -0.13334751605E+03 -0.50409497766E+03  0.10312547383E+04  0.93665287226E+02 0.  0.
          1    1    3    3  502    0 -0.45570251911E+03  0.37987436362E+03  0.30158387501E+02  0.59403606489E+03  0.00000000000E+00 0. -1.
         -1    1    3    3    0  502 -0.63386227038E+03  0.44804399578E+03 -0.43731772381E+02  0.77745563724E+03  0.00000000000E+00 0.  1.
         11    1    5    5    0    0  0.15670781323E+03 -0.58863053897E+03 -0.46648536573E+03  0.76723649977E+03  0.00000000000E+00 0.  1.
        -11    1    5    5    0    0  0.48085908311E+02 -0.10594030438E+03 -0.13723544313E+03  0.17991433940E+03  0.00000000000E+00 0. -1.
          3    1    6    6  503    0  0.16677646279E+02 -0.10533705666E+02 -0.25992642625E+02  0.32630052269E+02  0.00000000000E+00 0. -1.
         -3    1    6    6    0  503  0.86809342167E+03 -0.12281381038E+03 -0.47810233503E+03  0.99862468602E+03  0.00000000000E+00 0.  1.
<mgrwt>
<rscale>  0 0.31566276E+04</rscale>
<asrwt>0</asrwt>
<pdfrwt beam="1">  1        2 0.34394511E+00 0.31566276E+04</pdfrwt>
<pdfrwt beam="2">  1       -2 0.17142370E+00 0.31566276E+04</pdfrwt>
<totfact> 0.86756453E-01</totfact>
</mgrwt>
</event>
<event>
12    2  0.3518828E-008  0.2569933E+04  0.7818608E-02  0.8378486E-01
          2   -1    0    0  501    0  0.00000000000E+00  0.00000000000E+00  0.32617013468E+04  0.32617013468E+04  0.00000000000E+00 0.  1.
         -2   -1    0    0    0  501 -0.00000000000E+00 -0.00000000000E+00 -0.50622023169E+03  0.50622023169E+03  0.00000000000E+00 0. -1.
         23    2    1    2    0    0  0.45462328818E+03 -0.52561297959E+03 -0.92209100392E+02  0.70735296750E+03  0.94309935658E+02 0.  0.
        254    2    1    2    0    0 -0.45462328818E+03  0.52561297959E+03  0.28476902155E+04  0.30605686110E+04  0.88022117708E+03 0.  0.
         23    2    4    4    0    0  0.24221299087E+03  0.11230300209E+03  0.48235503745E+03  0.55870627760E+03  0.90593737354E+02 0.  0.
         23    2    4    4    0    0 -0.69683627905E+03  0.41330997750E+03  0.23653351780E+04  0.25018623334E+04  0.89992740634E+02 0.  0.
          3    1    3    3  502    0  0.37567947660E+03 -0.45755830904E+03 -0.10841909079E+03  0.60187155985E+03  0.00000000000E+00 0. -1.
         -3    1    3    3    0  502  0.78943811578E+02 -0.68054670550E+02  0.16209990398E+02  0.10548140765E+03  0.00000000000E+00 0.  1.
         11    1    5    5    0    0  0.15856428133E+02  0.34233050919E+02  0.10726823519E+03  0.11370928884E+03  0.00000000000E+00 0.  1.
        -11    1    5    5    0    0  0.22635656274E+03  0.78069951171E+02  0.37508680226E+03  0.44499698876E+03  0.00000000000E+00 0. -1.
          1    1    6    6  503    0 -0.63030555280E+03  0.34532073956E+03  0.20396128236E+04  0.21625336930E+04  0.00000000000E+00 0. -1.
         -1    1    6    6    0  503 -0.66530726253E+02  0.67989237939E+02  0.32572235444E+03  0.33932864040E+03  0.00000000000E+00 0.  1.
<mgrwt>
<rscale>  0 0.25699332E+04</rscale>
<asrwt>0</asrwt>
<pdfrwt beam="1">  1        2 0.50180019E+00 0.25699332E+04</pdfrwt>
<pdfrwt beam="2">  1       -2 0.77880038E-01 0.25699332E+04</pdfrwt>
<totfact> 0.15382637E+00</totfact>
</mgrwt>
</event>
<event>
12    2  0.3518828E-008  0.2373526E+04  0.7818608E-02  0.8449482E-01
         -2   -1    0    0    0  501 -0.00000000000E+00  0.00000000000E+00  0.41856164630E+03  0.41856164630E+03  0.00000000000E+00 0.  1.
          2   -1    0    0  501    0  0.00000000000E+00 -0.00000000000E+00 -0.33648715919E+04  0.33648715919E+04  0.00000000000E+00 0. -1.
         23    2    1    2    0    0 -0.27715484510E+03  0.84848693850E+03 -0.20912538932E+04  0.22756354642E+04  0.91809731106E+02 0.  0.
        254    2    1    2    0    0  0.27715484510E+03 -0.84848693850E+03 -0.85505605231E+03  0.15077977740E+04  0.86347459821E+03 0.  0.
         23    2    4    4    0    0 -0.16882574541E+03 -0.54682426070E+03 -0.11726379153E+03  0.59104671396E+03  0.89813790020E+02 0.  0.
         23    2    4    4    0    0  0.44598059051E+03 -0.30166267780E+03 -0.73779226078E+03  0.91675106005E+03  0.78714850913E+02 0.  0.
          3    1    3    3  502    0 -0.23173888914E+03  0.75194107595E+03 -0.17668041279E+04  0.19340928418E+04  0.00000000000E+00 0. -1.
         -3    1    3    3    0  502 -0.45415955954E+02  0.96545862544E+02 -0.32444976537E+03  0.34154262235E+03  0.00000000000E+00 0.  1.
         11    1    5    5    0    0 -0.12287116002E+03 -0.41502795905E+03 -0.12713586145E+03  0.45111978013E+03  0.00000000000E+00 0.  1.
        -11    1    5    5    0    0 -0.45954585385E+02 -0.13179630165E+03  0.98720699213E+01  0.13992693383E+03  0.00000000000E+00 0. -1.
          1    1    6    6  503    0  0.37353342866E+02 -0.18704901885E+02 -0.28204948516E+02  0.50405006682E+02  0.00000000000E+00 0. -1.
         -1    1    6    6    0  503  0.40862724764E+03 -0.28295777592E+03 -0.70958731226E+03  0.86634605337E+03  0.00000000000E+00 0.  1.
<mgrwt>
<rscale>  0 0.23735258E+04</rscale>
<asrwt>0</asrwt>
<pdfrwt beam="1">  1        2 0.51767257E+00 0.23735258E+04</pdfrwt>
<pdfrwt beam="2">  1       -2 0.64394098E-01 0.23735258E+04</pdfrwt>
<totfact> 0.20254839E+00</totfact>
</mgrwt>
</event>
<event>
12    2  0.3518828E-008  0.1759149E+04  0.7818608E-02  0.8728330E-01
         -1   -1    0    0    0  501 -0.00000000000E+00  0.00000000000E+00  0.75675473989E+03  0.75675473989E+03  0.00000000000E+00 0.  1.
          1   -1    0    0  501    0  0.00000000000E+00 -0.00000000000E+00 -0.10223273887E+04  0.10223273887E+04  0.00000000000E+00 0. -1.
         23    2    1    2    0    0 -0.43879187553E+03  0.43800883298E+03 -0.16327169715E+02  0.62680917217E+03  0.90736508895E+02 0.  0.
        254    2    1    2    0    0  0.43879187553E+03 -0.43800883298E+03 -0.24924547912E+03  0.11522729564E+04  0.93873298093E+03 0.  0.
         23    2    4    4    0    0  0.16482123234E+02 -0.27570271757E+03 -0.53566551397E+03  0.60906823916E+03  0.87993910216E+02 0.  0.
         23    2    4    4    0    0  0.42230975230E+03 -0.16230611541E+03  0.28642003485E+03  0.54320471728E+03  0.91357137255E+02 0.  0.
          1    1    3    3  502    0 -0.20905306137E+03  0.22301115875E+03 -0.52278017304E+02  0.31011312531E+03  0.00000000000E+00 0. -1.
         -1    1    3    3    0  502 -0.22973881416E+03  0.21499767423E+03  0.35950847588E+02  0.31669604686E+03  0.00000000000E+00 0.  1.
         11    1    5    5    0    0  0.30606119785E+02 -0.23247213139E+03 -0.49636408144E+03  0.54896022423E+03  0.00000000000E+00 0.  1.
        -11    1    5    5    0    0 -0.14123996551E+02 -0.43230586175E+02 -0.39301432523E+02  0.60108014923E+02  0.00000000000E+00 0. -1.
          2    1    6    6  503    0  0.44284277422E+02 -0.50613924701E+02  0.37353088921E+02  0.76929317249E+02  0.00000000000E+00 0. -1.
         -2    1    6    6    0  503  0.37802547488E+03 -0.11169219071E+03  0.24906694593E+03  0.46627540003E+03  0.00000000000E+00 0.  1.
<mgrwt>
<rscale>  0 0.17591488E+04</rscale>
<asrwt>0</asrwt>
<pdfrwt beam="1">  1        1 0.15728114E+00 0.17591488E+04</pdfrwt>
<pdfrwt beam="2">  1       -1 0.11642381E+00 0.17591488E+04</pdfrwt>
<totfact> 0.91739030E+00</totfact>
</mgrwt>
</event>
<event>
12    2  0.3518828E-008  0.1970785E+04  0.7818608E-02  0.8620403E-01
         -2   -1    0    0    0  501 -0.00000000000E+00  0.00000000000E+00  0.29894601399E+03  0.29894601399E+03  0.00000000000E+00 0.  1.
          2   -1    0    0  501    0  0.00000000000E+00 -0.00000000000E+00 -0.32480710696E+04  0.32480710696E+04  0.00000000000E+00 0. -1.
         23    2    1    2    0    0 -0.75951638062E+03  0.86246197858E+02 -0.15143801989E+04  0.16991406557E+04  0.97098104105E+02 0.  0.
        254    2    1    2    0    0  0.75951638062E+03 -0.86246197858E+02 -0.14347448567E+04  0.18478764279E+04  0.87855048229E+03 0.  0.
         23    2    4    4    0    0 -0.86478346669E+02 -0.17209377323E+03 -0.48713062860E+02  0.21927544931E+03  0.92811577664E+02 0.  0.
         23    2    4    4    0    0  0.84599472729E+03  0.85847575372E+02 -0.13860317938E+04  0.16286009786E+04  0.90444066618E+02 0.  0.
          1    1    3    3  502    0 -0.66264074858E+03  0.66349327039E+02 -0.13800708059E+04  0.15323480102E+04  0.00000000000E+00 0. -1.
         -1    1    3    3    0  502 -0.96875632038E+02  0.19896870819E+02 -0.13430939298E+03  0.16679264550E+03  0.00000000000E+00 0.  1.
         11    1    5    5    0    0  0.51202100385E+01 -0.68266936340E+02  0.94313211979E+01  0.69105288999E+02  0.00000000000E+00 0.  1.
        -11    1    5    5    0    0 -0.91598556707E+02 -0.10382683689E+03 -0.58144384057E+02  0.15017016031E+03  0.00000000000E+00 0. -1.
          3    1    6    6  503    0  0.78824084004E+03  0.99385232060E+02 -0.13111039976E+04  0.15330344871E+04  0.00000000000E+00 0. -1.
         -3    1    6    6    0  503  0.57753887256E+02 -0.13537656689E+02 -0.74927796275E+02  0.95566491494E+02  0.00000000000E+00 0.  1.
<mgrwt>
<rscale>  0 0.19707845E+04</rscale>
<asrwt>0</asrwt>
<pdfrwt beam="1">  1        2 0.49970325E+00 0.19707845E+04</pdfrwt>
<pdfrwt beam="2">  1       -2 0.45991694E-01 0.19707845E+04</pdfrwt>
<totfact> 0.50545213E+00</totfact>
</mgrwt>
</event>
<event>
12    2  0.3518828E-008  0.2842634E+04  0.7818608E-02  0.8290153E-01
          1   -1    0    0  501    0  0.00000000000E+00  0.00000000000E+00  0.18320525819E+04  0.18320525819E+04  0.00000000000E+00 0. -1.
         -1   -1    0    0    0  501 -0.00000000000E+00 -0.00000000000E+00 -0.11026656860E+04  0.11026656860E+04  0.00000000000E+00 0.  1.
         23    2    1    2    0    0 -0.56796026613E+03  0.98735987782E+03  0.91815395935E+03  0.14659226044E+04  0.91999982820E+02 0.  0.
        254    2    1    2    0    0  0.56796026613E+03 -0.98735987782E+03 -0.18876706343E+03  0.14687956634E+04  0.90789278249E+03 0.  0.
         23    2    4    4    0    0  0.16540018989E+03 -0.19117041551E+03 -0.45832780245E+03  0.53215328189E+03  0.96017656418E+02 0.  0.
         23    2    4    4    0    0  0.40256007623E+03 -0.79618946231E+03  0.26956073902E+03  0.93664238156E+03  0.93078912922E+02 0.  0.
          3    1    3    3  502    0 -0.42120045115E+03  0.80270411718E+03  0.74400387756E+03  0.11727256668E+04  0.00000000000E+00 0. -1.
         -3    1    3    3    0  502 -0.14675981498E+03  0.18465576064E+03  0.17415008179E+03  0.29319693760E+03  0.00000000000E+00 0.  1.
         11    1    5    5    0    0  0.16046214820E+03 -0.18615469445E+03 -0.37394833096E+03  0.44748075434E+03  0.00000000000E+00 0.  1.
        -11    1    5    5    0    0  0.49380416900E+01 -0.50157210573E+01 -0.84379471491E+02  0.84672527555E+02  0.00000000000E+00 0. -1.
          4    1    6    6  503    0  0.38246570479E+02 -0.63019076570E+02 -0.29712361057E+01  0.73776909729E+02  0.00000000000E+00 0. -1.
         -4    1    6    6    0  503  0.36431350575E+03 -0.73317038574E+03  0.27253197513E+03  0.86286547183E+03  0.00000000000E+00 0.  1.
<mgrwt>
<rscale>  0 0.28426336E+04</rscale>
<asrwt>0</asrwt>
<pdfrwt beam="1">  1        1 0.28185424E+00 0.28426336E+04</pdfrwt>
<pdfrwt beam="2">  1       -1 0.16964087E+00 0.28426336E+04</pdfrwt>
<totfact> 0.82742104E-01</totfact>
</mgrwt>
</event>
<event>
12    2  0.3518828E-008  0.2829114E+04  0.7818608E-02  0.8294286E-01
          1   -1    0    0  501    0  0.00000000000E+00  0.00000000000E+00  0.15496981450E+04  0.15496981450E+04  0.00000000000E+00 0. -1.
         -1   -1    0    0    0  501 -0.00000000000E+00 -0.00000000000E+00 -0.12912008862E+04  0.12912008862E+04  0.00000000000E+00 0.  1.
         23    2    1    2    0    0  0.13932283706E+03  0.70377174820E+03  0.11654525875E+04  0.13715583505E+04  0.90482311078E+02 0.  0.
        254    2    1    2    0    0 -0.13932283706E+03 -0.70377174820E+03 -0.90695532868E+03  0.14693406807E+04  0.90647037522E+03 0.  0.
         23    2    4    4    0    0 -0.37814745177E+02 -0.70240672619E+03 -0.18436173989E+03  0.73417814860E+03  0.10110953858E+03 0.  0.
         23    2    4    4    0    0 -0.10150809189E+03 -0.13650220059E+01 -0.72259358880E+03  0.73516253207E+03  0.89536015001E+02 0.  0.
          1    1    3    3  502    0  0.14705075129E+03  0.57413944386E+03  0.97646344484E+03  0.11422525481E+04  0.00000000000E+00 0. -1.
         -1    1    3    3    0  502 -0.77279142293E+01  0.12963230433E+03  0.18898914271E+03  0.22930580247E+03  0.00000000000E+00 0.  1.
         11    1    5    5    0    0  0.19364771106E+02 -0.51923269179E+02 -0.30691839153E+02  0.63348316732E+02  0.00000000000E+00 0. -1.
        -11    1    5    5    0    0 -0.57179516283E+02 -0.65048345701E+03 -0.15366990073E+03  0.67082983187E+03  0.00000000000E+00 0.  1.
          3    1    6    6  503    0 -0.11982111093E+01 -0.25555297494E+02 -0.71412558869E+02  0.75856855353E+02  0.00000000000E+00 0. -1.
         -3    1    6    6    0  503 -0.10030988078E+03  0.24190275488E+02 -0.65118102993E+03  0.65930567672E+03  0.00000000000E+00 0.  1.
<mgrwt>
<rscale>  0 0.28291141E+04</rscale>
<asrwt>0</asrwt>
<pdfrwt beam="1">  1        1 0.23841510E+00 0.28291141E+04</pdfrwt>
<pdfrwt beam="2">  1       -1 0.19864629E+00 0.28291141E+04</pdfrwt>
<totfact> 0.80264045E-01</totfact>
</mgrwt>
</event>
<event>
12    2  0.3518828E-008  0.1979691E+04  0.7818608E-02  0.8616175E-01
         -2   -1    0    0    0  501 -0.00000000000E+00  0.00000000000E+00  0.71827382161E+03  0.71827382161E+03  0.00000000000E+00 0.  1.
          2   -1    0    0  501    0  0.00000000000E+00 -0.00000000000E+00 -0.13640951088E+04  0.13640951088E+04  0.00000000000E+00 0. -1.
         23    2    1    2    0    0 -0.28476366594E+03 -0.25855940629E+03 -0.97044519057E+03  0.10478589246E+04  0.91110625167E+02 0.  0.
        254    2    1    2    0    0  0.28476366594E+03  0.25855940629E+03  0.32462390339E+03  0.10345100058E+04  0.90381799127E+03 0.  0.
         23    2    4    4    0    0  0.31573245041E+03 -0.24937416766E+03 -0.20419303342E+02  0.41300432435E+03  0.91000924445E+02 0.  0.
         23    2    4    4    0    0 -0.30968784466E+02  0.50793357395E+03  0.34504320673E+03  0.62150568141E+03  0.90878580293E+02 0.  0.
          4    1    3    3  502    0 -0.28320381975E+03 -0.25378510228E+03 -0.89748315230E+03  0.97472421244E+03  0.00000000000E+00 0. -1.
         -4    1    3    3    0  502 -0.15598461869E+01 -0.47743040092E+01 -0.72962038268E+02  0.73134712190E+02  0.00000000000E+00 0.  1.
         11    1    5    5    0    0  0.15158558877E+03 -0.17420709622E+03 -0.25966855807E+02  0.23238025023E+03  0.00000000000E+00 0.  1.
        -11    1    5    5    0    0  0.16414686164E+03 -0.75167071434E+02  0.55475524648E+01  0.18062407412E+03  0.00000000000E+00 0. -1.
          1    1    6    6  503    0  0.30439157174E+02  0.14528994093E+03  0.85004872941E+02  0.17106004106E+03  0.00000000000E+00 0. -1.
         -1    1    6    6    0  503 -0.61407941640E+02  0.36264363302E+03  0.26003833379E+03  0.45044564034E+03  0.00000000000E+00 0.  1.
<mgrwt>
<rscale>  0 0.19796907E+04</rscale>
<asrwt>0</asrwt>
<pdfrwt beam="1">  1        2 0.20986078E+00 0.19796907E+04</pdfrwt>
<pdfrwt beam="2">  1       -2 0.11050367E+00 0.19796907E+04</pdfrwt>
<totfact> 0.91774626E+00</totfact>
</mgrwt>
</event>
<event>
12    2  0.3518828E-008  0.2104268E+04  0.7818608E-02  0.8559366E-01
         -2   -1    0    0    0  501 -0.00000000000E+00  0.00000000000E+00  0.16570276056E+04  0.16570276056E+04  0.00000000000E+00 0.  1.
          2   -1    0    0  501    0  0.00000000000E+00 -0.00000000000E+00 -0.66805528048E+03  0.66805528048E+03  0.00000000000E+00 0. -1.
         23    2    1    2    0    0 -0.36708698425E+03 -0.31402919825E+03 -0.37737990095E+03  0.61985085882E+03  0.91827589405E+02 0.  0.
        254    2    1    2    0    0  0.36708698425E+03  0.31402919825E+03  0.13663522261E+04  0.17052320273E+04  0.89862710272E+03 0.  0.
         23    2    4    4    0    0  0.25112577710E+03 -0.42409528297E+02  0.12786778071E+04  0.13069611995E+04  0.90928096041E+02 0.  0.
         23    2    4    4    0    0  0.11596120715E+03  0.35643872654E+03  0.87674418973E+02  0.39827082775E+03  0.10216301262E+03 0.  0.
          2    1    3    3  502    0 -0.11029264458E+03 -0.15305239141E+03 -0.14442316582E+03  0.23758693734E+03  0.00000000000E+00 0. -1.
         -2    1    3    3    0  502 -0.25679433967E+03 -0.16097680683E+03 -0.23295673513E+03  0.38226392148E+03  0.00000000000E+00 0.  1.
         11    1    5    5    0    0  0.22677370320E+03 -0.65777138811E+02  0.10890129260E+04  0.11143168748E+04  0.00000000000E+00 0.  1.
        -11    1    5    5    0    0  0.24352073897E+02  0.23367610514E+02  0.18966488109E+03  0.19264432471E+03  0.00000000000E+00 0. -1.
          3    1    6    6  503    0  0.41931999667E+02  0.12264244060E+03 -0.18704609998E+02  0.13095542473E+03  0.00000000000E+00 0. -1.
         -3    1    6    6    0  503  0.74029207487E+02  0.23379628594E+03  0.10637902897E+03  0.26731540301E+03  0.00000000000E+00 0.  1.
<mgrwt>
<rscale>  0 0.21042681E+04</rscale>
<asrwt>0</asrwt>
<pdfrwt beam="1">  1        2 0.10277774E+00 0.21042681E+04</pdfrwt>
<pdfrwt beam="2">  1       -2 0.25492732E+00 0.21042681E+04</pdfrwt>
<totfact> 0.23989290E+00</totfact>
</mgrwt>
</event>
<event>
12    2  0.3518828E-008  0.2130587E+04  0.7818608E-02  0.8547888E-01
         -1   -1    0    0    0  501 -0.00000000000E+00  0.00000000000E+00  0.20006687784E+04  0.20006687784E+04  0.00000000000E+00 0.  1.
          1   -1    0    0  501    0  0.00000000000E+00 -0.00000000000E+00 -0.56723520883E+03  0.56723520883E+03  0.00000000000E+00 0. -1.
         23    2    1    2    0    0 -0.75128288542E+03 -0.33856859659E+03  0.69694779003E+03  0.10829096366E+04  0.88895390608E+02 0.  0.
        254    2    1    2    0    0  0.75128288542E+03  0.33856859659E+03  0.73648577949E+03  0.14849943506E+04  0.99183781404E+03 0.  0.
         23    2    4    4    0    0 -0.67032351596E+02  0.20909830823E+03  0.59363534823E+03  0.63948215026E+03  0.91208854648E+02 0.  0.
         23    2    4    4    0    0  0.81831523702E+03  0.12947028836E+03  0.14285043127E+03  0.84551220033E+03  0.89901348674E+02 0.  0.
          1    1    3    3  502    0 -0.62986754464E+03 -0.24895733336E+03  0.55315865617E+03  0.87446976879E+03  0.00000000000E+00 0. -1.
         -1    1    3    3    0  502 -0.12141534078E+03 -0.89611263228E+02  0.14378913386E+03  0.20843986781E+03  0.00000000000E+00 0.  1.
         11    1    5    5    0    0  0.45661031281E+01  0.10116654262E+03  0.33894360667E+03  0.35374890409E+03  0.00000000000E+00 0.  1.
        -11    1    5    5    0    0 -0.71598454724E+02  0.10793176561E+03  0.25469174156E+03  0.28573324617E+03  0.00000000000E+00 0. -1.
          3    1    6    6  503    0  0.67640242010E+03  0.97906929579E+02  0.15088895540E+03  0.69990962105E+03  0.00000000000E+00 0. -1.
         -3    1    6    6    0  503  0.14191281692E+03  0.31563358779E+02 -0.80385241363E+01  0.14560257928E+03  0.00000000000E+00 0.  1.
<mgrwt>
<rscale>  0 0.21305866E+04</rscale>
<asrwt>0</asrwt>
<pdfrwt beam="1">  1        1 0.87266957E-01 0.21305866E+04</pdfrwt>
<pdfrwt beam="2">  1       -1 0.30779519E+00 0.21305866E+04</pdfrwt>
<totfact> 0.10014813E+00</totfact>
</mgrwt>
</event>
<event>
12    2  0.3518828E-008  0.1589965E+04  0.7818608E-02  0.8826737E-01
          3   -1    0    0  501    0  0.00000000000E+00  0.00000000000E+00  0.11749161281E+04  0.11749161281E+04  0.00000000000E+00 0. -1.
         -3   -1    0    0    0  501 -0.00000000000E+00 -0.00000000000E+00 -0.53790842475E+03  0.53790842475E+03  0.00000000000E+00 0.  1.
         23    2    1    2    0    0  0.42099445473E+03 -0.20066558996E+03 -0.61039467617E+02  0.47865684616E+03  0.88789356667E+02 0.  0.
        254    2    1    2    0    0 -0.42099445473E+03  0.20066558996E+03  0.69804717101E+03  0.12341677067E+04  0.90465300832E+03 0.  0.
         23    2    4    4    0    0 -0.35768960548E+02  0.50771010227E+03  0.33094076076E+03  0.61368294361E+03  0.89643748587E+02 0.  0.
         23    2    4    4    0    0 -0.38522549419E+03 -0.30704451231E+03  0.36710641025E+03  0.62048476312E+03  0.86943722616E+02 0.  0.
          2    1    3    3  502    0  0.27395639787E+03 -0.13145017688E+03  0.32768739432E+01  0.30387825661E+03  0.00000000000E+00 0. -1.
         -2    1    3    3    0  502  0.14703805686E+03 -0.69215413083E+02 -0.64316341560E+02  0.17477858955E+03  0.00000000000E+00 0.  1.
         11    1    5    5    0    0  0.21936183531E+02  0.30624153126E+03  0.18813893496E+03  0.36008517112E+03  0.00000000000E+00 0. -1.
        -11    1    5    5    0    0 -0.57705144079E+02  0.20146857101E+03  0.14280182580E+03  0.25359777249E+03  0.00000000000E+00 0.  1.
          1    1    6    6  503    0 -0.35845296761E+03 -0.27454573311E+03  0.30289698182E+03  0.54370071836E+03  0.00000000000E+00 0. -1.
         -1    1    6    6    0  503 -0.26772526577E+02 -0.32498779205E+02  0.64209428433E+02  0.76784044754E+02  0.00000000000E+00 0.  1.
<mgrwt>
<rscale>  0 0.15899651E+04</rscale>
<asrwt>0</asrwt>
<pdfrwt beam="1">  1        3 0.18075633E+00 0.15899651E+04</pdfrwt>
<pdfrwt beam="2">  1       -3 0.82755142E-01 0.15899651E+04</pdfrwt>
<totfact> 0.66494993E-01</totfact>
</mgrwt>
</event>
<event>
12    2  0.3518828E-008  0.1494459E+04  0.7818608E-02  0.8888146E-01
         -2   -1    0    0    0  501 -0.00000000000E+00  0.00000000000E+00  0.13909032147E+03  0.13909032147E+03  0.00000000000E+00 0.  1.
          2   -1    0    0  501    0  0.00000000000E+00 -0.00000000000E+00 -0.40143098941E+04  0.40143098941E+04  0.00000000000E+00 0. -1.
         23    2    1    2    0    0 -0.46615011344E+03 -0.13110081413E+02 -0.14453540735E+04  0.15216313780E+04  0.94052380683E+02 0.  0.
        254    2    1    2    0    0  0.46615011344E+03  0.13110081413E+02 -0.24298654992E+04  0.26317688376E+04  0.89693537557E+03 0.  0.
         23    2    4    4    0    0  0.58832598784E+03  0.21026613015E+03 -0.22194526125E+04  0.23075117823E+04  0.91112090642E+02 0.  0.
         23    2    4    4    0    0 -0.12217587440E+03 -0.19715604874E+03 -0.21041288665E+03  0.32425705523E+03  0.84092824636E+02 0.  0.
          1    1    3    3  502    0 -0.88669466379E+01  0.33485877858E+00 -0.10462258900E+03  0.10499819524E+03  0.00000000000E+00 0. -1.
         -1    1    3    3    0  502 -0.45728316680E+03 -0.13444940191E+02 -0.13407314845E+04  0.14166331827E+04  0.00000000000E+00 0.  1.
         11    1    5    5    0    0  0.52153375484E+03  0.17261667954E+03 -0.20328482874E+04  0.21057697251E+04  0.00000000000E+00 0.  1.
        -11    1    5    5    0    0  0.66792232999E+02  0.37649450616E+02 -0.18660432507E+03  0.20174205723E+03  0.00000000000E+00 0. -1.
          2    1    6    6  503    0  0.52691770111E+01 -0.56914196627E+02 -0.45779380678E+02  0.73230742856E+02  0.00000000000E+00 0. -1.
         -2    1    6    6    0  503 -0.12744505141E+03 -0.14024185211E+03 -0.16463350597E+03  0.25102631237E+03  0.00000000000E+00 0.  1.
<mgrwt>
<rscale>  0 0.14944586E+04</rscale>
<asrwt>0</asrwt>
<pdfrwt beam="1">  1        2 0.61758605E+00 0.14944586E+04</pdfrwt>
<pdfrwt beam="2">  1       -2 0.21398514E-01 0.14944586E+04</pdfrwt>
<totfact> 0.62572801E+00</totfact>
</mgrwt>
</event>
<event>
12    2  0.3518828E-008  0.2929797E+04  0.7818608E-02  0.8264067E-01
         -2   -1    0    0    0  501 -0.00000000000E+00  0.00000000000E+00  0.63128328648E+03  0.63128328648E+03  0.00000000000E+00 0. -1.
          2   -1    0    0  501    0  0.00000000000E+00 -0.00000000000E+00 -0.33993099543E+04  0.33993099543E+04  0.00000000000E+00 0.  1.
         23    2    1    2    0    0 -0.13014628816E+04  0.21427504395E+03 -0.14157216551E+04  0.19371060286E+04  0.91610778190E+02 0.  0.
        254    2    1    2    0    0  0.13014628816E+04 -0.21427504395E+03 -0.13523050127E+04  0.20934872122E+04  0.90235272122E+03 0.  0.
         23    2    4    4    0    0 -0.12179936489E+03 -0.40428462254E+01 -0.17315164278E+03  0.23105866576E+03  0.92494247009E+02 0.  0.
         23    2    4    4    0    0  0.14232622465E+04 -0.21023219772E+03 -0.11791533699E+04  0.18624285464E+04  0.91457211028E+02 0.  0.
          2    1    3    3  502    0 -0.12184546095E+04  0.17785979924E+03 -0.13258852470E+04  0.18094854053E+04  0.00000000000E+00 0.  1.
         -2    1    3    3    0  502 -0.83008272088E+02  0.36415244706E+02 -0.89836408075E+02  0.12762062332E+03  0.00000000000E+00 0. -1.
         11    1    5    5    0    0 -0.62444173366E+02  0.18499059739E+02 -0.24795355306E+02  0.69687155512E+02  0.00000000000E+00 0.  1.
        -11    1    5    5    0    0 -0.59355191527E+02 -0.22541905965E+02 -0.14835628747E+03  0.16137151024E+03  0.00000000000E+00 0. -1.
          2    1    6    6  503    0  0.94899503627E+03 -0.11269123222E+03 -0.73877492683E+03  0.12079235428E+04  0.00000000000E+00 0. -1.
         -2    1    6    6    0  503  0.47426721023E+03 -0.97540965502E+02 -0.44037844312E+03  0.65450500366E+03  0.00000000000E+00 0.  1.
<mgrwt>
<rscale>  0 0.29297970E+04</rscale>
<asrwt>0</asrwt>
<pdfrwt beam="1">  1        2 0.52297075E+00 0.29297970E+04</pdfrwt>
<pdfrwt beam="2">  1       -2 0.97120508E-01 0.29297970E+04</pdfrwt>
<totfact> 0.72676983E-01</totfact>
</mgrwt>
</event>
<event>
12    2  0.3518828E-008  0.2942529E+04  0.7818608E-02  0.8260335E-01
         -2   -1    0    0    0  501 -0.00000000000E+00  0.00000000000E+00  0.12627855084E+04  0.12627855084E+04  0.00000000000E+00 0. -1.
          2   -1    0    0  501    0  0.00000000000E+00 -0.00000000000E+00 -0.17141621247E+04  0.17141621247E+04  0.00000000000E+00 0.  1.
         23    2    1    2    0    0 -0.92589302437E+03  0.95422105862E+03 -0.15179190520E+03  0.13412962669E+04  0.90659648625E+02 0.  0.
        254    2    1    2    0    0  0.92589302437E+03 -0.95422105862E+03 -0.29958471114E+03  0.16356513662E+04  0.90431668759E+03 0.  0.
         23    2    4    4    0    0  0.13412999855E+03  0.16427092717E+03 -0.87265124057E+02  0.24595280658E+03  0.88891997170E+02 0.  0.
         23    2    4    4    0    0  0.79176302581E+03 -0.11184919858E+04 -0.21231958708E+03  0.13896985597E+04  0.90936617209E+02 0.  0.
          3    1    3    3  502    0 -0.30725437072E+02  0.14581996569E+02  0.37807167028E+01  0.34219598565E+02  0.00000000000E+00 0. -1.
         -3    1    3    3    0  502 -0.89516758730E+03  0.93963906205E+03 -0.15557262190E+03  0.13070766684E+04  0.00000000000E+00 0.  1.
         11    1    5    5    0    0  0.14365474084E+03  0.16450084876E+03 -0.76101143812E+02  0.23127602102E+03  0.00000000000E+00 0.  1.
        -11    1    5    5    0    0 -0.95247422864E+01 -0.22992158298E+00 -0.11163980244E+02  0.14676785563E+02  0.00000000000E+00 0. -1.
          3    1    6    6  503    0  0.33484809833E+03 -0.39818570613E+03 -0.71637092878E+02  0.52517328435E+03  0.00000000000E+00 0. -1.
         -3    1    6    6    0  503  0.45691492748E+03 -0.72030627966E+03 -0.14068249420E+03  0.86452527531E+03  0.00000000000E+00 0.  1.
<mgrwt>
<rscale>  0 0.29425289E+04</rscale>
<asrwt>0</asrwt>
<pdfrwt beam="1">  1        2 0.26371725E+00 0.29425289E+04</pdfrwt>
<pdfrwt beam="2">  1       -2 0.19427469E+00 0.29425289E+04</pdfrwt>
<totfact> 0.12021772E+00</totfact>
</mgrwt>
</event>
<event>
12    2  0.3518828E-008  0.1146256E+04  0.7818608E-02  0.9161244E-01
          1   -1    0    0  501    0  0.00000000000E+00  0.00000000000E+00  0.47661322986E+03  0.47661322986E+03  0.00000000000E+00 0. -1.
         -1   -1    0    0    0  501 -0.00000000000E+00 -0.00000000000E+00 -0.68918724362E+03  0.68918724362E+03  0.00000000000E+00 0.  1.
         23    2    1    2    0    0  0.95998009022E+02  0.18308471063E+03 -0.12960383279E+03  0.26068688575E+03  0.91787090192E+02 0.  0.
        254    2    1    2    0    0 -0.95998009022E+02 -0.18308471063E+03 -0.82970180977E+02  0.90511358773E+03  0.87727471567E+03 0.  0.
         23    2    4    4    0    0  0.31000756078E+02 -0.34396113107E+03 -0.38761019393E+03  0.52714384148E+03  0.91480383737E+02 0.  0.
         23    2    4    4    0    0 -0.12699876510E+03  0.16087642044E+03  0.30464001295E+03  0.37796974625E+03  0.89697729072E+02 0.  0.
          3    1    3    3  502    0 -0.16740868385E+02  0.20164084573E+02 -0.51265875661E+01  0.26704473052E+02  0.00000000000E+00 0. -1.
         -3    1    3    3    0  502  0.11273887741E+03  0.16292062606E+03 -0.12447724522E+03  0.23398241270E+03  0.00000000000E+00 0.  1.
         11    1    5    5    0    0 -0.13041758677E+02 -0.20225483214E+03 -0.27105651381E+03  0.33845049604E+03  0.00000000000E+00 0. -1.
        -11    1    5    5    0    0  0.44042514755E+02 -0.14170629894E+03 -0.11655368012E+03  0.18869334544E+03  0.00000000000E+00 0.  1.
          4    1    6    6  503    0 -0.98453491740E+02  0.15341142694E+03  0.29528337914E+03  0.34701646928E+03  0.00000000000E+00 0. -1.
         -4    1    6    6    0  503 -0.28545273360E+02  0.74649934967E+01  0.93566338059E+01  0.30953276972E+02  0.00000000000E+00 0.  1.
<mgrwt>
<rscale>  0 0.11462561E+04</rscale>
<asrwt>0</asrwt>
<pdfrwt beam="1">  1        1 0.73325112E-01 0.11462561E+04</pdfrwt>
<pdfrwt beam="2">  1       -1 0.10602881E+00 0.11462561E+04</pdfrwt>
<totfact> 0.39161397E+01</totfact>
</mgrwt>
</event>
<event>
12    2  0.3518828E-008  0.2023146E+04  0.7818608E-02  0.8595875E-01
         -2   -1    0    0    0  501 -0.00000000000E+00  0.00000000000E+00  0.15278492811E+04  0.15278492811E+04  0.00000000000E+00 0.  1.
          2   -1    0    0  501    0  0.00000000000E+00 -0.00000000000E+00 -0.66975208564E+03  0.66975208564E+03  0.00000000000E+00 0. -1.
         23    2    1    2    0    0 -0.23020439832E+03  0.48973453512E+03  0.10010223591E+04  0.11416932556E+04  0.92648510606E+02 0.  0.
        254    2    1    2    0    0  0.23020439832E+03 -0.48973453512E+03 -0.14292516360E+03  0.10559081112E+04  0.89536604637E+03 0.  0.
         23    2    4    4    0    0  0.26017406270E+03 -0.18633605161E+03  0.34093455090E+03  0.47671941587E+03  0.92808223944E+02 0.  0.
         23    2    4    4    0    0 -0.29969664380E+02 -0.30339848351E+03 -0.48385971451E+03  0.57918869533E+03  0.91599677366E+02 0.  0.
          4    1    3    3  502    0 -0.43666216288E+01  0.38289719424E+02  0.36565692642E+02  0.53124569423E+02  0.00000000000E+00 0. -1.
         -4    1    3    3    0  502 -0.22583777670E+03  0.45144481570E+03  0.96445666647E+03  0.10885686862E+04  0.00000000000E+00 0.  1.
         11    1    5    5    0    0  0.52374696312E+02 -0.12082000364E+02  0.10195283053E+03  0.11525390753E+03  0.00000000000E+00 0.  1.
        -11    1    5    5    0    0  0.20779936639E+03 -0.17425405124E+03  0.23898172037E+03  0.36146550834E+03  0.00000000000E+00 0. -1.
          1    1    6    6  503    0 -0.30416345187E+02 -0.13519886757E+03 -0.29723218000E+03  0.32794947275E+03  0.00000000000E+00 0. -1.
         -1    1    6    6    0  503  0.44668080704E+00 -0.16819961595E+03 -0.18662753450E+03  0.25123922258E+03  0.00000000000E+00 0.  1.
<mgrwt>
<rscale>  0 0.20231463E+04</rscale>
<asrwt>0</asrwt>
<pdfrwt beam="1">  1        2 0.10303878E+00 0.20231463E+04</pdfrwt>
<pdfrwt beam="2">  1       -2 0.23505373E+00 0.20231463E+04</pdfrwt>
<totfact> 0.31924053E+00</totfact>
</mgrwt>
</event>
<event>
12    2  0.3518828E-008  0.2657750E+04  0.7818608E-02  0.8348845E-01
          2   -1    0    0  501    0  0.00000000000E+00  0.00000000000E+00  0.18069098921E+04  0.18069098921E+04  0.00000000000E+00 0. -1.
         -2   -1    0    0    0  501 -0.00000000000E+00 -0.00000000000E+00 -0.97730868600E+03  0.97730868600E+03  0.00000000000E+00 0.  1.
         23    2    1    2    0    0  0.18182013971E+03 -0.69584304112E+03  0.13415022560E+04  0.15248602061E+04  0.91182476870E+02 0.  0.
        254    2    1    2    0    0 -0.18182013971E+03  0.69584304112E+03 -0.51190104993E+03  0.12593583720E+04  0.89815629105E+03 0.  0.
         23    2    4    4    0    0  0.24992516942E+03  0.42731254182E+03 -0.54360538955E+03  0.74116798215E+03  0.93619226196E+02 0.  0.
         23    2    4    4    0    0 -0.43174530913E+03  0.26853049930E+03  0.31704339617E+02  0.51819038986E+03  0.94886637537E+02 0.  0.
          1    1    3    3  502    0  0.16572934976E+03 -0.59693190232E+03  0.12115942121E+04  0.13607918460E+04  0.00000000000E+00 0. -1.
         -1    1    3    3    0  502  0.16090789940E+02 -0.98911138800E+02  0.12990804396E+03  0.16406836009E+03  0.00000000000E+00 0.  1.
         11    1    5    5    0    0  0.56955193405E+00 -0.54006847240E+00 -0.21680826772E+02  0.21695029682E+02  0.00000000000E+00 0.  1.
        -11    1    5    5    0    0  0.24935561749E+03  0.42785261029E+03 -0.52192456278E+03  0.71947295247E+03  0.00000000000E+00 0. -1.
          4    1    6    6  503    0 -0.21443873321E+03  0.15769208982E+03  0.59268750294E+02  0.27269681012E+03  0.00000000000E+00 0. -1.
         -4    1    6    6    0  503 -0.21730657592E+03  0.11083840949E+03 -0.27564410678E+02  0.24549357974E+03  0.00000000000E+00 0.  1.
<mgrwt>
<rscale>  0 0.26577500E+04</rscale>
<asrwt>0</asrwt>
<pdfrwt beam="1">  1        2 0.27798614E+00 0.26577500E+04</pdfrwt>
<pdfrwt beam="2">  1       -2 0.15035518E+00 0.26577500E+04</pdfrwt>
<totfact> 0.22421846E+00</totfact>
</mgrwt>
</event>
<event>
12    2  0.3518828E-008  0.2514767E+04  0.7818608E-02  0.8397743E-01
         -2   -1    0    0    0  501 -0.00000000000E+00  0.00000000000E+00  0.46916946285E+03  0.46916946285E+03  0.00000000000E+00 0.  1.
          2   -1    0    0  501    0  0.00000000000E+00 -0.00000000000E+00 -0.33698133615E+04  0.33698133615E+04  0.00000000000E+00 0. -1.
         23    2    1    2    0    0  0.10331645495E+03 -0.66084881474E+02 -0.27961022749E+04  0.28002698081E+04  0.91003104517E+02 0.  0.
        254    2    1    2    0    0 -0.10331645495E+03  0.66084881474E+02 -0.10454162377E+03  0.10387130163E+04  0.10261356039E+04 0.  0.
         23    2    4    4    0    0 -0.43568331033E+02 -0.48193851576E+02 -0.55266239314E+03  0.56367368364E+03  0.89841271307E+02 0.  0.
         23    2    4    4    0    0 -0.59748123914E+02  0.11427873305E+03  0.44812076937E+03  0.47503933263E+03  0.90667946177E+02 0.  0.
          4    1    3    3  502    0  0.11711027974E+03 -0.72228794404E+02 -0.25345605424E+04  0.25382925283E+04  0.00000000000E+00 0. -1.
         -4    1    3    3    0  502 -0.13793824793E+02  0.61439129294E+01 -0.26154173252E+03  0.26197727978E+03  0.00000000000E+00 0.  1.
         11    1    5    5    0    0 -0.64527159043E+02 -0.17017648437E+02 -0.25250139410E+03  0.26117103330E+03  0.00000000000E+00 0.  1.
        -11    1    5    5    0    0  0.20958828010E+02 -0.31176203138E+02 -0.30016099904E+03  0.30250265033E+03  0.00000000000E+00 0. -1.
          1    1    6    6  503    0 -0.46558778185E+02  0.65229183803E+02  0.38866851839E+03  0.39684478506E+03  0.00000000000E+00 0. -1.
         -1    1    6    6    0  503 -0.13189345729E+02  0.49049549247E+02  0.59452250985E+02  0.78194547568E+02  0.00000000000E+00 0.  1.
<mgrwt>
<rscale>  0 0.25147672E+04</rscale>
<asrwt>0</asrwt>
<pdfrwt beam="1">  1        2 0.51843280E+00 0.25147672E+04</pdfrwt>
<pdfrwt beam="2">  1       -2 0.72179920E-01 0.25147672E+04</pdfrwt>
<totfact> 0.15488952E+00</totfact>
</mgrwt>
</event>
<event>
12    2  0.3518828E-008  0.1112340E+04  0.7818608E-02  0.9193248E-01
          1   -1    0    0  501    0  0.00000000000E+00  0.00000000000E+00  0.21891478541E+04  0.21891478541E+04  0.00000000000E+00 0. -1.
         -1   -1    0    0    0  501 -0.00000000000E+00 -0.00000000000E+00 -0.14129920135E+03  0.14129920135E+03  0.00000000000E+00 0.  1.
         23    2    1    2    0    0 -0.62298495618E+02  0.13787244286E+03  0.11418219134E+03  0.20801325331E+03  0.85685632845E+02 0.  0.
        254    2    1    2    0    0  0.62298495618E+02 -0.13787244286E+03  0.19336664615E+04  0.21224338022E+04  0.86184067405E+03 0.  0.
         23    2    4    4    0    0  0.10736677192E+03  0.20033554561E+03  0.16555587529E+04  0.16737806687E+04  0.94894617080E+02 0.  0.
         23    2    4    4    0    0 -0.45068276305E+02 -0.33820798847E+03  0.27810770860E+03  0.44865313344E+03  0.86775247457E+02 0.  0.
          4    1    3    3  502    0 -0.38009304642E+02  0.69457161922E+02  0.10968276226E+03  0.13527495304E+03  0.00000000000E+00 0. -1.
         -4    1    3    3    0  502 -0.24289190976E+02  0.68415280939E+02  0.44994290763E+01  0.72738300270E+02  0.00000000000E+00 0.  1.
         11    1    5    5    0    0  0.29469345358E+02  0.11888983520E+03  0.61077890957E+03  0.62293989405E+03  0.00000000000E+00 0.  1.
        -11    1    5    5    0    0  0.77897426565E+02  0.81445710410E+02  0.10447798433E+04  0.10508407747E+04  0.00000000000E+00 0. -1.
          4    1    6    6  503    0 -0.42902498278E+02 -0.60011771188E+02  0.62327562264E+02  0.96575162735E+02  0.00000000000E+00 0.  1.
         -4    1    6    6    0  503 -0.21657780266E+01 -0.27819621728E+03  0.21578014634E+03  0.35207797071E+03  0.00000000000E+00 0. -1.
<mgrwt>
<rscale>  0 0.11123396E+04</rscale>
<asrwt>0</asrwt>
<pdfrwt beam="1">  1        1 0.33679195E+00 0.11123396E+04</pdfrwt>
<pdfrwt beam="2">  1       -1 0.21738340E-01 0.11123396E+04</pdfrwt>
<totfact> 0.39404362E+01</totfact>
</mgrwt>
</event>
<event>
12    2  0.3518828E-008  0.1620166E+04  0.7818608E-02  0.8808254E-01
         -2   -1    0    0    0  501 -0.00000000000E+00  0.00000000000E+00  0.19240395956E+03  0.19240395956E+03  0.00000000000E+00 0.  1.
          2   -1    0    0  501    0  0.00000000000E+00 -0.00000000000E+00 -0.34107133607E+04  0.34107133607E+04  0.00000000000E+00 0. -1.
         23    2    1    2    0    0 -0.44999112325E+03  0.12125197886E+03 -0.45989135170E+03  0.66118592504E+03  0.92047372126E+02 0.  0.
        254    2    1    2    0    0  0.44999112325E+03 -0.12125197886E+03 -0.27584180495E+04  0.29419313953E+04  0.91043733739E+03 0.  0.
         23    2    4    4    0    0  0.66138014607E+03 -0.26835837117E+03 -0.22814765272E+04  0.23922768672E+04  0.91725417994E+02 0.  0.
         23    2    4    4    0    0 -0.21138902282E+03  0.14710639231E+03 -0.47694152225E+03  0.54965452801E+03  0.91221022139E+02 0.  0.
          1    1    3    3  502    0 -0.10786236468E+03  0.71075671861E+02 -0.11968076503E+03  0.17609521959E+03  0.00000000000E+00 0. -1.
         -1    1    3    3    0  502 -0.34212875858E+03  0.50176306995E+02 -0.34021058667E+03  0.48509070545E+03  0.00000000000E+00 0.  1.
         11    1    5    5    0    0  0.49731000853E+03 -0.22026610998E+03 -0.16107897884E+04  0.17001406254E+04  0.00000000000E+00 0. -1.
        -11    1    5    5    0    0  0.16407013755E+03 -0.48092261189E+02 -0.67068673882E+03  0.69213624182E+03  0.00000000000E+00 0.  1.
          4    1    6    6  503    0 -0.13537024599E+03  0.79662420791E+02 -0.19773055897E+03  0.25252441216E+03  0.00000000000E+00 0. -1.
         -4    1    6    6    0  503 -0.76018776828E+02  0.67443971523E+02 -0.27921096329E+03  0.29713011585E+03  0.00000000000E+00 0.  1.
<mgrwt>
<rscale>  0 0.16201664E+04</rscale>
<asrwt>0</asrwt>
<pdfrwt beam="1">  1        2 0.52472508E+00 0.16201664E+04</pdfrwt>
<pdfrwt beam="2">  1       -2 0.29600612E-01 0.16201664E+04</pdfrwt>
<totfact> 0.95346400E+00</totfact>
</mgrwt>
</event>
<event>
12    2  0.3518828E-008  0.1067850E+04  0.7818608E-02  0.9237107E-01
          2   -1    0    0  501    0  0.00000000000E+00  0.00000000000E+00  0.16943385609E+04  0.16943385609E+04  0.00000000000E+00 0. -1.
         -2   -1    0    0    0  501 -0.00000000000E+00 -0.00000000000E+00 -0.16825198133E+03  0.16825198133E+03  0.00000000000E+00 0.  1.
         23    2    1    2    0    0  0.41216939952E+02 -0.89638886502E+02  0.32879322468E+03  0.35513397862E+03  0.91001055286E+02 0.  0.
        254    2    1    2    0    0 -0.41216939952E+02  0.89638886502E+02  0.11972933549E+04  0.15074565637E+04  0.91059318438E+03 0.  0.
         23    2    4    4    0    0 -0.11725281085E+03 -0.23394296921E+03  0.11207879692E+04  0.11543750362E+04  0.89098359214E+02 0.  0.
         23    2    4    4    0    0  0.76035870898E+02  0.32358185572E+03  0.76505385685E+02  0.35308152750E+03  0.91251410990E+02 0.  0.
          2    1    3    3  502    0  0.59234444795E+02 -0.41662405450E+02  0.25644163875E+03  0.26647099197E+03  0.00000000000E+00 0. -1.
         -2    1    3    3    0  502 -0.18017504843E+02 -0.47976481052E+02  0.72351585933E+02  0.88662986651E+02  0.00000000000E+00 0.  1.
         11    1    5    5    0    0 -0.10310295668E+03 -0.14268536772E+03  0.59333608765E+03  0.61889986811E+03  0.00000000000E+00 0.  1.
        -11    1    5    5    0    0 -0.14149854169E+02 -0.91257601490E+02  0.52745188160E+03  0.53547516806E+03  0.00000000000E+00 0. -1.
          4    1    6    6  503    0  0.45570677242E+02  0.30628110302E+03  0.68113436055E+02  0.31705558008E+03  0.00000000000E+00 0. -1.
         -4    1    6    6    0  503  0.30465193656E+02  0.17300752699E+02  0.83919496302E+01  0.36025947414E+02  0.00000000000E+00 0.  1.
<mgrwt>
<rscale>  0 0.10678498E+04</rscale>
<asrwt>0</asrwt>
<pdfrwt beam="1">  1        2 0.26066746E+00 0.10678498E+04</pdfrwt>
<pdfrwt beam="2">  1       -2 0.25884921E-01 0.10678498E+04</pdfrwt>
<totfact> 0.13232016E+02</totfact>
</mgrwt>
</event>
<event>
12    2  0.3518828E-008  0.1335567E+04  0.7818608E-02  0.9001826E-01
         -2   -1    0    0    0  501 -0.00000000000E+00  0.00000000000E+00  0.34512785368E+03  0.34512785368E+03  0.00000000000E+00 0. -1.
          2   -1    0    0  501    0  0.00000000000E+00 -0.00000000000E+00 -0.12920862421E+04  0.12920862421E+04  0.00000000000E+00 0.  1.
         23    2    1    2    0    0 -0.19634343466E+03 -0.29838719694E+03 -0.27806264071E+03  0.46147720218E+03  0.89759190814E+02 0.  0.
        254    2    1    2    0    0  0.19634343466E+03  0.29838719694E+03 -0.66889574770E+03  0.11757368936E+04  0.89852660398E+03 0.  0.
         23    2    4    4    0    0  0.16473163066E+03 -0.21998115225E+03 -0.56963440617E+03  0.63919145668E+03  0.92488616087E+02 0.  0.
         23    2    4    4    0    0  0.31611804005E+02  0.51836834919E+03 -0.99261341524E+02  0.53654543693E+03  0.91231246686E+02 0.  0.
          1    1    3    3  502    0 -0.13544525481E+03 -0.23528089404E+03 -0.16247849960E+03  0.31638865180E+03  0.00000000000E+00 0. -1.
         -1    1    3    3    0  502 -0.60898179851E+02 -0.63106302895E+02 -0.11558414112E+03  0.14508855038E+03  0.00000000000E+00 0.  1.
         11    1    5    5    0    0  0.87575503855E+02 -0.16886629909E+03 -0.31176216996E+03  0.36521356281E+03  0.00000000000E+00 0. -1.
        -11    1    5    5    0    0  0.77156126802E+02 -0.51114853166E+02 -0.25787223621E+03  0.27397789386E+03  0.00000000000E+00 0.  1.
          3    1    6    6  503    0  0.44517251005E+02  0.42150110525E+03 -0.49040725784E+02  0.42667313033E+03  0.00000000000E+00 0. -1.
         -3    1    6    6    0  503 -0.12905447000E+02  0.96867243946E+02 -0.50220615740E+02  0.10987230660E+03  0.00000000000E+00 0.  1.
<mgrwt>
<rscale>  0 0.13355672E+04</rscale>
<asrwt>0</asrwt>
<pdfrwt beam="1">  1        2 0.19878249E+00 0.13355672E+04</pdfrwt>
<pdfrwt beam="2">  1       -2 0.53096594E-01 0.13355672E+04</pdfrwt>
<totfact> 0.54630726E+01</totfact>
</mgrwt>
</event>
<event>
12    2  0.3518828E-008  0.2157952E+04  0.7818608E-02  0.8536136E-01
          1   -1    0    0  501    0  0.00000000000E+00  0.00000000000E+00  0.14327368363E+04  0.14327368363E+04  0.00000000000E+00 0. -1.
         -1   -1    0    0    0  501 -0.00000000000E+00 -0.00000000000E+00 -0.81256353846E+03  0.81256353846E+03  0.00000000000E+00 0.  1.
         23    2    1    2    0    0 -0.85249296278E+03 -0.60889550079E+02 -0.21939924005E+02  0.85960238241E+03  0.89348232686E+02 0.  0.
        254    2    1    2    0    0  0.85249296278E+03  0.60889550079E+02  0.64211322186E+03  0.13856979924E+04  0.88170162043E+03 0.  0.
         23    2    4    4    0    0  0.87556808940E+03 -0.21618413317E+03  0.60956335508E+03  0.10923439366E+04  0.91064446637E+02 0.  0.
         23    2    4    4    0    0 -0.23075126624E+02  0.27707368325E+03  0.32549866771E+02  0.29335405572E+03  0.87720127476E+02 0.  0.
          2    1    3    3  502    0 -0.37992234084E+03  0.14714142417E+02  0.53504954735E+01  0.38024481437E+03  0.00000000000E+00 0. -1.
         -2    1    3    3    0  502 -0.47257062194E+03 -0.75603692496E+02 -0.27290419479E+02  0.47935756804E+03  0.00000000000E+00 0.  1.
         11    1    5    5    0    0  0.24385906458E+03 -0.75999265000E+02  0.12776923527E+03  0.28560131152E+03  0.00000000000E+00 0. -1.
        -11    1    5    5    0    0  0.63170902482E+03 -0.14018486817E+03  0.48179411981E+03  0.80674262512E+03  0.00000000000E+00 0.  1.
          3    1    6    6  503    0 -0.46208598178E+02  0.12966735775E+03  0.41787766569E+02  0.14385783137E+03  0.00000000000E+00 0. -1.
         -3    1    6    6    0  503  0.23133471554E+02  0.14740632550E+03 -0.92378997982E+01  0.14949622435E+03  0.00000000000E+00 0.  1.
<mgrwt>
<rscale>  0 0.21579525E+04</rscale>
<asrwt>0</asrwt>
<pdfrwt beam="1">  1        1 0.22042105E+00 0.21579525E+04</pdfrwt>
<pdfrwt beam="2">  1       -1 0.12500978E+00 0.21579525E+04</pdfrwt>
<totfact> 0.37310908E+00</totfact>
</mgrwt>
</event>
<event>
12    2  0.3518828E-008  0.1219559E+04  0.7818608E-02  0.9095907E-01
          2   -1    0    0  501    0  0.00000000000E+00  0.00000000000E+00  0.19437218471E+04  0.19437218471E+04  0.00000000000E+00 0. -1.
         -2   -1    0    0    0  501 -0.00000000000E+00 -0.00000000000E+00 -0.19129835841E+03  0.19129835841E+03  0.00000000000E+00 0.  1.
         23    2    1    2    0    0  0.34109902906E+02  0.26032644102E+03  0.33296933153E+03  0.43424844528E+03  0.93647184221E+02 0.  0.
        254    2    1    2    0    0 -0.34109902906E+02 -0.26032644102E+03  0.14194541572E+04  0.17007717602E+04  0.89935595552E+03 0.  0.
         23    2    4    4    0    0  0.41663774437E+03 -0.61145288797E+02  0.74385890783E+03  0.85954560596E+03  0.90370446407E+02 0.  0.
         23    2    4    4    0    0 -0.45074764728E+03 -0.19918115223E+03  0.67559524934E+03  0.84122615428E+03  0.91574716936E+02 0.  0.
          1    1    3    3  502    0  0.40344058792E+01  0.12971443765E+03  0.23421355016E+03  0.26776500676E+03  0.00000000000E+00 0. -1.
         -1    1    3    3    0  502  0.30075497027E+02  0.13061200337E+03  0.98755781369E+02  0.16648343851E+03  0.00000000000E+00 0.  1.
         11    1    5    5    0    0  0.33264430321E+02 -0.19571880363E+02  0.12071501551E+03  0.12673474581E+03  0.00000000000E+00 0. -1.
        -11    1    5    5    0    0  0.38337331405E+03 -0.41573408434E+02  0.62314389232E+03  0.73281086015E+03  0.00000000000E+00 0.  1.
          4    1    6    6  503    0 -0.68252631521E+02 -0.69088509141E+02  0.12432530637E+03  0.15776065925E+03  0.00000000000E+00 0. -1.
         -4    1    6    6    0  503 -0.38249501576E+03 -0.13009264309E+03  0.55126994297E+03  0.68346549502E+03  0.00000000000E+00 0.  1.
<mgrwt>
<rscale>  0 0.12195586E+04</rscale>
<asrwt>0</asrwt>
<pdfrwt beam="1">  1        2 0.29903412E+00 0.12195586E+04</pdfrwt>
<pdfrwt beam="2">  1       -2 0.29430518E-01 0.12195586E+04</pdfrwt>
<totfact> 0.75272390E+01</totfact>
</mgrwt>
</event>
<event>
12    2  0.3518828E-008  0.2656584E+04  0.7818608E-02  0.8349231E-01
          2   -1    0    0  501    0  0.00000000000E+00  0.00000000000E+00  0.42385296787E+04  0.42385296787E+04  0.00000000000E+00 0. -1.
         -2   -1    0    0    0  501 -0.00000000000E+00 -0.00000000000E+00 -0.41626695322E+03  0.41626695322E+03  0.00000000000E+00 0.  1.
         23    2    1    2    0    0 -0.64893188667E+03  0.52972817687E+03  0.25159135495E+03  0.88008647935E+03  0.97618985617E+02 0.  0.
        254    2    1    2    0    0  0.64893188667E+03 -0.52972817687E+03  0.35706713705E+04  0.37747101526E+04  0.89275873817E+03 0.  0.
         23    2    4    4    0    0  0.62396732694E+03 -0.60428989790E+03  0.18078865399E+04  0.20077933651E+04  0.90988736350E+02 0.  0.
         23    2    4    4    0    0  0.24964559731E+02  0.74561721037E+02  0.17627848306E+04  0.17669167874E+04  0.91661851778E+02 0.  0.
          4    1    3    3  502    0 -0.10044480497E+03  0.40228190968E+02  0.31186931823E+02  0.11260590975E+03  0.00000000000E+00 0. -1.
         -4    1    3    3    0  502 -0.54848708170E+03  0.48949998590E+03  0.22040442312E+03  0.76748056960E+03  0.00000000000E+00 0.  1.
         11    1    5    5    0    0  0.27037462593E+03 -0.29796455984E+03  0.75086723675E+03  0.85187259875E+03  0.00000000000E+00 0. -1.
        -11    1    5    5    0    0  0.35359270101E+03 -0.30632533806E+03  0.10570193031E+04  0.11559207664E+04  0.00000000000E+00 0.  1.
          1    1    6    6  503    0  0.51165975285E+02  0.25137409676E+02  0.57596497015E+03  0.57877931306E+03  0.00000000000E+00 0. -1.
         -1    1    6    6    0  503 -0.26201415554E+02  0.49424311361E+02  0.11868198605E+04  0.11881374744E+04  0.00000000000E+00 0.  1.
<mgrwt>
<rscale>  0 0.26565841E+04</rscale>
<asrwt>0</asrwt>
<pdfrwt beam="1">  1        2 0.65208146E+00 0.26565841E+04</pdfrwt>
<pdfrwt beam="2">  1       -2 0.64041073E-01 0.26565841E+04</pdfrwt>
<totfact> 0.42811488E-01</totfact>
</mgrwt>
</event>
<event>
12    2  0.3518828E-008  0.1417774E+04  0.7818608E-02  0.8941053E-01
          1   -1    0    0  501    0  0.00000000000E+00  0.00000000000E+00  0.27783897187E+04  0.27783897187E+04  0.00000000000E+00 0. -1.
         -1   -1    0    0    0  501 -0.00000000000E+00 -0.00000000000E+00 -0.18086758507E+03  0.18086758507E+03  0.00000000000E+00 0.  1.
         23    2    1    2    0    0 -0.22450723466E+03 -0.34638900395E+02  0.15048700286E+04  0.15247092077E+04  0.92200940094E+02 0.  0.
        254    2    1    2    0    0  0.22450723466E+03  0.34638900395E+02  0.10926521051E+04  0.14345480961E+04  0.90135246456E+03 0.  0.
         23    2    4    4    0    0  0.85244968535E+02  0.39611593722E+03  0.20532133002E+03  0.46201071755E+03  0.84394989146E+02 0.  0.
         23    2    4    4    0    0  0.13926226613E+03 -0.36147703682E+03  0.88733077506E+03  0.97253737852E+03  0.91724704038E+02 0.  0.
          2    1    3    3  502    0 -0.21686102464E+03 -0.46723468364E+02  0.14750432803E+04  0.14916314777E+04  0.00000000000E+00 0. -1.
         -2    1    3    3    0  502 -0.76462100249E+01  0.12084567969E+02  0.29826748326E+02  0.33077730068E+02  0.00000000000E+00 0.  1.
         11    1    5    5    0    0  0.55455357939E+02  0.33967446483E+03  0.14264703563E+03  0.37256169362E+03  0.00000000000E+00 0.  1.
        -11    1    5    5    0    0  0.29789610596E+02  0.56441472392E+02  0.62674294388E+02  0.89449023931E+02  0.00000000000E+00 0. -1.
          1    1    6    6  503    0 -0.25703294283E+01  0.32959797814E+01  0.21638016086E+01  0.47066031797E+01  0.00000000000E+00 0. -1.
         -1    1    6    6    0  503  0.14183259556E+03 -0.36477301660E+03  0.88516697345E+03  0.96783077534E+03  0.00000000000E+00 0.  1.
<mgrwt>
<rscale>  0 0.14177738E+04</rscale>
<asrwt>0</asrwt>
<pdfrwt beam="1">  1        1 0.42744454E+00 0.14177738E+04</pdfrwt>
<pdfrwt beam="2">  1       -1 0.27825784E-01 0.14177738E+04</pdfrwt>
<totfact> 0.98398533E+00</totfact>
</mgrwt>
</event>
<event>
12    2  0.3518828E-008  0.2345584E+04  0.7818608E-02  0.8460162E-01
          2   -1    0    0  501    0  0.00000000000E+00  0.00000000000E+00  0.18987456641E+04  0.18987456641E+04  0.00000000000E+00 0. -1.
         -2   -1    0    0    0  501 -0.00000000000E+00 -0.00000000000E+00 -0.72439446610E+03  0.72439446610E+03  0.00000000000E+00 0.  1.
         23    2    1    2    0    0 -0.52179233595E+03  0.96979659007E+02  0.14475571541E+04  0.15443514573E+04  0.89036020390E+02 0.  0.
        254    2    1    2    0    0  0.52179233595E+03 -0.96979659007E+02 -0.27320595612E+03  0.10787886730E+04  0.89859401865E+03 0.  0.
         23    2    4    4    0    0  0.73188923469E+02  0.36838055679E+03 -0.15171257993E+03  0.41500802949E+03  0.90300080274E+02 0.  0.
         23    2    4    4    0    0  0.44860341248E+03 -0.46536021580E+03 -0.12149337619E+03  0.66378064347E+03  0.89660192148E+02 0.  0.
          2    1    3    3  502    0 -0.50243225067E+03  0.73835513975E+02  0.13578542796E+04  0.14497096586E+04  0.00000000000E+00 0. -1.
         -2    1    3    3    0  502 -0.19360085281E+02  0.23144145032E+02  0.89702874585E+02  0.94641798695E+02  0.00000000000E+00 0.  1.
         11    1    5    5    0    0  0.99530901011E+01  0.47256268785E+02 -0.56128657695E+02  0.74044886094E+02  0.00000000000E+00 0.  1.
        -11    1    5    5    0    0  0.63235833368E+02  0.32112428800E+03 -0.95583922232E+02  0.34096314340E+03  0.00000000000E+00 0. -1.
          2    1    6    6  503    0  0.29530596613E+03 -0.24347864270E+03 -0.64433606177E+02  0.38812260007E+03  0.00000000000E+00 0. -1.
         -2    1    6    6    0  503  0.15329744635E+03 -0.22188157310E+03 -0.57059770012E+02  0.27565804340E+03  0.00000000000E+00 0.  1.
<mgrwt>
<rscale>  0 0.23455838E+04</rscale>
<asrwt>0</asrwt>
<pdfrwt beam="1">  1        2 0.29211472E+00 0.23455838E+04</pdfrwt>
<pdfrwt beam="2">  1       -2 0.11144530E+00 0.23455838E+04</pdfrwt>
<totfact> 0.43728623E+00</totfact>
</mgrwt>
</event>
<event>
12    2  0.3518828E-008  0.1754155E+04  0.7818608E-02  0.8731067E-01
          2   -1    0    0  501    0  0.00000000000E+00  0.00000000000E+00  0.15737742015E+04  0.15737742015E+04  0.00000000000E+00 0. -1.
         -2   -1    0    0    0  501 -0.00000000000E+00 -0.00000000000E+00 -0.48880242946E+03  0.48880242946E+03  0.00000000000E+00 0.  1.
         23    2    1    2    0    0 -0.15158312016E+03  0.58919186560E+03  0.63158761108E+03  0.88173799533E+03  0.91839452958E+02 0.  0.
        254    2    1    2    0    0  0.15158312016E+03 -0.58919186560E+03  0.45338416101E+03  0.11808386357E+04  0.90481942355E+03 0.  0.
         23    2    4    4    0    0 -0.15590656685E+03 -0.53979800977E+03  0.59882448088E+03  0.82554610967E+03  0.85128557734E+02 0.  0.
         23    2    4    4    0    0  0.30748968702E+03 -0.49393855832E+02 -0.14544031987E+03  0.35529252601E+03  0.89945715723E+02 0.  0.
          4    1    3    3  502    0 -0.79343083161E+02  0.46255368080E+03  0.49056592490E+03  0.67890069903E+03  0.00000000000E+00 0. -1.
         -4    1    3    3    0  502 -0.72240037004E+02  0.12663818480E+03  0.14102168618E+03  0.20283729630E+03  0.00000000000E+00 0.  1.
         11    1    5    5    0    0  0.82438675051E+01 -0.35354908801E+02  0.54481596676E+02  0.65468888062E+02  0.00000000000E+00 0.  1.
        -11    1    5    5    0    0 -0.16415043436E+03 -0.50444310097E+03  0.54434288420E+03  0.76007722160E+03  0.00000000000E+00 0. -1.
          1    1    6    6  503    0  0.21598986730E+03 -0.68827579209E+02 -0.77089164044E+02  0.23944017551E+03  0.00000000000E+00 0. -1.
         -1    1    6    6    0  503  0.91499819718E+02  0.19433723377E+02 -0.68351155828E+02  0.11585235050E+03  0.00000000000E+00 0.  1.
<mgrwt>
<rscale>  0 0.17541547E+04</rscale>
<asrwt>0</asrwt>
<pdfrwt beam="1">  1        2 0.24211911E+00 0.17541547E+04</pdfrwt>
<pdfrwt beam="2">  1       -2 0.75200374E-01 0.17541547E+04</pdfrwt>
<totfact> 0.17349500E+01</totfact>
</mgrwt>
</event>
<event>
12    2  0.3518828E-008  0.1314936E+04  0.7818608E-02  0.9017804E-01
          2   -1    0    0  501    0  0.00000000000E+00  0.00000000000E+00  0.16671186872E+04  0.16671186872E+04  0.00000000000E+00 0.  1.
         -2   -1    0    0    0  501 -0.00000000000E+00 -0.00000000000E+00 -0.25928807384E+03  0.25928807384E+03  0.00000000000E+00 0. -1.
         23    2    1    2    0    0 -0.18047875090E+03  0.17813742255E+03  0.69245358175E+03  0.74273787202E+03  0.88668273960E+02 0.  0.
        254    2    1    2    0    0  0.18047875090E+03 -0.17813742255E+03  0.71537703157E+03  0.11836688890E+04  0.90829632864E+03 0.  0.
         23    2    4    4    0    0 -0.27430602363E+03 -0.11860261510E+01  0.61258180213E+03  0.67636547448E+03  0.83478077953E+02 0.  0.
         23    2    4    4    0    0  0.45478477453E+03 -0.17695139640E+03  0.10279522943E+03  0.50730341451E+03  0.92999501856E+02 0.  0.
          1    1    3    3  502    0 -0.15284346874E+03  0.13489369296E+03  0.43740065252E+03  0.48257306717E+03  0.00000000000E+00 0. -1.
         -1    1    3    3    0  502 -0.27635282162E+02  0.43243729590E+02  0.25505292923E+03  0.26016480484E+03  0.00000000000E+00 0.  1.
         11    1    5    5    0    0 -0.26833433242E+03 -0.75551550565E+01  0.53777631618E+03  0.60105221118E+03  0.00000000000E+00 0. -1.
        -11    1    5    5    0    0 -0.59716912094E+01  0.63691289054E+01  0.74805485956E+02  0.75313263294E+02  0.00000000000E+00 0.  1.
          3    1    6    6  503    0  0.35203037161E+03 -0.12609038154E+03  0.11691989064E+03  0.39178364908E+03  0.00000000000E+00 0. -1.
         -3    1    6    6    0  503  0.10275440292E+03 -0.50861014867E+02 -0.14124661208E+02  0.11551976544E+03  0.00000000000E+00 0.  1.
<mgrwt>
<rscale>  0 0.13149357E+04</rscale>
<asrwt>0</asrwt>
<pdfrwt beam="1">  1        2 0.25647979E+00 0.13149357E+04</pdfrwt>
<pdfrwt beam="2">  1       -2 0.39890474E-01 0.13149357E+04</pdfrwt>
<totfact> 0.59546037E+01</totfact>
</mgrwt>
</event>
<event>
12    2  0.3518828E-008  0.3328011E+04  0.7818608E-02  0.8155804E-01
          2   -1    0    0  501    0  0.00000000000E+00  0.00000000000E+00  0.18253263617E+04  0.18253263617E+04  0.00000000000E+00 0. -1.
         -2   -1    0    0    0  501 -0.00000000000E+00 -0.00000000000E+00 -0.15169419341E+04  0.15169419341E+04  0.00000000000E+00 0.  1.
         23    2    1    2    0    0  0.13243978132E+04 -0.62273890997E+03 -0.34343925872E+03  0.15059445755E+04  0.89917865371E+02 0.  0.
        254    2    1    2    0    0 -0.13243978132E+04  0.62273890997E+03  0.65182368637E+03  0.18363237203E+04  0.89742819768E+03 0.  0.
         23    2    4    4    0    0 -0.12089631473E+04  0.81664998107E+03  0.48069638274E+03  0.15387522034E+04  0.90444723732E+02 0.  0.
         23    2    4    4    0    0 -0.11543466588E+03 -0.19391107109E+03  0.17112730363E+03  0.29757151686E+03  0.91310393796E+02 0.  0.
          3    1    3    3  502    0  0.18288062858E+03 -0.11869018967E+03 -0.38761676095E+02  0.22143882444E+03  0.00000000000E+00 0. -1.
         -3    1    3    3    0  502  0.11415171846E+04 -0.50404872030E+03 -0.30467758262E+03  0.12845057511E+04  0.00000000000E+00 0.  1.
         11    1    5    5    0    0 -0.63519555328E+03  0.46412143958E+03  0.22265121731E+03  0.81759138092E+03  0.00000000000E+00 0.  1.
        -11    1    5    5    0    0 -0.57376759401E+03  0.35252854148E+03  0.25804516543E+03  0.72116082249E+03  0.00000000000E+00 0. -1.
          4    1    6    6  503    0 -0.97620850148E+01 -0.25224317421E+02 -0.96134749095E+01  0.28705110922E+02  0.00000000000E+00 0. -1.
         -4    1    6    6    0  503 -0.10567258087E+03 -0.16868675367E+03  0.18074077854E+03  0.26886640593E+03  0.00000000000E+00 0.  1.
<mgrwt>
<rscale>  0 0.33280109E+04</rscale>
<asrwt>0</asrwt>
<pdfrwt beam="1">  1        2 0.28081944E+00 0.33280109E+04</pdfrwt>
<pdfrwt beam="2">  1       -2 0.23337568E+00 0.33280109E+04</pdfrwt>
<totfact> 0.56699992E-01</totfact>
</mgrwt>
</event>
<event>
12    2  0.3518828E-008  0.1572500E+04  0.7818608E-02  0.8837622E-01
         -2   -1    0    0    0  501 -0.00000000000E+00  0.00000000000E+00  0.10446143392E+04  0.10446143392E+04  0.00000000000E+00 0. -1.
          2   -1    0    0  501    0  0.00000000000E+00 -0.00000000000E+00 -0.59178725408E+03  0.59178725408E+03  0.00000000000E+00 0.  1.
         23    2    1    2    0    0  0.15297497192E+03  0.48745804725E+03 -0.11201112117E+03  0.52819683575E+03  0.73679821967E+02 0.  0.
        254    2    1    2    0    0 -0.15297497192E+03 -0.48745804725E+03  0.56483820629E+03  0.11082047575E+04  0.80502105279E+03 0.  0.
         23    2    4    4    0    0 -0.39232150972E+03 -0.87554476013E+01  0.16645945689E+03  0.43553640692E+03  0.89388959686E+02 0.  0.
         23    2    4    4    0    0  0.23934653780E+03 -0.47870259965E+03  0.39837874939E+03  0.67266835059E+03  0.85639581107E+02 0.  0.
          1    1    3    3  502    0 -0.65458841044E+01  0.80117541078E+01  0.10984060077E+01  0.10404003958E+02  0.00000000000E+00 0. -1.
         -1    1    3    3    0  502  0.15952085602E+03  0.47944629314E+03 -0.11310952718E+03  0.51779283179E+03  0.00000000000E+00 0.  1.
         11    1    5    5    0    0 -0.35221569450E+03 -0.99484666474E+01  0.11576743597E+03  0.37088673024E+03  0.00000000000E+00 0. -1.
        -11    1    5    5    0    0 -0.40105815220E+02  0.11930190462E+01  0.50692020928E+02  0.64649676679E+02  0.00000000000E+00 0.  1.
          2    1    6    6  503    0  0.98939376152E+02 -0.23552376926E+03  0.23877495413E+03  0.34967688623E+03  0.00000000000E+00 0. -1.
         -2    1    6    6    0  503  0.14040716165E+03 -0.24317883039E+03  0.15960379526E+03  0.32299146437E+03  0.00000000000E+00 0.  1.
<mgrwt>
<rscale>  0 0.15725005E+04</rscale>
<asrwt>0</asrwt>
<pdfrwt beam="1">  1        2 0.91044193E-01 0.15725005E+04</pdfrwt>
<pdfrwt beam="2">  1       -2 0.16070990E+00 0.15725005E+04</pdfrwt>
<totfact> 0.12050036E+01</totfact>
</mgrwt>
</event>
<event>
12    2  0.3518828E-008  0.1682243E+04  0.7818608E-02  0.8771557E-01
          1   -1    0    0  501    0  0.00000000000E+00  0.00000000000E+00  0.10919937292E+04  0.10919937292E+04  0.00000000000E+00 0. -1.
         -1   -1    0    0    0  501 -0.00000000000E+00 -0.00000000000E+00 -0.64788387201E+03  0.64788387201E+03  0.00000000000E+00 0.  1.
         23    2    1    2    0    0 -0.17474569583E+03  0.25983169647E+03 -0.37839866962E+03  0.49966207694E+03  0.91804516573E+02 0.  0.
        254    2    1    2    0    0  0.17474569583E+03 -0.25983169647E+03  0.82250852685E+03  0.12402155243E+04  0.87382246555E+03 0.  0.
         23    2    4    4    0    0  0.28167333768E+03  0.25502163345E+03  0.28988593316E+03  0.48655173536E+03  0.91229568939E+02 0.  0.
         23    2    4    4    0    0 -0.10692764185E+03 -0.51485332993E+03  0.53262259369E+03  0.75366378895E+03  0.88401400110E+02 0.  0.
          4    1    3    3  502    0 -0.54248083029E+02  0.11571256839E+03 -0.21774853130E+03  0.25248104063E+03  0.00000000000E+00 0.  1.
         -4    1    3    3    0  502 -0.12049761280E+03  0.14411912808E+03 -0.16065013832E+03  0.24718103631E+03  0.00000000000E+00 0. -1.
         11    1    5    5    0    0  0.26036298256E+03  0.26007801139E+03  0.28051603778E+03  0.46272962099E+03  0.00000000000E+00 0.  1.
        -11    1    5    5    0    0  0.21310355129E+02 -0.50563779371E+01  0.93698953835E+01  0.23822114371E+02  0.00000000000E+00 0. -1.
          3    1    6    6  503    0 -0.13661260252E+02 -0.90939479295E+02  0.50402984055E+02  0.10486696204E+03  0.00000000000E+00 0. -1.
         -3    1    6    6    0  503 -0.93266381603E+02 -0.42391385063E+03  0.48221960963E+03  0.64879682691E+03  0.00000000000E+00 0.  1.
<mgrwt>
<rscale>  0 0.16822427E+04</rscale>
<asrwt>0</asrwt>
<pdfrwt beam="1">  1        1 0.16799904E+00 0.16822427E+04</pdfrwt>
<pdfrwt beam="2">  1       -1 0.99674442E-01 0.16822427E+04</pdfrwt>
<totfact> 0.11767728E+01</totfact>
</mgrwt>
</event>
<event>
12    2  0.3518828E-008  0.1399338E+04  0.7818608E-02  0.8954298E-01
          1   -1    0    0  501    0  0.00000000000E+00  0.00000000000E+00  0.71491060182E+03  0.71491060182E+03  0.00000000000E+00 0. -1.
         -1   -1    0    0    0  501 -0.00000000000E+00 -0.00000000000E+00 -0.68475260819E+03  0.68475260819E+03  0.00000000000E+00 0.  1.
         23    2    1    2    0    0 -0.47940007033E+02  0.97940266529E+02 -0.37769252408E+03  0.40661494918E+03  0.10389193456E+03 0.  0.
        254    2    1    2    0    0  0.47940007033E+02 -0.97940266529E+02  0.40785051771E+03  0.99304826083E+03  0.89883939803E+03 0.  0.
         23    2    4    4    0    0  0.34639327761E+03  0.14114281806E+03 -0.52529027996E+02  0.38798226399E+03  0.88664200934E+02 0.  0.
         23    2    4    4    0    0 -0.29845327058E+03 -0.23908308459E+03  0.46037954571E+03  0.60506599683E+03  0.88996957059E+02 0.  0.
          2    1    3    3  502    0  0.11453735537E+02  0.14404970353E+02 -0.36227048787E+01  0.18756737969E+02  0.00000000000E+00 0. -1.
         -2    1    3    3    0  502 -0.59393742570E+02  0.83535296177E+02 -0.37406981920E+03  0.38785821121E+03  0.00000000000E+00 0.  1.
         11    1    5    5    0    0  0.34047327880E+03  0.13254103873E+03 -0.65650335318E+02  0.37121307500E+03  0.00000000000E+00 0.  1.
        -11    1    5    5    0    0  0.59199988068E+01  0.86017793272E+01  0.13121307322E+02  0.16769188988E+02  0.00000000000E+00 0. -1.
          4    1    6    6  503    0 -0.47690520650E+01 -0.14249008439E+02  0.67457828919E+00  0.15041048998E+02  0.00000000000E+00 0. -1.
         -4    1    6    6    0  503 -0.29368421851E+03 -0.22483407615E+03  0.45970496742E+03  0.59002494784E+03  0.00000000000E+00 0.  1.
<mgrwt>
<rscale>  0 0.13993383E+04</rscale>
<asrwt>0</asrwt>
<pdfrwt beam="1">  1        1 0.10998625E+00 0.13993383E+04</pdfrwt>
<pdfrwt beam="2">  1       -1 0.10534656E+00 0.13993383E+04</pdfrwt>
<totfact> 0.21741504E+01</totfact>
</mgrwt>
</event>
<event>
12    2  0.3518828E-008  0.1828406E+04  0.7818608E-02  0.8691338E-01
         -2   -1    0    0    0  501 -0.00000000000E+00  0.00000000000E+00  0.20207225702E+03  0.20207225702E+03  0.00000000000E+00 0.  1.
          2   -1    0    0  501    0  0.00000000000E+00 -0.00000000000E+00 -0.41359822652E+04  0.41359822652E+04  0.00000000000E+00 0. -1.
         23    2    1    2    0    0 -0.28741550676E+02  0.68838205901E+03 -0.14802042004E+04  0.16352479049E+04  0.91297861272E+02 0.  0.
        254    2    1    2    0    0  0.28741550676E+02 -0.68838205901E+03 -0.24537058078E+04  0.27028066174E+04  0.89988637282E+03 0.  0.
         23    2    4    4    0    0  0.45281055145E+03 -0.32974362599E+03 -0.11493555928E+04  0.12819319500E+04  0.92536433034E+02 0.  0.
         23    2    4    4    0    0 -0.42406900077E+03 -0.35863843303E+03 -0.13043502150E+04  0.14208746674E+04  0.95390219404E+02 0.  0.
          2    1    3    3  502    0 -0.33902399275E+02  0.60092362457E+03 -0.13525417477E+04  0.14804147238E+04  0.00000000000E+00 0. -1.
         -2    1    3    3    0  502  0.51608485990E+01  0.87458434442E+02 -0.12766245276E+03  0.15483318106E+03  0.00000000000E+00 0.  1.
         11    1    5    5    0    0  0.44248624224E+03 -0.33330942091E+03 -0.11029226547E+04  0.12342315937E+04  0.00000000000E+00 0.  1.
        -11    1    5    5    0    0  0.10324309211E+02  0.35657949209E+01 -0.46432938082E+02  0.47700356320E+02  0.00000000000E+00 0. -1.
          1    1    6    6  503    0 -0.74991059924E+01 -0.23609798565E+02 -0.10328437548E+03  0.10621356504E+03  0.00000000000E+00 0. -1.
         -1    1    6    6    0  503 -0.41656989478E+03 -0.33502863446E+03 -0.12010658395E+04  0.13146611023E+04  0.00000000000E+00 0.  1.
<mgrwt>
<rscale>  0 0.18284062E+04</rscale>
<asrwt>0</asrwt>
<pdfrwt beam="1">  1        2 0.63630496E+00 0.18284062E+04</pdfrwt>
<pdfrwt beam="2">  1       -2 0.31088040E-01 0.18284062E+04</pdfrwt>
<totfact> 0.24226295E+00</totfact>
</mgrwt>
</event>
<event>
12    2  0.3518828E-008  0.3707274E+04  0.7818608E-02  0.8066352E-01
          1   -1    0    0  501    0  0.00000000000E+00  0.00000000000E+00  0.18605109769E+04  0.18605109769E+04  0.00000000000E+00 0. -1.
         -1   -1    0    0    0  501 -0.00000000000E+00 -0.00000000000E+00 -0.18467886454E+04  0.18467886454E+04  0.00000000000E+00 0.  1.
         23    2    1    2    0    0  0.16524229980E+04 -0.16994092582E+03 -0.52035624211E+03  0.17430824968E+04  0.90467063658E+02 0.  0.
        254    2    1    2    0    0 -0.16524229980E+04  0.16994092582E+03  0.53407857358E+03  0.19642171255E+04  0.90195748827E+03 0.  0.
         23    2    4    4    0    0 -0.44328219827E+03  0.14862316234E+03 -0.23157742124E+03  0.52996360611E+03  0.92980482291E+02 0.  0.
         23    2    4    4    0    0 -0.12091407997E+04  0.21317763482E+02  0.76565599482E+03  0.14342535193E+04  0.91532151635E+02 0.  0.
          2    1    3    3  502    0  0.73832723114E+03 -0.90093054552E+02 -0.27780208477E+03  0.79398857487E+03  0.00000000000E+00 0. -1.
         -2    1    3    3    0  502  0.91409576684E+03 -0.79847871271E+02 -0.24255415734E+03  0.94909392198E+03  0.00000000000E+00 0.  1.
         11    1    5    5    0    0 -0.38208504343E+03  0.15516860243E+03 -0.21976818443E+03  0.46729469340E+03  0.00000000000E+00 0.  1.
        -11    1    5    5    0    0 -0.61197154836E+02 -0.65454400856E+01 -0.11809236808E+02  0.62668912707E+02  0.00000000000E+00 0. -1.
          3    1    6    6  503    0 -0.11944819945E+03  0.24249602550E+02  0.58361692233E+02  0.13513697753E+03  0.00000000000E+00 0. -1.
         -3    1    6    6    0  503 -0.10896926003E+04 -0.29318390689E+01  0.70729430259E+03  0.12991165418E+04  0.00000000000E+00 0.  1.
<mgrwt>
<rscale>  0 0.37072742E+04</rscale>
<asrwt>0</asrwt>
<pdfrwt beam="1">  1        1 0.28623246E+00 0.37072742E+04</pdfrwt>
<pdfrwt beam="2">  1       -1 0.28412133E+00 0.37072742E+04</pdfrwt>
<totfact> 0.12437560E-01</totfact>
</mgrwt>
</event>
<event>
12    2  0.3518828E-008  0.1401649E+04  0.7818608E-02  0.8952626E-01
         -2   -1    0    0    0  501 -0.00000000000E+00  0.00000000000E+00  0.67774397825E+03  0.67774397825E+03  0.00000000000E+00 0.  1.
          2   -1    0    0  501    0  0.00000000000E+00 -0.00000000000E+00 -0.72469096604E+03  0.72469096604E+03  0.00000000000E+00 0. -1.
         23    2    1    2    0    0  0.29277420054E+03 -0.20570010034E+03 -0.20323498859E+03  0.42071652288E+03  0.87570932724E+02 0.  0.
        254    2    1    2    0    0 -0.29277420054E+03  0.20570010034E+03  0.15628800080E+03  0.98171842140E+03  0.90073073442E+03 0.  0.
         23    2    4    4    0    0  0.89680084809E+02  0.46170751938E+03 -0.21404399793E+02  0.47980717511E+03  0.92414424708E+02 0.  0.
         23    2    4    4    0    0 -0.38245428535E+03 -0.25600741903E+03  0.17769240059E+03  0.50191124629E+03  0.92353835572E+02 0.  0.
          4    1    3    3  502    0  0.14928597221E+03 -0.10302060451E+03 -0.52968831801E+02  0.18895831179E+03  0.00000000000E+00 0. -1.
         -4    1    3    3    0  502  0.14348822833E+03 -0.10267949583E+03 -0.15026615679E+03  0.23175821109E+03  0.00000000000E+00 0.  1.
         11    1    5    5    0    0  0.43763429202E+01  0.25772641480E+03 -0.97080074044E+00  0.25776539666E+03  0.00000000000E+00 0. -1.
        -11    1    5    5    0    0  0.85303741889E+02  0.20398110458E+03 -0.20433599053E+02  0.22204177845E+03  0.00000000000E+00 0.  1.
          4    1    6    6  503    0 -0.64173652622E+02 -0.79224527582E+02  0.14692211378E+02  0.10300798288E+03  0.00000000000E+00 0. -1.
         -4    1    6    6    0  503 -0.31828063273E+03 -0.17678289145E+03  0.16300018921E+03  0.39890326341E+03  0.00000000000E+00 0.  1.
<mgrwt>
<rscale>  0 0.14016489E+04</rscale>
<asrwt>0</asrwt>
<pdfrwt beam="1">  1        2 0.11149092E+00 0.14016489E+04</pdfrwt>
<pdfrwt beam="2">  1       -2 0.10426830E+00 0.14016489E+04</pdfrwt>
<totfact> 0.28522381E+01</totfact>
</mgrwt>
</event>
<event>
12    2  0.3518828E-008  0.2267729E+04  0.7818608E-02  0.8490755E-01
         -2   -1    0    0    0  501 -0.00000000000E+00  0.00000000000E+00  0.49007123414E+03  0.49007123414E+03  0.00000000000E+00 0.  1.
          2   -1    0    0  501    0  0.00000000000E+00 -0.00000000000E+00 -0.26233906286E+04  0.26233906286E+04  0.00000000000E+00 0. -1.
         23    2    1    2    0    0  0.52361817607E+03  0.66274893878E+03 -0.15033425116E+04  0.17266562825E+04  0.88831641979E+02 0.  0.
        254    2    1    2    0    0 -0.52361817607E+03 -0.66274893878E+03 -0.62997688295E+03  0.13868055803E+04  0.90163556625E+03 0.  0.
         23    2    4    4    0    0 -0.36210768165E+03 -0.54549699556E+03  0.59027847085E+02  0.66361239326E+03  0.90598987162E+02 0.  0.
         23    2    4    4    0    0 -0.16151049442E+03 -0.11725194321E+03 -0.68900473003E+03  0.72319318704E+03  0.91908703495E+02 0.  0.
          3    1    3    3  502    0  0.47952341305E+02  0.84651425142E+02 -0.22679605933E+03  0.24678278575E+03  0.00000000000E+00 0. -1.
         -3    1    3    3    0  502  0.47566583476E+03  0.57809751363E+03 -0.12765464522E+04  0.14798734967E+04  0.00000000000E+00 0.  1.
         11    1    5    5    0    0 -0.30544917090E+03 -0.38931184619E+03  0.43638822657E+02  0.49675673769E+03  0.00000000000E+00 0. -1.
        -11    1    5    5    0    0 -0.56658510746E+02 -0.15618514937E+03  0.15389024428E+02  0.16685565557E+03  0.00000000000E+00 0.  1.
          1    1    6    6  503    0 -0.16008831433E+03 -0.95963137068E+02 -0.66667067220E+03  0.69230555193E+03  0.00000000000E+00 0. -1.
         -1    1    6    6    0  503 -0.14221800832E+01 -0.21288806144E+02 -0.22334057827E+02  0.30887635103E+02  0.00000000000E+00 0.  1.
<mgrwt>
<rscale>  0 0.22677286E+04</rscale>
<asrwt>0</asrwt>
<pdfrwt beam="1">  1        2 0.40359857E+00 0.22677286E+04</pdfrwt>
<pdfrwt beam="2">  1       -2 0.75395573E-01 0.22677286E+04</pdfrwt>
<totfact> 0.42303376E+00</totfact>
</mgrwt>
</event>
<event>
12    2  0.3518828E-008  0.1400029E+04  0.7818608E-02  0.8953797E-01
         -1   -1    0    0    0  501 -0.00000000000E+00  0.00000000000E+00  0.44683103995E+03  0.44683103995E+03  0.00000000000E+00 0.  1.
          1   -1    0    0  501    0  0.00000000000E+00 -0.00000000000E+00 -0.10966571756E+04  0.10966571756E+04  0.00000000000E+00 0. -1.
         23    2    1    2    0    0 -0.23730694470E+03 -0.18836985328E+03 -0.40791195343E+03  0.51599903387E+03  0.89805643346E+02 0.  0.
        254    2    1    2    0    0  0.23730694470E+03  0.18836985328E+03 -0.24191418221E+03  0.10274891817E+04  0.95153232170E+03 0.  0.
         23    2    4    4    0    0  0.25126093802E+03 -0.33868928921E+03 -0.23750694067E+03  0.49239049877E+03  0.90533766117E+02 0.  0.
         23    2    4    4    0    0 -0.13953993319E+02  0.52705914249E+03 -0.44072415408E+01  0.53509868290E+03  0.91242112235E+02 0.  0.
          2    1    3    3  502    0 -0.13248523984E+03 -0.11358320155E+03 -0.30403185476E+03  0.35055506152E+03  0.00000000000E+00 0. -1.
         -2    1    3    3    0  502 -0.10482170486E+03 -0.74786651734E+02 -0.10388009867E+03  0.16544397236E+03  0.00000000000E+00 0.  1.
         11    1    5    5    0    0  0.36214803438E+02 -0.43309840397E+02  0.28415086086E+00  0.56456487714E+02  0.00000000000E+00 0.  1.
        -11    1    5    5    0    0  0.21504613458E+03 -0.29537944881E+03 -0.23779109153E+03  0.43593401105E+03  0.00000000000E+00 0. -1.
          1    1    6    6  503    0  0.13017978254E+02  0.14763038297E+03  0.36173403833E+02  0.15255396710E+03  0.00000000000E+00 0. -1.
         -1    1    6    6    0  503 -0.26971971574E+02  0.37942875952E+03 -0.40580645374E+02  0.38254471579E+03  0.00000000000E+00 0.  1.
<mgrwt>
<rscale>  0 0.14000292E+04</rscale>
<asrwt>0</asrwt>
<pdfrwt beam="1">  1        1 0.16871649E+00 0.14000292E+04</pdfrwt>
<pdfrwt beam="2">  1       -1 0.68743237E-01 0.14000292E+04</pdfrwt>
<totfact> 0.26629897E+01</totfact>
</mgrwt>
</event>
<event>
12    2  0.3518828E-008  0.1250076E+04  0.7818608E-02  0.9070120E-01
         -1   -1    0    0    0  501 -0.00000000000E+00  0.00000000000E+00  0.34149932095E+03  0.34149932095E+03  0.00000000000E+00 0.  1.
          1   -1    0    0  501    0  0.00000000000E+00 -0.00000000000E+00 -0.11439914211E+04  0.11439914211E+04  0.00000000000E+00 0. -1.
         23    2    1    2    0    0 -0.26719342945E+03  0.42739487342E+02 -0.32055792097E+03  0.42961534598E+03  0.92698286322E+02 0.  0.
        254    2    1    2    0    0  0.26719342945E+03 -0.42739487342E+02 -0.48193417915E+03  0.10558753960E+04  0.89966288486E+03 0.  0.
         23    2    4    4    0    0  0.56752129183E+03 -0.56188990906E+02 -0.14473253944E+03  0.59516694130E+03  0.89658020610E+02 0.  0.
         23    2    4    4    0    0 -0.30032786238E+03  0.13449503563E+02 -0.33720163970E+03  0.46070845473E+03  0.90385952291E+02 0.  0.
          2    1    3    3  502    0 -0.24668851526E+03  0.54026325611E+02 -0.31799034107E+03  0.40606886661E+03  0.00000000000E+00 0. -1.
         -2    1    3    3    0  502 -0.20504914196E+02 -0.11286838268E+02 -0.25675799021E+01  0.23546479372E+02  0.00000000000E+00 0.  1.
         11    1    5    5    0    0  0.10369702913E+03 -0.45797485389E+02 -0.28252963983E+02  0.11682770858E+03  0.00000000000E+00 0.  1.
        -11    1    5    5    0    0  0.46382426271E+03 -0.10391505517E+02 -0.11647957546E+03  0.47833923272E+03  0.00000000000E+00 0. -1.
          4    1    6    6  503    0 -0.15602721759E+03  0.48567475461E+02 -0.20247469065E+03  0.26019087735E+03  0.00000000000E+00 0.  1.
         -4    1    6    6    0  503 -0.14430064479E+03 -0.35117971897E+02 -0.13472694905E+03  0.20051757738E+03  0.00000000000E+00 0. -1.
<mgrwt>
<rscale>  0 0.12500757E+04</rscale>
<asrwt>0</asrwt>
<pdfrwt beam="1">  1        1 0.17599868E+00 0.12500757E+04</pdfrwt>
<pdfrwt beam="2">  1       -1 0.52538358E-01 0.12500757E+04</pdfrwt>
<totfact> 0.42300416E+01</totfact>
</mgrwt>
</event>
<event>
12    2  0.3518828E-008  0.3050573E+04  0.7818608E-02  0.8229435E-01
         -2   -1    0    0    0  501 -0.00000000000E+00  0.00000000000E+00  0.90607465574E+03  0.90607465574E+03  0.00000000000E+00 0.  1.
          2   -1    0    0  501    0  0.00000000000E+00 -0.00000000000E+00 -0.25676679154E+04  0.25676679154E+04  0.00000000000E+00 0. -1.
         23    2    1    2    0    0 -0.74466680644E+03  0.10111808356E+04 -0.82900873693E+02  0.12620006992E+04  0.93583518379E+02 0.  0.
        254    2    1    2    0    0  0.74466680644E+03 -0.10111808356E+04 -0.15786923859E+04  0.22117418719E+04  0.90692729792E+03 0.  0.
         23    2    4    4    0    0  0.73478428333E+03 -0.26388112509E+03 -0.67667058834E+03  0.10371873768E+04  0.91287339041E+02 0.  0.
         23    2    4    4    0    0  0.98825231033E+01 -0.74729971053E+03 -0.90202179759E+03  0.11745544951E+04  0.85909353746E+02 0.  0.
          3    1    3    3  502    0 -0.93693337061E+02  0.14122499266E+03  0.19691802959E+02  0.17061860117E+03  0.00000000000E+00 0. -1.
         -3    1    3    3    0  502 -0.65097346938E+03  0.86995584296E+03 -0.10259267665E+03  0.10913820980E+04  0.00000000000E+00 0.  1.
         11    1    5    5    0    0  0.10938128046E+03 -0.28075448590E+02 -0.14094150424E+03  0.18060178002E+03  0.00000000000E+00 0.  1.
        -11    1    5    5    0    0  0.62540300287E+03 -0.23580567650E+03 -0.53572908410E+03  0.85658559679E+03  0.00000000000E+00 0. -1.
          2    1    6    6  503    0  0.26155762845E+02 -0.63290256900E+03 -0.72031617016E+03  0.95922112715E+03  0.00000000000E+00 0. -1.
         -2    1    6    6    0  503 -0.16273239742E+02 -0.11439714153E+03 -0.18170562744E+03  0.21533336798E+03  0.00000000000E+00 0.  1.
<mgrwt>
<rscale>  0 0.30505729E+04</rscale>
<asrwt>0</asrwt>
<pdfrwt beam="1">  1        2 0.39502583E+00 0.30505729E+04</pdfrwt>
<pdfrwt beam="2">  1       -2 0.13939610E+00 0.30505729E+04</pdfrwt>
<totfact> 0.98408013E-01</totfact>
</mgrwt>
</event>
<event>
12    2  0.3518828E-008  0.2294096E+04  0.7818608E-02  0.8480253E-01
         -2   -1    0    0    0  501 -0.00000000000E+00  0.00000000000E+00  0.20471192090E+04  0.20471192090E+04  0.00000000000E+00 0. -1.
          2   -1    0    0  501    0  0.00000000000E+00 -0.00000000000E+00 -0.64271749195E+03  0.64271749195E+03  0.00000000000E+00 0.  1.
         23    2    1    2    0    0 -0.58985677430E+03  0.37528090992E+03 -0.18742862805E+03  0.72892283160E+03  0.86210372236E+02 0.  0.
        254    2    1    2    0    0  0.58985677430E+03 -0.37528090992E+03  0.15918303451E+04  0.19609138693E+04  0.90691376650E+03 0.  0.
         23    2    4    4    0    0 -0.40801158947E+02  0.23942200653E+03  0.38942412225E+03  0.46773990550E+03  0.90232147430E+02 0.  0.
         23    2    4    4    0    0  0.63065793324E+03 -0.61470291645E+03  0.12024062228E+04  0.14931739638E+04  0.90546437151E+02 0.  0.
          3    1    3    3  502    0 -0.40232224434E+02  0.55045465262E+02 -0.14166077822E+02  0.69637008047E+02  0.00000000000E+00 0. -1.
         -3    1    3    3    0  502 -0.54962454986E+03  0.32023544465E+03 -0.17326255023E+03  0.65928582355E+03  0.00000000000E+00 0.  1.
         11    1    5    5    0    0 -0.63271377862E+02  0.13581813552E+03  0.26361530639E+03  0.30322081551E+03  0.00000000000E+00 0.  1.
        -11    1    5    5    0    0  0.22470218914E+02  0.10360387101E+03  0.12580881585E+03  0.16451908999E+03  0.00000000000E+00 0. -1.
          2    1    6    6  503    0 -0.19772378381E+01 -0.72987932412E+01  0.16987169026E+02  0.18594240069E+02  0.00000000000E+00 0. -1.
         -2    1    6    6    0  503  0.63263517108E+03 -0.60740412321E+03  0.11854190538E+04  0.14745797237E+04  0.00000000000E+00 0.  1.
<mgrwt>
<rscale>  0 0.22940962E+04</rscale>
<asrwt>0</asrwt>
<pdfrwt beam="1">  1        2 0.98879616E-01 0.22940962E+04</pdfrwt>
<pdfrwt beam="2">  1       -2 0.31494141E+00 0.22940962E+04</pdfrwt>
<totfact> 0.10646881E+00</totfact>
</mgrwt>
</event>
<event>
12    2  0.3518828E-008  0.1740231E+04  0.7818608E-02  0.8738746E-01
         -1   -1    0    0    0  501 -0.00000000000E+00  0.00000000000E+00  0.53369689739E+03  0.53369689739E+03  0.00000000000E+00 0.  1.
          1   -1    0    0  501    0  0.00000000000E+00 -0.00000000000E+00 -0.14185968495E+04  0.14185968495E+04  0.00000000000E+00 0. -1.
         23    2    1    2    0    0  0.39531382919E+03 -0.12154510508E+02  0.24195802324E+03  0.47211435205E+03  0.89036625752E+02 0.  0.
        254    2    1    2    0    0 -0.39531382919E+03  0.12154510508E+02 -0.11268579753E+04  0.14801793948E+04  0.87447206280E+03 0.  0.
         23    2    4    4    0    0 -0.29095585972E+03  0.39669962693E+03 -0.37507470575E+03  0.62444993296E+03  0.85033978871E+02 0.  0.
         23    2    4    4    0    0 -0.10435796947E+03 -0.38454511642E+03 -0.75178326958E+03  0.85572946186E+03  0.91264972053E+02 0.  0.
          3    1    3    3  502    0  0.22576392019E+03  0.36576833138E+02  0.12791930980E+03  0.26205068632E+03  0.00000000000E+00 0. -1.
         -3    1    3    3    0  502  0.16954990900E+03 -0.48731343646E+02  0.11403871344E+03  0.21006366573E+03  0.00000000000E+00 0.  1.
         11    1    5    5    0    0 -0.28206616577E+03  0.36569907300E+03 -0.37006068860E+03  0.59181251010E+03  0.00000000000E+00 0.  1.
        -11    1    5    5    0    0 -0.88896939558E+01  0.31000553929E+02 -0.50140171439E+01  0.32637422853E+02  0.00000000000E+00 0. -1.
          3    1    6    6  503    0 -0.69200260040E+01 -0.74846796750E+02 -0.22198113734E+03  0.23436201714E+03  0.00000000000E+00 0. -1.
         -3    1    6    6    0  503 -0.97437943464E+02 -0.30969831967E+03 -0.52980213224E+03  0.62136744472E+03  0.00000000000E+00 0.  1.
<mgrwt>
<rscale>  0 0.17402307E+04</rscale>
<asrwt>0</asrwt>
<pdfrwt beam="1">  1        1 0.21824567E+00 0.17402307E+04</pdfrwt>
<pdfrwt beam="2">  1       -1 0.82107216E-01 0.17402307E+04</pdfrwt>
<totfact> 0.10432080E+01</totfact>
</mgrwt>
</event>
<event>
12    2  0.3518828E-008  0.2312845E+04  0.7818608E-02  0.8472874E-01
         -2   -1    0    0    0  501 -0.00000000000E+00  0.00000000000E+00  0.52522287732E+03  0.52522287732E+03  0.00000000000E+00 0.  1.
          2   -1    0    0  501    0  0.00000000000E+00 -0.00000000000E+00 -0.25461828665E+04  0.25461828665E+04  0.00000000000E+00 0. -1.
         23    2    1    2    0    0  0.42764297308E+03  0.58719073873E+03 -0.17251908702E+04  0.18742847282E+04  0.94806263917E+02 0.  0.
        254    2    1    2    0    0 -0.42764297308E+03 -0.58719073873E+03 -0.29576911890E+03  0.11971210155E+04  0.90440470922E+03 0.  0.
         23    2    4    4    0    0 -0.45551876958E+03 -0.37072483905E+03 -0.57771452460E+03  0.82895238931E+03  0.92052898233E+02 0.  0.
         23    2    4    4    0    0  0.27875796502E+02 -0.21646589968E+03  0.28194540570E+03  0.36816862622E+03  0.91762627380E+02 0.  0.
          1    1    3    3  502    0  0.34522674314E+03  0.52847190885E+03 -0.14990665384E+04  0.16265498914E+04  0.00000000000E+00 0. -1.
         -1    1    3    3    0  502  0.82416229943E+02  0.58718829888E+02 -0.22612433181E+03  0.24773483683E+03  0.00000000000E+00 0.  1.
         11    1    5    5    0    0 -0.41704763383E+03 -0.35857966786E+03 -0.50967152139E+03  0.74984876262E+03  0.00000000000E+00 0. -1.
        -11    1    5    5    0    0 -0.38471135758E+02 -0.12145171191E+02 -0.68043003213E+02  0.79103626693E+02  0.00000000000E+00 0.  1.
          4    1    6    6  503    0  0.65846165078E+01 -0.17415370571E+03  0.26634961055E+03  0.31830014990E+03  0.00000000000E+00 0. -1.
         -4    1    6    6    0  503  0.21291179994E+02 -0.42312193969E+02  0.15595795148E+02  0.49868476318E+02  0.00000000000E+00 0.  1.
<mgrwt>
<rscale>  0 0.23128454E+04</rscale>
<asrwt>0</asrwt>
<pdfrwt beam="1">  1        2 0.39172044E+00 0.23128454E+04</pdfrwt>
<pdfrwt beam="2">  1       -2 0.80803520E-01 0.23128454E+04</pdfrwt>
<totfact> 0.40053133E+00</totfact>
</mgrwt>
</event>
<event>
12    2  0.3518828E-008  0.1684179E+04  0.7818608E-02  0.8770439E-01
         -1   -1    0    0    0  501 -0.00000000000E+00  0.00000000000E+00  0.33144967318E+03  0.33144967318E+03  0.00000000000E+00 0.  1.
          1   -1    0    0  501    0  0.00000000000E+00 -0.00000000000E+00 -0.21394339663E+04  0.21394339663E+04  0.00000000000E+00 0. -1.
         23    2    1    2    0    0 -0.47064550137E+03 -0.98453142554E+02 -0.13485939759E+03  0.50753355456E+03  0.90570650068E+02 0.  0.
        254    2    1    2    0    0  0.47064550137E+03  0.98453142554E+02 -0.16731248956E+04  0.19633500849E+04  0.90785264810E+03 0.  0.
         23    2    4    4    0    0 -0.47471119489E+02 -0.26892587197E+03 -0.96766901540E+03  0.10095851893E+04  0.91127927949E+02 0.  0.
         23    2    4    4    0    0  0.51811662086E+03  0.36737901452E+03 -0.70545588015E+03  0.95376489565E+03  0.92667708622E+02 0.  0.
          3    1    3    3  502    0 -0.23889188300E+02 -0.10545463674E+02 -0.30968519178E+02  0.40508632436E+02  0.00000000000E+00 0. -1.
         -3    1    3    3    0  502 -0.44675631307E+03 -0.87907678880E+02 -0.10389087841E+03  0.46702492213E+03  0.00000000000E+00 0.  1.
         11    1    5    5    0    0 -0.28514146921E+02 -0.19631935026E+03 -0.82347959849E+03  0.84703777542E+03  0.00000000000E+00 0.  1.
        -11    1    5    5    0    0 -0.18956972567E+02 -0.72606521714E+02 -0.14418941691E+03  0.16254741386E+03  0.00000000000E+00 0. -1.
          1    1    6    6  503    0 -0.21248733846E+01  0.13355983257E+01 -0.13975146250E+02  0.14198719044E+02  0.00000000000E+00 0. -1.
         -1    1    6    6    0  503  0.52024149424E+03  0.36604341620E+03 -0.69148073390E+03  0.93956617661E+03  0.00000000000E+00 0.  1.
<mgrwt>
<rscale>  0 0.16841790E+04</rscale>
<asrwt>0</asrwt>
<pdfrwt beam="1">  1        1 0.32914367E+00 0.16841790E+04</pdfrwt>
<pdfrwt beam="2">  1       -1 0.50992259E-01 0.16841790E+04</pdfrwt>
<totfact> 0.88303447E+00</totfact>
</mgrwt>
</event>
<event>
12    2  0.3518828E-008  0.1605660E+04  0.7818608E-02  0.8817078E-01
          1   -1    0    0  501    0  0.00000000000E+00  0.00000000000E+00  0.16207137371E+04  0.16207137371E+04  0.00000000000E+00 0. -1.
         -1   -1    0    0    0  501 -0.00000000000E+00 -0.00000000000E+00 -0.39768659023E+03  0.39768659023E+03  0.00000000000E+00 0.  1.
         23    2    1    2    0    0  0.13182271733E+03 -0.28490856146E+03  0.86029467996E+03  0.92057992146E+03  0.93863401977E+02 0.  0.
        254    2    1    2    0    0 -0.13182271733E+03  0.28490856146E+03  0.36273246690E+03  0.10978204059E+04  0.98746376328E+03 0.  0.
         23    2    4    4    0    0  0.16574334535E+02 -0.21425873385E+03  0.49952502716E+03  0.55140250505E+03  0.91312409993E+02 0.  0.
         23    2    4    4    0    0 -0.14839705187E+03  0.49916729531E+03 -0.13679256026E+03  0.54641790082E+03  0.93116293300E+02 0.  0.
          2    1    3    3  502    0  0.70265755658E+02 -0.24281221555E+03  0.64707205214E+03  0.69469222617E+03  0.00000000000E+00 0. -1.
         -2    1    3    3    0  502  0.61556961673E+02 -0.42096345906E+02  0.21322262782E+03  0.22588769529E+03  0.00000000000E+00 0.  1.
         11    1    5    5    0    0  0.11351551644E+02  0.44689637932E+01  0.49915554728E+02  0.51384744486E+02  0.00000000000E+00 0. -1.
        -11    1    5    5    0    0  0.52227828909E+01 -0.21872769765E+03  0.44960947243E+03  0.50001776056E+03  0.00000000000E+00 0.  1.
          4    1    6    6  503    0 -0.87975198291E+02  0.15370889461E+03 -0.28550774738E+02  0.17939121086E+03  0.00000000000E+00 0. -1.
         -4    1    6    6    0  503 -0.60421853575E+02  0.34545840071E+03 -0.10824178552E+03  0.36702668996E+03  0.00000000000E+00 0.  1.
<mgrwt>
<rscale>  0 0.16056601E+04</rscale>
<asrwt>0</asrwt>
<pdfrwt beam="1">  1        1 0.24934057E+00 0.16056601E+04</pdfrwt>
<pdfrwt beam="2">  1       -1 0.61182553E-01 0.16056601E+04</pdfrwt>
<totfact> 0.14032523E+01</totfact>
</mgrwt>
</event>
<event>
12    2  0.3518828E-008  0.3894317E+04  0.7818608E-02  0.8026212E-01
         -2   -1    0    0    0  501 -0.00000000000E+00  0.00000000000E+00  0.16653267133E+04  0.16653267133E+04  0.00000000000E+00 0.  1.
          2   -1    0    0  501    0  0.00000000000E+00 -0.00000000000E+00 -0.22766859422E+04  0.22766859422E+04  0.00000000000E+00 0. -1.
         23    2    1    2    0    0 -0.79203647986E+03  0.16466745611E+04 -0.50696567313E+03  0.18984492649E+04  0.90755286384E+02 0.  0.
        254    2    1    2    0    0  0.79203647986E+03 -0.16466745611E+04 -0.10439355577E+03  0.20435633906E+04  0.90906238578E+03 0.  0.
         23    2    4    4    0    0  0.20291860150E+03 -0.13156928626E+04  0.81852446085E+02  0.13368174674E+04  0.90318607084E+02 0.  0.
         23    2    4    4    0    0  0.58911787835E+03 -0.33098169852E+03 -0.18624600185E+03  0.70674592316E+03  0.90517773683E+02 0.  0.
          2    1    3    3  502    0 -0.37156067344E+03  0.66998871193E+03 -0.21804826157E+03  0.79654708118E+03  0.00000000000E+00 0.  1.
         -2    1    3    3    0  502 -0.42047580642E+03  0.97668584916E+03 -0.28891741156E+03  0.11019021837E+04  0.00000000000E+00 0. -1.
         11    1    5    5    0    0  0.19413904644E+03 -0.10934565695E+04  0.90510385377E+02  0.11142393677E+04  0.00000000000E+00 0. -1.
        -11    1    5    5    0    0  0.87795550670E+01 -0.22223629308E+03 -0.86579392917E+01  0.22257809969E+03  0.00000000000E+00 0.  1.
          2    1    6    6  503    0  0.17728737460E+03 -0.10101279227E+03 -0.10002057291E+03  0.22724108872E+03  0.00000000000E+00 0. -1.
         -2    1    6    6    0  503  0.41183050375E+03 -0.22996890625E+03 -0.86225428936E+02  0.47950483445E+03  0.00000000000E+00 0.  1.
<mgrwt>
<rscale>  0 0.38943168E+04</rscale>
<asrwt>0</asrwt>
<pdfrwt beam="1">  1        2 0.35025938E+00 0.38943168E+04</pdfrwt>
<pdfrwt beam="2">  1       -2 0.25620411E+00 0.38943168E+04</pdfrwt>
<totfact> 0.21890230E-01</totfact>
</mgrwt>
</event>
<event>
12    2  0.3518828E-008  0.1793029E+04  0.7818608E-02  0.8710016E-01
         -2   -1    0    0    0  501 -0.00000000000E+00  0.00000000000E+00  0.30435659752E+03  0.30435659752E+03  0.00000000000E+00 0.  1.
          2   -1    0    0  501    0  0.00000000000E+00 -0.00000000000E+00 -0.26407769877E+04  0.26407769877E+04  0.00000000000E+00 0. -1.
         23    2    1    2    0    0 -0.24030942092E+03 -0.54129739977E+03 -0.49516313945E+03  0.77734906749E+03  0.91288253789E+02 0.  0.
        254    2    1    2    0    0  0.24030942092E+03  0.54129739977E+03 -0.18412572508E+04  0.21677845178E+04  0.97893307185E+03 0.  0.
         23    2    4    4    0    0  0.59067878834E+03  0.17193860976E+03 -0.10975089893E+04  0.12613626912E+04  0.89696937783E+02 0.  0.
         23    2    4    4    0    0 -0.35036936742E+03  0.36935879001E+03 -0.74374826146E+03  0.90642182654E+03  0.96200009520E+02 0.  0.
          2    1    3    3  502    0 -0.23601647602E+03 -0.51461295311E+03 -0.49213683196E+03  0.75015260436E+03  0.00000000000E+00 0. -1.
         -2    1    3    3    0  502 -0.42929449012E+01 -0.26684446664E+02 -0.30263074843E+01  0.27196463128E+02  0.00000000000E+00 0.  1.
         11    1    5    5    0    0  0.47758998026E+03  0.12667313901E+03 -0.80556794820E+03  0.94502803798E+03  0.00000000000E+00 0. -1.
        -11    1    5    5    0    0  0.11308880808E+03  0.45265470750E+02 -0.29194104111E+03  0.31633465324E+03  0.00000000000E+00 0.  1.
          1    1    6    6  503    0 -0.35681013040E+03  0.36291886283E+03 -0.72878275464E+03  0.88890262325E+03  0.00000000000E+00 0. -1.
         -1    1    6    6    0  503  0.64407629819E+01  0.64399271811E+01 -0.14965506817E+02  0.17519203297E+02  0.00000000000E+00 0.  1.
<mgrwt>
<rscale>  0 0.17930286E+04</rscale>
<asrwt>0</asrwt>
<pdfrwt beam="1">  1        2 0.40627338E+00 0.17930286E+04</pdfrwt>
<pdfrwt beam="2">  1       -2 0.46824092E-01 0.17930286E+04</pdfrwt>
<totfact> 0.11781087E+01</totfact>
</mgrwt>
</event>
<event>
12    2  0.3518828E-008  0.1355619E+04  0.7818608E-02  0.8986586E-01
          1   -1    0    0  501    0  0.00000000000E+00  0.00000000000E+00  0.65681428868E+03  0.65681428868E+03  0.00000000000E+00 0. -1.
         -1   -1    0    0    0  501 -0.00000000000E+00 -0.00000000000E+00 -0.69947572849E+03  0.69947572849E+03  0.00000000000E+00 0.  1.
         23    2    1    2    0    0  0.16625994951E+03 -0.23537145489E+03  0.22570865607E+03  0.38453796603E+03  0.11782596196E+03 0.  0.
        254    2    1    2    0    0 -0.16625994951E+03  0.23537145489E+03 -0.26837009588E+03  0.97175205113E+03  0.88839036911E+03 0.  0.
         23    2    4    4    0    0 -0.15382198321E+03  0.50079209279E+03  0.65199882391E+02  0.53568295615E+03  0.90836568209E+02 0.  0.
         23    2    4    4    0    0 -0.12437966294E+02 -0.26542063790E+03 -0.33356997827E+03  0.43606909498E+03  0.91019268096E+02 0.  0.
          2    1    3    3  502    0  0.97621736005E+00 -0.43506810852E+02  0.83350268556E+02  0.94026926246E+02  0.00000000000E+00 0.  1.
         -2    1    3    3    0  502  0.16528373215E+03 -0.19186464404E+03  0.14235838751E+03  0.29051103979E+03  0.00000000000E+00 0. -1.
         11    1    5    5    0    0 -0.11848984908E+03  0.23157979579E+03  0.35447341861E+02  0.26253677875E+03  0.00000000000E+00 0.  1.
        -11    1    5    5    0    0 -0.35332134138E+02  0.26921229701E+03  0.29752540530E+02  0.27314617740E+03  0.00000000000E+00 0. -1.
          1    1    6    6  503    0 -0.50940807118E+02 -0.11903159034E+03 -0.15076236381E+03  0.19872789354E+03  0.00000000000E+00 0. -1.
         -1    1    6    6    0  503  0.38502840824E+02 -0.14638904756E+03 -0.18280761447E+03  0.23734120144E+03  0.00000000000E+00 0.  1.
<mgrwt>
<rscale>  0 0.13556189E+04</rscale>
<asrwt>0</asrwt>
<pdfrwt beam="1">  1        1 0.10104835E+00 0.13556189E+04</pdfrwt>
<pdfrwt beam="2">  1       -1 0.10761165E+00 0.13556189E+04</pdfrwt>
<totfact> 0.23593049E+01</totfact>
</mgrwt>
</event>
<event>
12    2  0.3518828E-008  0.1240743E+04  0.7818608E-02  0.9077923E-01
          1   -1    0    0  501    0  0.00000000000E+00  0.00000000000E+00  0.11880814521E+04  0.11880814521E+04  0.00000000000E+00 0. -1.
         -1   -1    0    0    0  501 -0.00000000000E+00 -0.00000000000E+00 -0.32393490830E+03  0.32393490830E+03  0.00000000000E+00 0.  1.
         23    2    1    2    0    0  0.16873353973E+03  0.75482224758E+02 -0.45873888202E+02  0.21973535636E+03  0.10959306334E+03 0.  0.
        254    2    1    2    0    0 -0.16873353973E+03 -0.75482224758E+02  0.91002043203E+03  0.12922810041E+04  0.89871265323E+03 0.  0.
         23    2    4    4    0    0  0.29170855655E+03  0.19489167567E+03  0.26597622299E+03  0.44977935403E+03  0.92094890765E+02 0.  0.
         23    2    4    4    0    0 -0.46044209628E+03 -0.27037390043E+03  0.64404420904E+03  0.84250165003E+03  0.99534501768E+02 0.  0.
          1    1    3    3  502    0  0.10864668902E+03  0.57834719932E+02  0.24537930480E+02  0.12550325851E+03  0.00000000000E+00 0. -1.
         -1    1    3    3    0  502  0.60086850709E+02  0.17647504826E+02 -0.70411818682E+02  0.94232097848E+02  0.00000000000E+00 0.  1.
         11    1    5    5    0    0  0.23356078025E+02  0.53238485234E+02  0.56381326869E+02  0.80985780914E+02  0.00000000000E+00 0. -1.
        -11    1    5    5    0    0  0.26835247853E+03  0.14165319044E+03  0.20959489612E+03  0.36879357312E+03  0.00000000000E+00 0.  1.
          3    1    6    6  503    0 -0.19932246751E+03 -0.61950916564E+02  0.23356581979E+03  0.31324168671E+03  0.00000000000E+00 0. -1.
         -3    1    6    6    0  503 -0.26111962877E+03 -0.20842298387E+03  0.41047838926E+03  0.52925996333E+03  0.00000000000E+00 0.  1.
<mgrwt>
<rscale>  0 0.12407434E+04</rscale>
<asrwt>0</asrwt>
<pdfrwt beam="1">  1        1 0.18278176E+00 0.12407434E+04</pdfrwt>
<pdfrwt beam="2">  1       -1 0.49836140E-01 0.12407434E+04</pdfrwt>
<totfact> 0.43446011E+01</totfact>
</mgrwt>
</event>
<event>
12    2  0.3518828E-008  0.1238748E+04  0.7818608E-02  0.9079601E-01
         -1   -1    0    0    0  501 -0.00000000000E+00  0.00000000000E+00  0.32086559544E+03  0.32086559544E+03  0.00000000000E+00 0.  1.
          1   -1    0    0  501    0  0.00000000000E+00 -0.00000000000E+00 -0.11955911431E+04  0.11955911431E+04  0.00000000000E+00 0. -1.
         23    2    1    2    0    0  0.84431458292E+02  0.18622630944E+03  0.34661443496E+02  0.22674452451E+03  0.91666538353E+02 0.  0.
        254    2    1    2    0    0 -0.84431458292E+02 -0.18622630944E+03 -0.90938699117E+03  0.12897122140E+04  0.89138318688E+03 0.  0.
         23    2    4    4    0    0  0.33516025215E+03 -0.96893247275E+02 -0.10516888774E+03  0.37383614373E+03  0.83500128283E+02 0.  0.
         23    2    4    4    0    0 -0.41959171044E+03 -0.89333062166E+02 -0.80421810344E+03  0.91587607031E+03  0.89580236732E+02 0.  0.
          4    1    3    3  502    0  0.33508566303E+02  0.14638484169E+03 -0.61292446169E+01  0.15029608622E+03  0.00000000000E+00 0. -1.
         -4    1    3    3    0  502  0.50922891989E+02  0.39841467750E+02  0.40790688113E+02  0.76448438295E+02  0.00000000000E+00 0.  1.
         11    1    5    5    0    0  0.31728188057E+03 -0.83844038226E+02 -0.75371194724E+02  0.33671713868E+03  0.00000000000E+00 0. -1.
        -11    1    5    5    0    0  0.17878371573E+02 -0.13049209049E+02 -0.29797693014E+02  0.37119005049E+02  0.00000000000E+00 0.  1.
          4    1    6    6  503    0 -0.31834212316E+03 -0.91776786848E+02 -0.54798531532E+03  0.64035348972E+03  0.00000000000E+00 0. -1.
         -4    1    6    6    0  503 -0.10124958728E+03  0.24437246827E+01 -0.25623278811E+03  0.27552258060E+03  0.00000000000E+00 0.  1.
<mgrwt>
<rscale>  0 0.12387479E+04</rscale>
<asrwt>0</asrwt>
<pdfrwt beam="1">  1        1 0.18393710E+00 0.12387479E+04</pdfrwt>
<pdfrwt beam="2">  1       -1 0.49363938E-01 0.12387479E+04</pdfrwt>
<totfact> 0.43688691E+01</totfact>
</mgrwt>
</event>
<event>
12    2  0.3518828E-008  0.1206944E+04  0.7818608E-02  0.9106800E-01
          1   -1    0    0  501    0  0.00000000000E+00  0.00000000000E+00  0.92953997761E+03  0.92953997761E+03  0.00000000000E+00 0. -1.
         -1   -1    0    0    0  501 -0.00000000000E+00 -0.00000000000E+00 -0.39178371010E+03  0.39178371010E+03  0.00000000000E+00 0.  1.
         23    2    1    2    0    0  0.95318054419E+02 -0.15103473183E+03 -0.43858248450E+02  0.20465699354E+03  0.89799316988E+02 0.  0.
        254    2    1    2    0    0 -0.95318054419E+02  0.15103473183E+03  0.58161451595E+03  0.11166666942E+04  0.93636106229E+03 0.  0.
         23    2    4    4    0    0  0.13862465857E+03  0.14346128099E+03 -0.19824352533E+03  0.29752235755E+03  0.97062468552E+02 0.  0.
         23    2    4    4    0    0 -0.23394271299E+03  0.75734508410E+01  0.77985804128E+03  0.81914433662E+03  0.89623264522E+02 0.  0.
          1    1    3    3  502    0  0.82060514775E+02 -0.13661854456E+03 -0.30570579988E+01  0.15939855836E+03  0.00000000000E+00 0. -1.
         -1    1    3    3    0  502  0.13257539643E+02 -0.14416187263E+02 -0.40801190451E+02  0.45258435179E+02  0.00000000000E+00 0.  1.
         11    1    5    5    0    0  0.54254456768E+02  0.11296255560E+03 -0.78400855357E+02  0.14782009054E+03  0.00000000000E+00 0.  1.
        -11    1    5    5    0    0  0.84370201802E+02  0.30498725390E+02 -0.11984266997E+03  0.14970226701E+03  0.00000000000E+00 0. -1.
          3    1    6    6  503    0 -0.11624978445E+03  0.37812101204E+02  0.48631533659E+03  0.50144428801E+03  0.00000000000E+00 0. -1.
         -3    1    6    6    0  503 -0.11769292854E+03 -0.30238650363E+02  0.29354270470E+03  0.31770004860E+03  0.00000000000E+00 0.  1.
<mgrwt>
<rscale>  0 0.12069443E+04</rscale>
<asrwt>0</asrwt>
<pdfrwt beam="1">  1        1 0.14300615E+00 0.12069443E+04</pdfrwt>
<pdfrwt beam="2">  1       -1 0.60274417E-01 0.12069443E+04</pdfrwt>
<totfact> 0.47534576E+01</totfact>
</mgrwt>
</event>
<event>
12    2  0.3518828E-008  0.2005964E+04  0.7818608E-02  0.8603838E-01
          4   -1    0    0  501    0  0.00000000000E+00  0.00000000000E+00  0.49155466092E+03  0.49155466092E+03  0.00000000000E+00 0. -1.
         -4   -1    0    0    0  501 -0.00000000000E+00 -0.00000000000E+00 -0.20465120836E+04  0.20465120836E+04  0.00000000000E+00 0.  1.
         23    2    1    2    0    0  0.37487154784E+03  0.22960835518E+03  0.22498566677E+03  0.50232839061E+03  0.92014062077E+02 0.  0.
        254    2    1    2    0    0 -0.37487154784E+03 -0.22960835518E+03 -0.17799430894E+04  0.20357383539E+04  0.88475113437E+03 0.  0.
         23    2    4    4    0    0 -0.62438699007E+03 -0.30932950804E+03 -0.11526298792E+04  0.13498057136E+04  0.88746650557E+02 0.  0.
         23    2    4    4    0    0  0.24951544223E+03  0.79721152864E+02 -0.62731321019E+03  0.68593264032E+03  0.91478441447E+02 0.  0.
          1    1    3    3  502    0  0.28134595264E+03  0.21580225821E+03  0.17630905842E+03  0.39599374212E+03  0.00000000000E+00 0. -1.
         -1    1    3    3    0  502  0.93525595192E+02  0.13806096967E+02  0.48676608345E+02  0.10633464849E+03  0.00000000000E+00 0.  1.
         11    1    5    5    0    0 -0.54039806740E+03 -0.26884326400E+03 -0.93311371242E+03  0.11113091254E+04  0.00000000000E+00 0.  1.
        -11    1    5    5    0    0 -0.83988922668E+02 -0.40486244046E+02 -0.21951616682E+03  0.23849658820E+03  0.00000000000E+00 0. -1.
          2    1    6    6  503    0  0.64424385843E+02  0.44524784005E+02 -0.10729213131E+03  0.13283282472E+03  0.00000000000E+00 0. -1.
         -2    1    6    6    0  503  0.18509105639E+03  0.35196368859E+02 -0.52002107888E+03  0.55309981560E+03  0.00000000000E+00 0.  1.
<mgrwt>
<rscale>  0 0.20059637E+04</rscale>
<asrwt>0</asrwt>
<pdfrwt beam="1">  1        4 0.75623796E-01 0.20059637E+04</pdfrwt>
<pdfrwt beam="2">  1       -4 0.31484801E+00 0.20059637E+04</pdfrwt>
<totfact> 0.73098734E-02</totfact>
</mgrwt>
</event>
<event>
12    2  0.3518828E-008  0.1701229E+04  0.7818608E-02  0.8760664E-01
         -2   -1    0    0    0  501 -0.00000000000E+00  0.00000000000E+00  0.22791603646E+03  0.22791603646E+03  0.00000000000E+00 0.  1.
          2   -1    0    0  501    0  0.00000000000E+00 -0.00000000000E+00 -0.31746135231E+04  0.31746135231E+04  0.00000000000E+00 0. -1.
         23    2    1    2    0    0  0.35653445083E+03  0.12592381447E+03 -0.10517209370E+03  0.39764641085E+03  0.63936508284E+02 0.  0.
        254    2    1    2    0    0 -0.35653445083E+03 -0.12592381447E+03 -0.28415253929E+04  0.30048831487E+04  0.90115623338E+03 0.  0.
         23    2    4    4    0    0 -0.46520032404E+03 -0.43107995174E+03 -0.18796190615E+04  0.19858484259E+04  0.91569034140E+02 0.  0.
         23    2    4    4    0    0  0.10866587322E+03  0.30515613727E+03 -0.96190633141E+03  0.10190347228E+04  0.90771337438E+02 0.  0.
          2    1    3    3  502    0 -0.26115558650E+01  0.20553023550E+01  0.39030602760E+00  0.33461665532E+01  0.00000000000E+00 0. -1.
         -2    1    3    3    0  502  0.35914600669E+03  0.12386851212E+03 -0.10556239973E+03  0.39430024430E+03  0.00000000000E+00 0.  1.
         11    1    5    5    0    0 -0.10797727316E+03 -0.55284186070E+02 -0.31458590344E+03  0.33716423800E+03  0.00000000000E+00 0. -1.
        -11    1    5    5    0    0 -0.35722305089E+03 -0.37579576567E+03 -0.15650331581E+04  0.16486841879E+04  0.00000000000E+00 0.  1.
          3    1    6    6  503    0  0.45834986130E+01  0.42112428715E+01 -0.99869892397E+02  0.10006367190E+03  0.00000000000E+00 0. -1.
         -3    1    6    6    0  503  0.10408237460E+03  0.30094489439E+03 -0.86203643901E+03  0.91897105088E+03  0.00000000000E+00 0.  1.
<mgrwt>
<rscale>  0 0.17012294E+04</rscale>
<asrwt>0</asrwt>
<pdfrwt beam="1">  1        2 0.48840206E+00 0.17012294E+04</pdfrwt>
<pdfrwt beam="2">  1       -2 0.35064007E-01 0.17012294E+04</pdfrwt>
<totfact> 0.98472495E+00</totfact>
</mgrwt>
</event>
<event>
12    2  0.3518828E-008  0.1299030E+04  0.7818608E-02  0.9030335E-01
          2   -1    0    0  501    0  0.00000000000E+00  0.00000000000E+00  0.13524985340E+04  0.13524985340E+04  0.00000000000E+00 0. -1.
         -2   -1    0    0    0  501 -0.00000000000E+00 -0.00000000000E+00 -0.31191860598E+03  0.31191860598E+03  0.00000000000E+00 0.  1.
         23    2    1    2    0    0  0.12817122522E+03  0.26307815717E+03  0.44638290423E+03  0.54140306748E+03  0.90673064035E+02 0.  0.
        254    2    1    2    0    0 -0.12817122522E+03 -0.26307815717E+03  0.59419702385E+03  0.11230140725E+04  0.90689168274E+03 0.  0.
         23    2    4    4    0    0 -0.56641487328E+02 -0.59227515288E+03  0.34405271561E+03  0.69337308598E+03  0.91628873372E+02 0.  0.
         23    2    4    4    0    0 -0.71529737893E+02  0.32919699571E+03  0.25014430823E+03  0.42964098656E+03  0.92369026187E+02 0.  0.
          1    1    3    3  502    0  0.11887771823E+03  0.26244049867E+03  0.44728516131E+03  0.53204411731E+03  0.00000000000E+00 0. -1.
         -1    1    3    3    0  502  0.92935069933E+01  0.63765849783E+00 -0.90225708138E+00  0.93589501781E+01  0.00000000000E+00 0.  1.
         11    1    5    5    0    0 -0.61431222905E+02 -0.19635344233E+03  0.10727824359E+03  0.23202821167E+03  0.00000000000E+00 0. -1.
        -11    1    5    5    0    0  0.47897355770E+01 -0.39592171055E+03  0.23677447202E+03  0.46134487432E+03  0.00000000000E+00 0.  1.
          4    1    6    6  503    0 -0.51787803612E+02  0.29138443528E+03  0.17664276485E+03  0.34465857323E+03  0.00000000000E+00 0. -1.
         -4    1    6    6    0  503 -0.19741934281E+02  0.37812560437E+02  0.73501543382E+02  0.84982413331E+02  0.00000000000E+00 0.  1.
<mgrwt>
<rscale>  0 0.12990296E+04</rscale>
<asrwt>0</asrwt>
<pdfrwt beam="1">  1        2 0.20807669E+00 0.12990296E+04</pdfrwt>
<pdfrwt beam="2">  1       -2 0.47987479E-01 0.12990296E+04</pdfrwt>
<totfact> 0.62130136E+01</totfact>
</mgrwt>
</event>
<event>
12    2  0.3518828E-008  0.2012420E+04  0.7818608E-02  0.8600836E-01
         -2   -1    0    0    0  501 -0.00000000000E+00  0.00000000000E+00  0.43897187518E+03  0.43897187518E+03  0.00000000000E+00 0.  1.
          2   -1    0    0  501    0  0.00000000000E+00 -0.00000000000E+00 -0.23064304683E+04  0.23064304683E+04  0.00000000000E+00 0. -1.
         23    2    1    2    0    0  0.94486902380E+02  0.43160055754E+01  0.34138428111E+03  0.36538963579E+03  0.89554206635E+02 0.  0.
        254    2    1    2    0    0 -0.94486902380E+02 -0.43160055754E+01 -0.22088428742E+04  0.23800127077E+04  0.88120783198E+03 0.  0.
         23    2    4    4    0    0 -0.31070684642E+03 -0.23670617754E+03 -0.50456321612E+03  0.64456191995E+03  0.91145327321E+02 0.  0.
         23    2    4    4    0    0  0.21621994404E+03  0.23239017196E+03 -0.17042796581E+04  0.17354507877E+04  0.80399175514E+02 0.  0.
          3    1    3    3  502    0 -0.14692977315E+01 -0.13718748896E+02  0.43026940280E+01  0.14452545900E+02  0.00000000000E+00 0. -1.
         -3    1    3    3    0  502  0.95956200112E+02  0.18034754471E+02  0.33708158708E+03  0.35093708989E+03  0.00000000000E+00 0.  1.
         11    1    5    5    0    0 -0.16133679724E+03 -0.89716704820E+02 -0.17734026354E+03  0.25598480099E+03  0.00000000000E+00 0. -1.
        -11    1    5    5    0    0 -0.14937004918E+03 -0.14698947272E+03 -0.32722295258E+03  0.38857711895E+03  0.00000000000E+00 0.  1.
          3    1    6    6  503    0  0.16646617975E+03  0.18604499432E+03 -0.14860493943E+04  0.15068730973E+04  0.00000000000E+00 0. -1.
         -3    1    6    6    0  503  0.49753764282E+02  0.46345177639E+02 -0.21823026378E+03  0.22857769047E+03  0.00000000000E+00 0.  1.
<mgrwt>
<rscale>  0 0.20124195E+04</rscale>
<asrwt>0</asrwt>
<pdfrwt beam="1">  1        2 0.35483545E+00 0.20124195E+04</pdfrwt>
<pdfrwt beam="2">  1       -2 0.67534136E-01 0.20124195E+04</pdfrwt>
<totfact> 0.83878075E+00</totfact>
</mgrwt>
</event>
<event>
12    2  0.3518828E-008  0.1612745E+04  0.7818608E-02  0.8812756E-01
          2   -1    0    0  501    0  0.00000000000E+00  0.00000000000E+00  0.25202947174E+04  0.25202947174E+04  0.00000000000E+00 0.  1.
         -2   -1    0    0    0  501 -0.00000000000E+00 -0.00000000000E+00 -0.25800026756E+03  0.25800026756E+03  0.00000000000E+00 0. -1.
         23    2    1    2    0    0  0.43157116079E+03  0.14573626696E+03  0.63722017606E+03  0.78852436499E+03  0.90710501385E+02 0.  0.
        254    2    1    2    0    0 -0.43157116079E+03 -0.14573626696E+03  0.16250742738E+04  0.19897706200E+04  0.10539582528E+04 0.  0.
         23    2    4    4    0    0 -0.58626153980E+03  0.27760378015E+03  0.11843602885E+04  0.13534123824E+04  0.90825833502E+02 0.  0.
         23    2    4    4    0    0  0.15469037901E+03 -0.42334004711E+03  0.44071398530E+03  0.63635823761E+03  0.87046429509E+02 0.  0.
          1    1    3    3  502    0  0.94892092511E+02  0.12692379775E+02  0.83885383282E+02  0.12728850401E+03  0.00000000000E+00 0. -1.
         -1    1    3    3    0  502  0.33667906828E+03  0.13304388719E+03  0.55333479278E+03  0.66123586097E+03  0.00000000000E+00 0.  1.
         11    1    5    5    0    0 -0.21646424610E+03  0.77204606411E+02  0.34458533513E+03  0.41419364345E+03  0.00000000000E+00 0. -1.
        -11    1    5    5    0    0 -0.36979729370E+03  0.20039917374E+03  0.83977495339E+03  0.93921873896E+03  0.00000000000E+00 0.  1.
          3    1    6    6  503    0  0.10076012382E+03 -0.24153742055E+03  0.31169425657E+03  0.40699660645E+03  0.00000000000E+00 0. -1.
         -3    1    6    6    0  503  0.53930255194E+02 -0.18180262656E+03  0.12901972872E+03  0.22936163117E+03  0.00000000000E+00 0.  1.
<mgrwt>
<rscale>  0 0.16127451E+04</rscale>
<asrwt>0</asrwt>
<pdfrwt beam="1">  1        2 0.38773763E+00 0.16127451E+04</pdfrwt>
<pdfrwt beam="2">  1       -2 0.39692351E-01 0.16127451E+04</pdfrwt>
<totfact> 0.19530792E+01</totfact>
</mgrwt>
</event>
<event>
12    2  0.3518828E-008  0.2644446E+04  0.7818608E-02  0.8353259E-01
         -2   -1    0    0    0  501 -0.00000000000E+00  0.00000000000E+00  0.54841531312E+03  0.54841531312E+03  0.00000000000E+00 0.  1.
          2   -1    0    0  501    0  0.00000000000E+00 -0.00000000000E+00 -0.31878651418E+04  0.31878651418E+04  0.00000000000E+00 0. -1.
         23    2    1    2    0    0 -0.27851489635E+03  0.92206823845E+03 -0.26141758502E+03  0.10022310725E+04  0.91365119219E+02 0.  0.
        254    2    1    2    0    0  0.27851489635E+03 -0.92206823845E+03 -0.23780322437E+04  0.27340493825E+04  0.94456777947E+03 0.  0.
         23    2    4    4    0    0 -0.32803852622E+03 -0.45274353055E+03 -0.11729649522E+04  0.13027737346E+04  0.93737107405E+02 0.  0.
         23    2    4    4    0    0  0.60655342257E+03 -0.46932470790E+03 -0.12050672915E+04  0.14312756479E+04  0.90498991056E+02 0.  0.
          4    1    3    3  502    0 -0.13127280494E+03  0.56409666419E+03 -0.13120917178E+03  0.59384631229E+03  0.00000000000E+00 0. -1.
         -4    1    3    3    0  502 -0.14724209141E+03  0.35797157426E+03 -0.13020841324E+03  0.40838476017E+03  0.00000000000E+00 0.  1.
         11    1    5    5    0    0 -0.37568441650E+02 -0.28204373179E+02 -0.15893514179E+03  0.16573247651E+03  0.00000000000E+00 0. -1.
        -11    1    5    5    0    0 -0.29047008457E+03 -0.42453915737E+03 -0.10140298104E+04  0.11370412581E+04  0.00000000000E+00 0.  1.
          2    1    6    6  503    0  0.14681270354E+03 -0.13985775168E+03 -0.38404375511E+03  0.43428535143E+03  0.00000000000E+00 0. -1.
         -2    1    6    6    0  503  0.45974071903E+03 -0.32946695622E+03 -0.82102353640E+03  0.99699029649E+03  0.00000000000E+00 0.  1.
<mgrwt>
<rscale>  0 0.26444463E+04</rscale>
<asrwt>0</asrwt>
<pdfrwt beam="1">  1        2 0.49044079E+00 0.26444463E+04</pdfrwt>
<pdfrwt beam="2">  1       -2 0.84371587E-01 0.26444463E+04</pdfrwt>
<totfact> 0.14262538E+00</totfact>
</mgrwt>
</event>
<event>
12    2  0.3518828E-008  0.1567315E+04  0.7818608E-02  0.8840883E-01
          1   -1    0    0  501    0  0.00000000000E+00  0.00000000000E+00  0.54284815645E+03  0.54284815645E+03  0.00000000000E+00 0. -1.
         -1   -1    0    0    0  501 -0.00000000000E+00 -0.00000000000E+00 -0.11312903434E+04  0.11312903434E+04  0.00000000000E+00 0.  1.
         23    2    1    2    0    0 -0.12264846644E+03 -0.46261750416E+03 -0.40895032822E+03  0.63611340948E+03  0.91336177350E+02 0.  0.
        254    2    1    2    0    0  0.12264846644E+03  0.46261750416E+03 -0.17949185870E+03  0.10380250904E+04  0.90344958873E+03 0.  0.
         23    2    4    4    0    0  0.16814322479E+02 -0.26194457955E+03 -0.98943166295E+02  0.29568230991E+03  0.93491144186E+02 0.  0.
         23    2    4    4    0    0  0.10583414396E+03  0.72456208371E+03 -0.80548692407E+02  0.74234278044E+03  0.91616770559E+02 0.  0.
          1    1    3    3  502    0 -0.60245647249E+02 -0.94921581749E+02 -0.11900287164E+03  0.16371111188E+03  0.00000000000E+00 0. -1.
         -1    1    3    3    0  502 -0.62402819186E+02 -0.36769592241E+03 -0.28994745658E+03  0.47240229760E+03  0.00000000000E+00 0.  1.
         11    1    5    5    0    0  0.11158657438E+02 -0.19502676944E+03 -0.26894010494E+02  0.19718834711E+03  0.00000000000E+00 0. -1.
        -11    1    5    5    0    0  0.56556650412E+01 -0.66917810107E+02 -0.72049155801E+02  0.98493962801E+02  0.00000000000E+00 0.  1.
          1    1    6    6  503    0  0.59203539690E+02  0.57036615850E+03 -0.92346609249E+02  0.58081882727E+03  0.00000000000E+00 0. -1.
         -1    1    6    6    0  503  0.46630604266E+02  0.15419592521E+03  0.11797916843E+02  0.16152395317E+03  0.00000000000E+00 0.  1.
<mgrwt>
<rscale>  0 0.15673147E+04</rscale>
<asrwt>0</asrwt>
<pdfrwt beam="1">  1        1 0.83515102E-01 0.15673147E+04</pdfrwt>
<pdfrwt beam="2">  1       -1 0.17404467E+00 0.15673147E+04</pdfrwt>
<totfact> 0.87370254E+00</totfact>
</mgrwt>
</event>
<event>
12    2  0.3518828E-008  0.1686561E+04  0.7818608E-02  0.8769067E-01
         -1   -1    0    0    0  501 -0.00000000000E+00  0.00000000000E+00  0.65544579747E+03  0.65544579747E+03  0.00000000000E+00 0.  1.
          1   -1    0    0  501    0  0.00000000000E+00 -0.00000000000E+00 -0.10849437676E+04  0.10849437676E+04  0.00000000000E+00 0. -1.
         23    2    1    2    0    0  0.27396244660E+03 -0.40763773553E+03 -0.47499239759E+03  0.68948588288E+03  0.92461123486E+02 0.  0.
        254    2    1    2    0    0 -0.27396244660E+03  0.40763773553E+03  0.45494427428E+02  0.10509036822E+04  0.92795735936E+03 0.  0.
         23    2    4    4    0    0 -0.24791261422E+03 -0.23114913959E+03 -0.14138512761E+03  0.37837453035E+03  0.91032641883E+02 0.  0.
         23    2    4    4    0    0 -0.26049832380E+02  0.63878687512E+03  0.18687955504E+03  0.67252915185E+03  0.92974332018E+02 0.  0.
          3    1    3    3  502    0  0.34396135369E+02 -0.17212683058E+02 -0.60699036241E+02  0.71859192780E+02  0.00000000000E+00 0.  1.
         -3    1    3    3    0  502  0.23956631123E+03 -0.39042505247E+03 -0.41429336135E+03  0.61762669010E+03  0.00000000000E+00 0. -1.
         11    1    5    5    0    0  0.48176958662E+00 -0.29506681532E+02 -0.22320417079E+02  0.37001045601E+02  0.00000000000E+00 0.  1.
        -11    1    5    5    0    0 -0.24839438381E+03 -0.20164245806E+03 -0.11906471053E+03  0.34137348475E+03  0.00000000000E+00 0. -1.
          2    1    6    6  503    0 -0.20748470993E+02  0.58969804090E+03  0.19709363276E+03  0.62210945867E+03  0.00000000000E+00 0. -1.
         -2    1    6    6    0  503 -0.53013613871E+01  0.49088834214E+02 -0.10214077721E+02  0.50419693184E+02  0.00000000000E+00 0.  1.
<mgrwt>
<rscale>  0 0.16865608E+04</rscale>
<asrwt>0</asrwt>
<pdfrwt beam="1">  1        1 0.16691443E+00 0.16865608E+04</pdfrwt>
<pdfrwt beam="2">  1       -1 0.10083781E+00 0.16865608E+04</pdfrwt>
<totfact> 0.11595942E+01</totfact>
</mgrwt>
</event>
<event>
12    2  0.3518828E-008  0.2000483E+04  0.7818608E-02  0.8606395E-01
          1   -1    0    0  501    0  0.00000000000E+00  0.00000000000E+00  0.10144698542E+04  0.10144698542E+04  0.00000000000E+00 0. -1.
         -1   -1    0    0    0  501 -0.00000000000E+00 -0.00000000000E+00 -0.98621305415E+03  0.98621305415E+03  0.00000000000E+00 0.  1.
         23    2    1    2    0    0 -0.48840613380E+03  0.32709850087E+03  0.54329984458E+03  0.80550060238E+03  0.90125016015E+02 0.  0.
        254    2    1    2    0    0  0.48840613380E+03 -0.32709850087E+03 -0.51504304458E+03  0.11951823059E+04  0.90424411850E+03 0.  0.
         23    2    4    4    0    0  0.46525574119E+03 -0.28706272662E+03 -0.75419394354E+03  0.93569294382E+03  0.88571253284E+02 0.  0.
         23    2    4    4    0    0  0.23150392601E+02 -0.40035774248E+02  0.23915089896E+03  0.25948936211E+03  0.89458217481E+02 0.  0.
          4    1    3    3  502    0 -0.15302334867E+03  0.15353202610E+03  0.18611194359E+03  0.28570243930E+03  0.00000000000E+00 0.  1.
         -4    1    3    3    0  502 -0.33538278513E+03  0.17356647477E+03  0.35718790099E+03  0.51979816308E+03  0.00000000000E+00 0. -1.
         11    1    5    5    0    0  0.11547454016E+03 -0.64770462814E+02 -0.12376384038E+03  0.18123760775E+03  0.00000000000E+00 0.  1.
        -11    1    5    5    0    0  0.34978120103E+03 -0.22229226381E+03 -0.63043010317E+03  0.75445533607E+03  0.00000000000E+00 0. -1.
          4    1    6    6  503    0  0.30420455320E+02 -0.61456715965E+02  0.21796185403E+03  0.22849442412E+03  0.00000000000E+00 0. -1.
         -4    1    6    6    0  503 -0.72700627190E+01  0.21420941717E+02  0.21189044930E+02  0.30994937991E+02  0.00000000000E+00 0.  1.
<mgrwt>
<rscale>  0 0.20004834E+04</rscale>
<asrwt>0</asrwt>
<pdfrwt beam="1">  1        1 0.15607229E+00 0.20004834E+04</pdfrwt>
<pdfrwt beam="2">  1       -1 0.15172509E+00 0.20004834E+04</pdfrwt>
<totfact> 0.46262695E+00</totfact>
</mgrwt>
</event>
<event>
12    2  0.3518828E-008  0.2821754E+04  0.7818608E-02  0.8296546E-01
         -1   -1    0    0    0  501 -0.00000000000E+00  0.00000000000E+00  0.70543368721E+03  0.70543368721E+03  0.00000000000E+00 0.  1.
          1   -1    0    0  501    0  0.00000000000E+00 -0.00000000000E+00 -0.28217733150E+04  0.28217733150E+04  0.00000000000E+00 0. -1.
         23    2    1    2    0    0 -0.42318038864E+03  0.36709282478E+03  0.46609440363E+03  0.73473834483E+03  0.93582364365E+02 0.  0.
        254    2    1    2    0    0  0.42318038864E+03 -0.36709282478E+03 -0.25824340315E+04  0.27924686574E+04  0.90281609005E+03 0.  0.
         23    2    4    4    0    0 -0.13965824813E+02 -0.33029287451E+03 -0.21238617687E+04  0.21514798937E+04  0.93746963148E+02 0.  0.
         23    2    4    4    0    0  0.43714621346E+03 -0.36799950272E+02 -0.45857226273E+03  0.64098876372E+03  0.90150023771E+02 0.  0.
          4    1    3    3  502    0 -0.15611322161E+02  0.32761713788E+02  0.99464007886E+01  0.37629432079E+02  0.00000000000E+00 0. -1.
         -4    1    3    3    0  502 -0.40756906648E+03  0.33433111100E+03  0.45614800284E+03  0.69710891275E+03  0.00000000000E+00 0.  1.
         11    1    5    5    0    0 -0.32384630418E+02 -0.30821139772E+03 -0.20229693062E+04  0.20465697750E+04  0.00000000000E+00 0.  1.
        -11    1    5    5    0    0  0.18418805605E+02 -0.22081476794E+02 -0.10089246251E+03  0.10491011872E+03  0.00000000000E+00 0. -1.
          1    1    6    6  503    0  0.85783746853E+02 -0.42190818764E+02 -0.11485007101E+03  0.14943043607E+03  0.00000000000E+00 0. -1.
         -1    1    6    6    0  503  0.35136246660E+03  0.53908684915E+01 -0.34372219172E+03  0.49155832765E+03  0.00000000000E+00 0.  1.
<mgrwt>
<rscale>  0 0.28217540E+04</rscale>
<asrwt>0</asrwt>
<pdfrwt beam="1">  1        1 0.43411897E+00 0.28217540E+04</pdfrwt>
<pdfrwt beam="2">  1       -1 0.10852826E+00 0.28217540E+04</pdfrwt>
<totfact> 0.54709336E-01</totfact>
</mgrwt>
</event>
<event>
12    2  0.3518828E-008  0.1114304E+04  0.7818608E-02  0.9191362E-01
          2   -1    0    0  501    0  0.00000000000E+00  0.00000000000E+00  0.15299475384E+04  0.15299475384E+04  0.00000000000E+00 0. -1.
         -2   -1    0    0    0  501 -0.00000000000E+00 -0.00000000000E+00 -0.20289464880E+03  0.20289464880E+03  0.00000000000E+00 0.  1.
         23    2    1    2    0    0  0.19876385831E+02 -0.11945480126E+03  0.40787544026E+03  0.43503722049E+03  0.90722038032E+02 0.  0.
        254    2    1    2    0    0 -0.19876385831E+02  0.11945480126E+03  0.91917744929E+03  0.12978049667E+04  0.90815528846E+03 0.  0.
         23    2    4    4    0    0 -0.11249652013E+03  0.33347813755E+03  0.97733754161E+03  0.10425502459E+04  0.88652183598E+02 0.  0.
         23    2    4    4    0    0  0.92620134296E+02 -0.21402333629E+03 -0.58160092317E+02  0.25525472079E+03  0.85952884730E+02 0.  0.
          4    1    3    3  502    0  0.18528828710E+02 -0.11533795253E+03  0.41248753343E+03  0.42870983896E+03  0.00000000000E+00 0. -1.
         -4    1    3    3    0  502  0.13475571215E+01 -0.41168487243E+01 -0.46120931670E+01  0.63273815276E+01  0.00000000000E+00 0.  1.
         11    1    5    5    0    0 -0.10149771972E+03  0.28820920034E+03  0.73859965286E+03  0.79930956298E+03  0.00000000000E+00 0.  1.
        -11    1    5    5    0    0 -0.10998800410E+02  0.45268937208E+02  0.23873788875E+03  0.24324068289E+03  0.00000000000E+00 0. -1.
          2    1    6    6  503    0  0.98785254426E+02 -0.15529133172E+03 -0.20437136353E+02  0.18517991452E+03  0.00000000000E+00 0.  1.
         -2    1    6    6    0  503 -0.61651201303E+01 -0.58732004576E+02 -0.37722955964E+02  0.70074806274E+02  0.00000000000E+00 0. -1.
<mgrwt>
<rscale>  0 0.11143037E+04</rscale>
<asrwt>0</asrwt>
<pdfrwt beam="1">  1        2 0.23537654E+00 0.11143037E+04</pdfrwt>
<pdfrwt beam="2">  1       -2 0.31214562E-01 0.11143037E+04</pdfrwt>
<totfact> 0.11522119E+02</totfact>
</mgrwt>
</event>
<event>
12    2  0.3518828E-008  0.3527296E+04  0.7818608E-02  0.8107351E-01
          1   -1    0    0  501    0  0.00000000000E+00  0.00000000000E+00  0.14610325375E+04  0.14610325375E+04  0.00000000000E+00 0. -1.
         -1   -1    0    0    0  501 -0.00000000000E+00 -0.00000000000E+00 -0.21289422780E+04  0.21289422780E+04  0.00000000000E+00 0.  1.
         23    2    1    2    0    0 -0.54850719854E+03  0.69359645588E+03  0.10989439746E+04  0.14136857318E+04  0.94304287361E+02 0.  0.
        254    2    1    2    0    0  0.54850719854E+03 -0.69359645588E+03 -0.17668537151E+04  0.21762890837E+04  0.91242859143E+03 0.  0.
         23    2    4    4    0    0 -0.13555724708E+03 -0.23414820473E+03 -0.10237650155E+04  0.10629065817E+04  0.92056751487E+02 0.  0.
         23    2    4    4    0    0  0.68406444562E+03 -0.45944825116E+03 -0.74308869968E+03  0.11133825020E+04  0.91667436119E+02 0.  0.
          1    1    3    3  502    0 -0.47705405992E+03  0.63479232504E+03  0.10153264520E+04  0.12889645752E+04  0.00000000000E+00 0. -1.
         -1    1    3    3    0  502 -0.71453138613E+02  0.58804130842E+02  0.83617522564E+02  0.12472115659E+03  0.00000000000E+00 0.  1.
         11    1    5    5    0    0 -0.14229935817E+03 -0.20817660217E+03 -0.97673400173E+03  0.10087595924E+04  0.00000000000E+00 0. -1.
        -11    1    5    5    0    0  0.67421110894E+01 -0.25971602556E+02 -0.47031013736E+02  0.54146989337E+02  0.00000000000E+00 0.  1.
          3    1    6    6  503    0  0.31737268516E+03 -0.16084292609E+03 -0.30148762929E+03  0.46635893770E+03  0.00000000000E+00 0. -1.
         -3    1    6    6    0  503  0.36669176046E+03 -0.29860532506E+03 -0.44160107039E+03  0.64702356427E+03  0.00000000000E+00 0.  1.
<mgrwt>
<rscale>  0 0.35272958E+04</rscale>
<asrwt>0</asrwt>
<pdfrwt beam="1">  1        1 0.22477424E+00 0.35272958E+04</pdfrwt>
<pdfrwt beam="2">  1       -1 0.32752958E+00 0.35272958E+04</pdfrwt>
<totfact> 0.12381015E-01</totfact>
</mgrwt>
</event>
<event>
12    2  0.3518828E-008  0.2319222E+04  0.7818608E-02  0.8470381E-01
         -2   -1    0    0    0  501 -0.00000000000E+00  0.00000000000E+00  0.81942341331E+03  0.81942341331E+03  0.00000000000E+00 0.  1.
          2   -1    0    0  501    0  0.00000000000E+00 -0.00000000000E+00 -0.16410287171E+04  0.16410287171E+04  0.00000000000E+00 0. -1.
         23    2    1    2    0    0  0.40434411998E+03 -0.11526413524E+03 -0.12915056053E+04  0.13611193444E+04  0.88764593656E+02 0.  0.
        254    2    1    2    0    0 -0.40434411998E+03  0.11526413524E+03  0.46990030145E+03  0.10993327860E+04  0.90052556479E+03 0.  0.
         23    2    4    4    0    0  0.13815967276E+03 -0.25969967539E+03  0.25497517724E+03  0.39981132887E+03  0.91130352322E+02 0.  0.
         23    2    4    4    0    0 -0.54250379274E+03  0.37496381062E+03  0.21492512421E+03  0.69952145713E+03  0.90715134107E+02 0.  0.
          3    1    3    3  502    0  0.30850607679E+02  0.86070597281E+01 -0.15913942712E+03  0.16233052311E+03  0.00000000000E+00 0.  1.
         -3    1    3    3    0  502  0.37349351230E+03 -0.12387119496E+03 -0.11323661781E+04  0.11987888213E+04  0.00000000000E+00 0. -1.
         11    1    5    5    0    0  0.59041497109E+02 -0.17247064322E+03  0.19749197311E+03  0.26876588436E+03  0.00000000000E+00 0. -1.
        -11    1    5    5    0    0  0.79118175647E+02 -0.87229032163E+02  0.57483204133E+02  0.13104544451E+03  0.00000000000E+00 0.  1.
          2    1    6    6  503    0 -0.76498710097E+02  0.89767970763E+02  0.55767601364E+02  0.13046212701E+03  0.00000000000E+00 0.  1.
         -2    1    6    6    0  503 -0.46600508264E+03  0.28519583986E+03  0.15915752285E+03  0.56905933012E+03  0.00000000000E+00 0. -1.
<mgrwt>
<rscale>  0 0.23192217E+04</rscale>
<asrwt>0</asrwt>
<pdfrwt beam="1">  1        2 0.25246596E+00 0.23192217E+04</pdfrwt>
<pdfrwt beam="2">  1       -2 0.12606514E+00 0.23192217E+04</pdfrwt>
<totfact> 0.44948745E+00</totfact>
</mgrwt>
</event>
<event>
12    2  0.3518828E-008  0.1145136E+04  0.7818608E-02  0.9162282E-01
         -2   -1    0    0    0  501 -0.00000000000E+00  0.00000000000E+00  0.11317052332E+04  0.11317052332E+04  0.00000000000E+00 0.  1.
          2   -1    0    0  501    0  0.00000000000E+00 -0.00000000000E+00 -0.28968176757E+03  0.28968176757E+03  0.00000000000E+00 0. -1.
         23    2    1    2    0    0 -0.27847854054E+02 -0.20206793473E+03  0.16442511808E+03  0.27699258204E+03  0.89901712053E+02 0.  0.
        254    2    1    2    0    0  0.27847854054E+02  0.20206793473E+03  0.67759834758E+03  0.11443944188E+04  0.89938429595E+03 0.  0.
         23    2    4    4    0    0  0.17980236730E+03  0.51262140637E+03  0.50267005308E+03  0.74645763311E+03  0.97016587311E+02 0.  0.
         23    2    4    4    0    0 -0.15195451325E+03 -0.31055347164E+03  0.17492829450E+03  0.39793678564E+03  0.90665011476E+02 0.  0.
          2    1    3    3  502    0  0.26156784705E+01 -0.17398857587E+03  0.15805566917E+03  0.23507543654E+03  0.00000000000E+00 0. -1.
         -2    1    3    3    0  502 -0.30463532524E+02 -0.28079358857E+02  0.63694489100E+01  0.41917145503E+02  0.00000000000E+00 0.  1.
         11    1    5    5    0    0  0.48172350195E+02  0.26254338600E+03  0.21016818289E+03  0.33973558829E+03  0.00000000000E+00 0. -1.
        -11    1    5    5    0    0  0.13163001710E+03  0.25007802037E+03  0.29250187020E+03  0.40672204482E+03  0.00000000000E+00 0.  1.
          4    1    6    6  503    0 -0.16203727634E+03 -0.28934734875E+03  0.15092230017E+03  0.36435629244E+03  0.00000000000E+00 0. -1.
         -4    1    6    6    0  503  0.10082763099E+02 -0.21206122893E+02  0.24005994328E+02  0.33580493200E+02  0.00000000000E+00 0.  1.
<mgrwt>
<rscale>  0 0.11451365E+04</rscale>
<asrwt>0</asrwt>
<pdfrwt beam="1">  1        2 0.44566427E-01 0.11451365E+04</pdfrwt>
<pdfrwt beam="2">  1       -2 0.17410849E+00 0.11451365E+04</pdfrwt>
<totfact> 0.22508863E+01</totfact>
</mgrwt>
</event>
<event>
12    2  0.3518828E-008  0.1449795E+04  0.7818608E-02  0.8918542E-01
          2   -1    0    0  501    0  0.00000000000E+00  0.00000000000E+00  0.69088226803E+03  0.69088226803E+03  0.00000000000E+00 0. -1.
         -2   -1    0    0    0  501 -0.00000000000E+00 -0.00000000000E+00 -0.76058787782E+03  0.76058787782E+03  0.00000000000E+00 0.  1.
         23    2    1    2    0    0 -0.43960844627E+02  0.17967458155E+03 -0.43117785342E+03  0.47829516029E+03  0.92932276198E+02 0.  0.
        254    2    1    2    0    0  0.43960844627E+02 -0.17967458155E+03  0.36147224363E+03  0.97317498556E+03  0.88441611162E+03 0.  0.
         23    2    4    4    0    0 -0.94005355606E+02 -0.51387005255E+03  0.21126210282E+03  0.57083369958E+03  0.91214026873E+02 0.  0.
         23    2    4    4    0    0  0.13796620023E+03  0.33419547100E+03  0.15021014081E+03  0.40234128599E+03  0.92704577884E+02 0.  0.
          2    1    3    3  502    0  0.28371231002E+02  0.68673450722E+02 -0.14458730598E+03  0.16256216852E+03  0.00000000000E+00 0. -1.
         -2    1    3    3    0  502 -0.72332075629E+02  0.11100113082E+03 -0.28659054745E+03  0.31573299177E+03  0.00000000000E+00 0.  1.
         11    1    5    5    0    0 -0.36996690082E+02 -0.40906800810E+03  0.15619318244E+03  0.43943338581E+03  0.00000000000E+00 0.  1.
        -11    1    5    5    0    0 -0.57008665525E+02 -0.10480204445E+03  0.55068920383E+02  0.13140031377E+03  0.00000000000E+00 0. -1.
          3    1    6    6  503    0  0.12284576681E+03  0.20503900606E+03  0.68046838712E+02  0.24852051965E+03  0.00000000000E+00 0. -1.
         -3    1    6    6    0  503  0.15120433421E+02  0.12915646495E+03  0.82163302100E+02  0.15382076634E+03  0.00000000000E+00 0.  1.
<mgrwt>
<rscale>  0 0.14497954E+04</rscale>
<asrwt>0</asrwt>
<pdfrwt beam="1">  1        2 0.10628958E+00 0.14497954E+04</pdfrwt>
<pdfrwt beam="2">  1       -2 0.11701352E+00 0.14497954E+04</pdfrwt>
<totfact> 0.22829077E+01</totfact>
</mgrwt>
</event>
<event>
12    2  0.3518828E-008  0.1763898E+04  0.7818608E-02  0.8725737E-01
          2   -1    0    0  501    0  0.00000000000E+00  0.00000000000E+00  0.79773648973E+03  0.79773648973E+03  0.00000000000E+00 0. -1.
         -2   -1    0    0    0  501 -0.00000000000E+00 -0.00000000000E+00 -0.97505158134E+03  0.97505158134E+03  0.00000000000E+00 0.  1.
         23    2    1    2    0    0  0.51064149275E+03  0.93074882186E+02  0.32247481664E+03  0.61786103008E+03  0.91348657994E+02 0.  0.
        254    2    1    2    0    0 -0.51064149275E+03 -0.93074882186E+02 -0.49978990825E+03  0.11549270410E+04  0.90257899920E+03 0.  0.
         23    2    4    4    0    0 -0.47341429021E+03  0.10773605912E+03  0.10951483182E+03  0.50585032798E+03  0.90348809185E+02 0.  0.
         23    2    4    4    0    0 -0.37227202535E+02 -0.20081094131E+03 -0.60930474007E+03  0.64907671300E+03  0.91309442725E+02 0.  0.
          4    1    3    3  502    0  0.29439450669E+03  0.85043214582E+02  0.22693081530E+03  0.38131098705E+03  0.00000000000E+00 0. -1.
         -4    1    3    3    0  502  0.21624698606E+03  0.80316676032E+01  0.95544001336E+02  0.23655004303E+03  0.00000000000E+00 0.  1.
         11    1    5    5    0    0 -0.24154048350E+03  0.37482066961E+02  0.12143099159E+02  0.24473284490E+03  0.00000000000E+00 0.  1.
        -11    1    5    5    0    0 -0.23187380671E+03  0.70253992159E+02  0.97371732661E+02  0.26111748309E+03  0.00000000000E+00 0. -1.
          2    1    6    6  503    0 -0.56493648142E+02 -0.66093635437E+02 -0.21328595594E+03  0.23032759263E+03  0.00000000000E+00 0. -1.
         -2    1    6    6    0  503  0.19266445606E+02 -0.13471730587E+03 -0.39601878413E+03  0.41874912037E+03  0.00000000000E+00 0.  1.
<mgrwt>
<rscale>  0 0.17638982E+04</rscale>
<asrwt>0</asrwt>
<pdfrwt beam="1">  1        2 0.12272869E+00 0.17638982E+04</pdfrwt>
<pdfrwt beam="2">  1       -2 0.15000794E+00 0.17638982E+04</pdfrwt>
<totfact> 0.98031407E+00</totfact>
</mgrwt>
</event>
<event>
12    2  0.3518828E-008  0.2579691E+04  0.7818608E-02  0.8375133E-01
         -1   -1    0    0    0  501 -0.00000000000E+00  0.00000000000E+00  0.10449037323E+04  0.10449037323E+04  0.00000000000E+00 0.  1.
          1   -1    0    0  501    0  0.00000000000E+00 -0.00000000000E+00 -0.15922055747E+04  0.15922055747E+04  0.00000000000E+00 0. -1.
         23    2    1    2    0    0 -0.11164717066E+04 -0.17147408194E+03 -0.28368802189E+03  0.11682444420E+04  0.91671969373E+02 0.  0.
        254    2    1    2    0    0  0.11164717066E+04  0.17147408194E+03 -0.26361382051E+03  0.14688648650E+04  0.90119881986E+03 0.  0.
         23    2    4    4    0    0  0.10607286504E+04 -0.12749574790E+03 -0.28287027050E+02  0.10720073094E+04  0.83660504599E+02 0.  0.
         23    2    4    4    0    0  0.55743056221E+02  0.29896982984E+03 -0.23532679346E+03  0.39685755562E+03  0.98117135405E+02 0.  0.
          3    1    3    3  502    0 -0.44949861345E+03 -0.70967174279E+02 -0.16078278723E+03  0.48263490134E+03  0.00000000000E+00 0. -1.
         -3    1    3    3    0  502 -0.66697309319E+03 -0.10050690766E+03 -0.12290523466E+03  0.68560954065E+03  0.00000000000E+00 0.  1.
         11    1    5    5    0    0  0.51759188279E+03 -0.34240477376E+02  0.17548662507E+02  0.51901996395E+03  0.00000000000E+00 0.  1.
        -11    1    5    5    0    0  0.54313676762E+03 -0.93255270522E+02 -0.45835689557E+02  0.55298734548E+03  0.00000000000E+00 0. -1.
          1    1    6    6  503    0  0.71230376801E+02  0.13577909431E+03 -0.90013137845E+02  0.17779790217E+03  0.00000000000E+00 0. -1.
         -1    1    6    6    0  503 -0.15487320580E+02  0.16319073553E+03 -0.14531365561E+03  0.21905965345E+03  0.00000000000E+00 0.  1.
<mgrwt>
<rscale>  0 0.25796911E+04</rscale>
<asrwt>0</asrwt>
<pdfrwt beam="1">  1        1 0.24495470E+00 0.25796911E+04</pdfrwt>
<pdfrwt beam="2">  1       -1 0.16075442E+00 0.25796911E+04</pdfrwt>
<totfact> 0.14376556E+00</totfact>
</mgrwt>
</event>
<event>
12    2  0.3518828E-008  0.1252996E+04  0.7818608E-02  0.9067693E-01
          1   -1    0    0  501    0  0.00000000000E+00  0.00000000000E+00  0.50580155379E+03  0.50580155379E+03  0.00000000000E+00 0. -1.
         -1   -1    0    0    0  501 -0.00000000000E+00 -0.00000000000E+00 -0.77599565420E+03  0.77599565420E+03  0.00000000000E+00 0.  1.
         23    2    1    2    0    0 -0.25381338352E+03 -0.10138362689E+03  0.44470008182E+02  0.29113751070E+03  0.89908815191E+02 0.  0.
        254    2    1    2    0    0  0.25381338352E+03  0.10138362689E+03 -0.31466410859E+03  0.99065969729E+03  0.89871756473E+03 0.  0.
         23    2    4    4    0    0  0.11990739178E+03  0.47061503344E+03 -0.25471920399E+02  0.49466753481E+03  0.90503364348E+02 0.  0.
         23    2    4    4    0    0  0.13390599174E+03 -0.36923140655E+03 -0.28919218819E+03  0.49599216249E+03  0.90074731941E+02 0.  0.
          4    1    3    3  502    0 -0.18263119346E+03 -0.10584909048E+03  0.57171341760E+02  0.21869326715E+03  0.00000000000E+00 0. -1.
         -4    1    3    3    0  502 -0.71182190069E+02  0.44654635912E+01 -0.12701333578E+02  0.72444243544E+02  0.00000000000E+00 0.  1.
         11    1    5    5    0    0  0.70437171449E+02  0.35998682482E+03 -0.52370365004E+02  0.37053281136E+03  0.00000000000E+00 0. -1.
        -11    1    5    5    0    0  0.49470220331E+02  0.11062820862E+03  0.26898444605E+02  0.12413472345E+03  0.00000000000E+00 0.  1.
          2    1    6    6  503    0  0.99908925072E+02 -0.32508841452E+03 -0.27777692966E+03  0.43911763027E+03  0.00000000000E+00 0.  1.
         -2    1    6    6    0  503  0.33997066673E+02 -0.44142992029E+02 -0.11415258527E+02  0.56874532217E+02  0.00000000000E+00 0. -1.
<mgrwt>
<rscale>  0 0.12529961E+04</rscale>
<asrwt>0</asrwt>
<pdfrwt beam="1">  1        1 0.77815624E-01 0.12529961E+04</pdfrwt>
<pdfrwt beam="2">  1       -1 0.11938395E+00 0.12529961E+04</pdfrwt>
<totfact> 0.26973241E+01</totfact>
</mgrwt>
</event>
<event>
12    2  0.3518828E-008  0.1195017E+04  0.7818608E-02  0.9117230E-01
          2   -1    0    0  501    0  0.00000000000E+00  0.00000000000E+00  0.23806612258E+04  0.23806612258E+04  0.00000000000E+00 0. -1.
         -2   -1    0    0    0  501 -0.00000000000E+00 -0.00000000000E+00 -0.14996515168E+03  0.14996515168E+03  0.00000000000E+00 0.  1.
         23    2    1    2    0    0  0.85034230637E+02 -0.12794789660E+03  0.77215487476E+02  0.19494249326E+03  0.91863265506E+02 0.  0.
        254    2    1    2    0    0 -0.85034230637E+02  0.12794789660E+03  0.21534805866E+04  0.23356838842E+04  0.89125702541E+03 0.  0.
         23    2    4    4    0    0  0.11631160404E+03  0.24639862534E+03  0.16221005271E+03  0.32836003373E+03  0.85249860696E+02 0.  0.
         23    2    4    4    0    0 -0.20134583468E+03 -0.11845072874E+03  0.19912705339E+04  0.20073238505E+04  0.98081502653E+02 0.  0.
          4    1    3    3  502    0  0.35314466424E+02 -0.15603715070E+02  0.59339930583E+02  0.70794172249E+02  0.00000000000E+00 0. -1.
         -4    1    3    3    0  502  0.49719764213E+02 -0.11234418153E+03  0.17875556894E+02  0.12414832101E+03  0.00000000000E+00 0.  1.
         11    1    5    5    0    0 -0.54208009889E+01  0.94636489294E+01 -0.68351950090E+01  0.12871115928E+02  0.00000000000E+00 0. -1.
        -11    1    5    5    0    0  0.12173240503E+03  0.23693497641E+03  0.16904524772E+03  0.31548891780E+03  0.00000000000E+00 0.  1.
          3    1    6    6  503    0 -0.85914659577E+02 -0.14675083096E+02  0.10212572925E+04  0.10249698261E+04  0.00000000000E+00 0. -1.
         -3    1    6    6    0  503 -0.11543117510E+03 -0.10377564564E+03  0.97001324138E+03  0.98235402440E+03  0.00000000000E+00 0.  1.
<mgrwt>
<rscale>  0 0.11950167E+04</rscale>
<asrwt>0</asrwt>
<pdfrwt beam="1">  1        2 0.36625555E+00 0.11950167E+04</pdfrwt>
<pdfrwt beam="2">  1       -2 0.23071563E-01 0.11950167E+04</pdfrwt>
<totfact> 0.67088834E+01</totfact>
</mgrwt>
</event>
<event>
12    2  0.3518828E-008  0.1287227E+04  0.7818608E-02  0.9039756E-01
         -2   -1    0    0    0  501 -0.00000000000E+00  0.00000000000E+00  0.12488549485E+03  0.12488549485E+03  0.00000000000E+00 0.  1.
          2   -1    0    0  501    0  0.00000000000E+00 -0.00000000000E+00 -0.33169466395E+04  0.33169466395E+04  0.00000000000E+00 0. -1.
         23    2    1    2    0    0  0.34067983288E+02 -0.18726407037E+03 -0.12075137175E+04  0.12259765097E+04  0.93276817610E+02 0.  0.
        254    2    1    2    0    0 -0.34067983288E+02  0.18726407037E+03 -0.19845474271E+04  0.22158556247E+04  0.96713970004E+03 0.  0.
         23    2    4    4    0    0  0.11337601942E+02  0.46594876713E+02 -0.20331651372E+04  0.20357785071E+04  0.91290915627E+02 0.  0.
         23    2    4    4    0    0 -0.45405585230E+02  0.14066919366E+03  0.48617710091E+02  0.18007711752E+03  0.90634415683E+02 0.  0.
          1    1    3    3  502    0  0.28348019016E+02 -0.43541622639E+02 -0.57364506143E+03  0.57599317668E+03  0.00000000000E+00 0. -1.
         -1    1    3    3    0  502  0.57199642717E+01 -0.14372244773E+03 -0.63386865609E+03  0.64998333298E+03  0.00000000000E+00 0.  1.
         11    1    5    5    0    0 -0.19901304007E+02  0.27922372914E+02 -0.26136136394E+03  0.26360099274E+03  0.00000000000E+00 0. -1.
        -11    1    5    5    0    0  0.31238905949E+02  0.18672503799E+02 -0.17718037733E+04  0.17721775144E+04  0.00000000000E+00 0.  1.
          3    1    6    6  503    0  0.24446502787E+02  0.63684943178E+02  0.88891795859E+01  0.68792594077E+02  0.00000000000E+00 0. -1.
         -3    1    6    6    0  503 -0.69852088017E+02  0.76984250480E+02  0.39728530505E+02  0.11128452344E+03  0.00000000000E+00 0.  1.
<mgrwt>
<rscale>  0 0.12872273E+04</rscale>
<asrwt>0</asrwt>
<pdfrwt beam="1">  1        2 0.51029960E+00 0.12872273E+04</pdfrwt>
<pdfrwt beam="2">  1       -2 0.19213148E-01 0.12872273E+04</pdfrwt>
<totfact> 0.24847419E+01</totfact>
</mgrwt>
</event>
<event>
12    2  0.3518828E-008  0.2317302E+04  0.7818608E-02  0.8471130E-01
         -3   -1    0    0    0  501 -0.00000000000E+00  0.00000000000E+00  0.74789024227E+03  0.74789024227E+03  0.00000000000E+00 0.  1.
          3   -1    0    0  501    0  0.00000000000E+00 -0.00000000000E+00 -0.17950129663E+04  0.17950129663E+04  0.00000000000E+00 0. -1.
         23    2    1    2    0    0  0.69326017751E+03  0.68158720043E+03 -0.62435680445E+03  0.11590413295E+04  0.91567455137E+02 0.  0.
        254    2    1    2    0    0 -0.69326017751E+03 -0.68158720043E+03 -0.42276591953E+03  0.13838618790E+04  0.88947843811E+03 0.  0.
         23    2    4    4    0    0 -0.12467611897E+03 -0.56460492459E+03  0.10479526503E+03  0.59423554240E+03  0.88379730497E+02 0.  0.
         23    2    4    4    0    0 -0.56858405854E+03 -0.11698227584E+03 -0.52756118457E+03  0.78962633658E+03  0.90643606903E+02 0.  0.
          2    1    3    3  502    0  0.33039275554E+03  0.35612346550E+03 -0.35909957711E+03  0.60409916560E+03  0.00000000000E+00 0. -1.
         -2    1    3    3    0  502  0.36286742197E+03  0.32546373493E+03 -0.26525722733E+03  0.55494216395E+03  0.00000000000E+00 0.  1.
         11    1    5    5    0    0 -0.65333741381E+02 -0.18783010694E+03  0.71175731138E+00  0.19886968959E+03  0.00000000000E+00 0.  1.
        -11    1    5    5    0    0 -0.59342377585E+02 -0.37677481765E+03  0.10408350772E+03  0.39536585281E+03  0.00000000000E+00 0. -1.
          2    1    6    6  503    0 -0.19803069467E+03 -0.55000545750E+02 -0.13300705246E+03  0.24481031855E+03  0.00000000000E+00 0.  1.
         -2    1    6    6    0  503 -0.37055336387E+03 -0.61981730087E+02 -0.39455413210E+03  0.54481601803E+03  0.00000000000E+00 0. -1.
<mgrwt>
<rscale>  0 0.23173025E+04</rscale>
<asrwt>0</asrwt>
<pdfrwt beam="1">  1        3 0.27615584E+00 0.23173025E+04</pdfrwt>
<pdfrwt beam="2">  1       -3 0.11506004E+00 0.23173025E+04</pdfrwt>
<totfact> 0.77600411E-02</totfact>
</mgrwt>
</event>
<event>
12    2  0.3518828E-008  0.1888415E+04  0.7818608E-02  0.8660644E-01
          2   -1    0    0  501    0  0.00000000000E+00  0.00000000000E+00  0.13742873029E+04  0.13742873029E+04  0.00000000000E+00 0.  1.
         -2   -1    0    0    0  501 -0.00000000000E+00 -0.00000000000E+00 -0.64872019423E+03  0.64872019423E+03  0.00000000000E+00 0. -1.
         23    2    1    2    0    0  0.21293584402E+02 -0.72237283445E+02  0.10595886772E+04  0.10652872692E+04  0.80231909000E+02 0.  0.
        254    2    1    2    0    0 -0.21293584402E+02  0.72237283445E+02 -0.33402156860E+03  0.95772022787E+03  0.89441935618E+03 0.  0.
         23    2    4    4    0    0 -0.12184501723E+03 -0.29085222284E+03 -0.44652830078E+03  0.55395262561E+03  0.89636846589E+02 0.  0.
         23    2    4    4    0    0  0.10055143283E+03  0.36308950629E+03  0.11250673218E+03  0.40376760226E+03  0.91792873504E+02 0.  0.
          3    1    3    3  502    0 -0.14161066299E+02 -0.30442308346E+02  0.13633842039E+03  0.14041166194E+03  0.00000000000E+00 0. -1.
         -3    1    3    3    0  502  0.35454650702E+02 -0.41794975099E+02  0.92325025686E+03  0.92487560730E+03  0.00000000000E+00 0.  1.
         11    1    5    5    0    0 -0.55054520974E+01 -0.11341828228E+03 -0.18645128854E+03  0.21830735159E+03  0.00000000000E+00 0.  1.
        -11    1    5    5    0    0 -0.11633956514E+03 -0.17743394056E+03 -0.26007701224E+03  0.33564527402E+03  0.00000000000E+00 0. -1.
          3    1    6    6  503    0  0.94991927736E+02  0.32176548395E+03  0.67133557275E+02  0.34214530175E+03  0.00000000000E+00 0. -1.
         -3    1    6    6    0  503  0.55595050956E+01  0.41324022337E+02  0.45373174903E+02  0.61622300507E+02  0.00000000000E+00 0.  1.
<mgrwt>
<rscale>  0 0.18884151E+04</rscale>
<asrwt>0</asrwt>
<pdfrwt beam="1">  1        2 0.21142882E+00 0.18884151E+04</pdfrwt>
<pdfrwt beam="2">  1       -2 0.99803107E-01 0.18884151E+04</pdfrwt>
<totfact> 0.11648528E+01</totfact>
</mgrwt>
</event>
<event>
12    2  0.3518828E-008  0.4864052E+04  0.7818608E-02  0.7849828E-01
          2   -1    0    0  501    0  0.00000000000E+00  0.00000000000E+00  0.34064375896E+04  0.34064375896E+04  0.00000000000E+00 0.  1.
         -2   -1    0    0    0  501 -0.00000000000E+00 -0.00000000000E+00 -0.17363447419E+04  0.17363447419E+04  0.00000000000E+00 0. -1.
         23    2    1    2    0    0 -0.13537528327E+04 -0.99540324577E+03 -0.92780639104E+03  0.19216813624E+04  0.92521378619E+02 0.  0.
        254    2    1    2    0    0  0.13537528327E+04  0.99540324577E+03  0.25978992388E+04  0.32211009691E+04  0.89606732135E+03 0.  0.
         23    2    4    4    0    0  0.10760586954E+04  0.58482247947E+03  0.23677940634E+04  0.26673102317E+04  0.90418454255E+02 0.  0.
         23    2    4    4    0    0  0.27769413731E+03  0.41058076629E+03  0.23010517542E+03  0.55379073744E+03  0.89694980747E+02 0.  0.
          1    1    3    3  502    0 -0.91891843995E+03 -0.69390091843E+03 -0.58910612911E+03  0.12934278547E+04  0.00000000000E+00 0. -1.
         -1    1    3    3    0  502 -0.43483439276E+03 -0.30150232733E+03 -0.33870026194E+03  0.62825350771E+03  0.00000000000E+00 0.  1.
         11    1    5    5    0    0  0.22012603240E+02  0.16562042203E+01  0.62026264748E+02  0.65837339196E+02  0.00000000000E+00 0. -1.
        -11    1    5    5    0    0  0.10540460922E+04  0.58316627525E+03  0.23057677987E+04  0.26014728925E+04  0.00000000000E+00 0.  1.
          1    1    6    6  503    0  0.20232916080E+03  0.22114721976E+03  0.14258743382E+03  0.33192523014E+03  0.00000000000E+00 0. -1.
         -1    1    6    6    0  503  0.75364976515E+02  0.18943354653E+03  0.87517741601E+02  0.22186550730E+03  0.00000000000E+00 0.  1.
<mgrwt>
<rscale>  0 0.48640518E+04</rscale>
<asrwt>0</asrwt>
<pdfrwt beam="1">  1        2 0.52406732E+00 0.48640518E+04</pdfrwt>
<pdfrwt beam="2">  1       -2 0.26712996E+00 0.48640518E+04</pdfrwt>
<totfact> 0.34993121E-02</totfact>
</mgrwt>
</event>
<event>
12    2  0.3518828E-008  0.1832831E+04  0.7818608E-02  0.8689033E-01
          2   -1    0    0  501    0  0.00000000000E+00  0.00000000000E+00  0.91991419260E+03  0.91991419260E+03  0.00000000000E+00 0. -1.
         -2   -1    0    0    0  501 -0.00000000000E+00 -0.00000000000E+00 -0.91293025896E+03  0.91293025896E+03  0.00000000000E+00 0.  1.
         23    2    1    2    0    0  0.57032316216E+03 -0.29641308428E+02  0.38667692859E+03  0.69576826130E+03  0.91800380547E+02 0.  0.
        254    2    1    2    0    0 -0.57032316216E+03  0.29641308428E+02 -0.37969299495E+03  0.11370761903E+04  0.90698863035E+03 0.  0.
         23    2    4    4    0    0 -0.19042292091E+03  0.10874293106E+03  0.27925919427E+03  0.36677504991E+03  0.91936531304E+02 0.  0.
         23    2    4    4    0    0 -0.37990024125E+03 -0.79101622631E+02 -0.65895218922E+03  0.77030114035E+03  0.92545119507E+02 0.  0.
          3    1    3    3  502    0  0.16407155613E+02  0.12730146840E+02  0.38984143158E+01  0.21129340455E+02  0.00000000000E+00 0. -1.
         -3    1    3    3    0  502  0.55391600654E+03 -0.42371455268E+02  0.38277851427E+03  0.67463892084E+03  0.00000000000E+00 0.  1.
         11    1    5    5    0    0  0.79128425551E+01 -0.36383239199E+01  0.18316273947E+02  0.20281429179E+02  0.00000000000E+00 0.  1.
        -11    1    5    5    0    0 -0.19833576346E+03  0.11238125498E+03  0.26094292032E+03  0.34649362073E+03  0.00000000000E+00 0. -1.
          1    1    6    6  503    0 -0.37713320506E+03 -0.66296101584E+02 -0.61524843431E+03  0.72467597129E+03  0.00000000000E+00 0. -1.
         -1    1    6    6    0  503 -0.27670361876E+01 -0.12805521047E+02 -0.43703754911E+02  0.45625169061E+02  0.00000000000E+00 0.  1.
<mgrwt>
<rscale>  0 0.18328311E+04</rscale>
<asrwt>0</asrwt>
<pdfrwt beam="1">  1        2 0.14152526E+00 0.18328311E+04</pdfrwt>
<pdfrwt beam="2">  1       -2 0.14045081E+00 0.18328311E+04</pdfrwt>
<totfact> 0.95328706E+00</totfact>
</mgrwt>
</event>
<event>
12    2  0.3518828E-008  0.1661949E+04  0.7818608E-02  0.8783369E-01
          1   -1    0    0  501    0  0.00000000000E+00  0.00000000000E+00  0.30725747936E+04  0.30725747936E+04  0.00000000000E+00 0. -1.
         -1   -1    0    0    0  501 -0.00000000000E+00 -0.00000000000E+00 -0.22473620828E+03  0.22473620828E+03  0.00000000000E+00 0.  1.
         23    2    1    2    0    0 -0.49696212148E+03  0.76545246958E+02  0.42940644912E+03  0.66754791451E+03  0.91650393336E+02 0.  0.
        254    2    1    2    0    0  0.49696212148E+03 -0.76545246958E+02  0.24184321362E+04  0.26297630874E+04  0.90222468005E+03 0.  0.
         23    2    4    4    0    0  0.10759546153E+03 -0.18666456252E+03  0.20868206076E+04  0.21001058914E+04  0.95937815898E+02 0.  0.
         23    2    4    4    0    0  0.38936665995E+03  0.11011931556E+03  0.33161152854E+03  0.52965719593E+03  0.82691473535E+02 0.  0.
          1    1    3    3  502    0 -0.47944347952E+02 -0.10232650569E+02  0.72108830106E+02  0.87195475900E+02  0.00000000000E+00 0. -1.
         -1    1    3    3    0  502 -0.44901777353E+03  0.86777897527E+02  0.35729761901E+03  0.58035243861E+03  0.00000000000E+00 0.  1.
         11    1    5    5    0    0  0.30957827455E+02 -0.14568398390E+02  0.66218237616E+03  0.66306570158E+03  0.00000000000E+00 0.  1.
        -11    1    5    5    0    0  0.76637634078E+02 -0.17209616413E+03  0.14246382315E+04  0.14370401899E+04  0.00000000000E+00 0. -1.
          3    1    6    6  503    0  0.62902825231E+02  0.36134632018E+02  0.95925316803E+02  0.12026696744E+03  0.00000000000E+00 0. -1.
         -3    1    6    6    0  503  0.32646383472E+03  0.73984683541E+02  0.23568621174E+03  0.40939022849E+03  0.00000000000E+00 0.  1.
<mgrwt>
<rscale>  0 0.16619492E+04</rscale>
<asrwt>0</asrwt>
<pdfrwt beam="1">  1        1 0.47270378E+00 0.16619492E+04</pdfrwt>
<pdfrwt beam="2">  1       -1 0.34574804E-01 0.16619492E+04</pdfrwt>
<totfact> 0.40233453E+00</totfact>
</mgrwt>
</event>
<event>
12    2  0.3518828E-008  0.1158910E+04  0.7818608E-02  0.9149603E-01
         -2   -1    0    0    0  501 -0.00000000000E+00  0.00000000000E+00  0.11594460023E+03  0.11594460023E+03  0.00000000000E+00 0. -1.
          2   -1    0    0  501    0  0.00000000000E+00 -0.00000000000E+00 -0.28959369554E+04  0.28959369554E+04  0.00000000000E+00 0.  1.
         23    2    1    2    0    0 -0.58446029429E+02 -0.20935697598E+03 -0.45874241638E+03  0.51476448290E+03  0.85390787085E+02 0.  0.
        254    2    1    2    0    0  0.58446029429E+02  0.20935697598E+03 -0.23212499388E+04  0.24971170727E+04  0.89450886795E+03 0.  0.
         23    2    4    4    0    0  0.36248629405E+03 -0.62424149421E+02 -0.17473908637E+04  0.17880634158E+04  0.92210957631E+02 0.  0.
         23    2    4    4    0    0 -0.30404026462E+03  0.27178112540E+03 -0.57385907508E+03  0.70905365689E+03  0.84483061325E+02 0.  0.
          4    1    3    3  502    0 -0.42579547408E+02 -0.18231316504E+03 -0.44014781257E+03  0.47831078277E+03  0.00000000000E+00 0. -1.
         -4    1    3    3    0  502 -0.15866482020E+02 -0.27043810943E+02 -0.18594603805E+02  0.36453700124E+02  0.00000000000E+00 0.  1.
         11    1    5    5    0    0  0.10256834395E+02  0.10042289138E+02 -0.15050123133E+03  0.15118422819E+03  0.00000000000E+00 0. -1.
        -11    1    5    5    0    0  0.35222945966E+03 -0.72466438559E+02 -0.15968896324E+04  0.16368791876E+04  0.00000000000E+00 0.  1.
          2    1    6    6  503    0 -0.23982654764E+03  0.16336601657E+03 -0.41187758854E+03  0.50383367916E+03  0.00000000000E+00 0.  1.
         -2    1    6    6    0  503 -0.64213716987E+02  0.10841510883E+03 -0.16198148655E+03  0.20521997772E+03  0.00000000000E+00 0. -1.
<mgrwt>
<rscale>  0 0.11589103E+04</rscale>
<asrwt>0</asrwt>
<pdfrwt beam="1">  1        2 0.44552871E+00 0.11589103E+04</pdfrwt>
<pdfrwt beam="2">  1       -2 0.17837633E-01 0.11589103E+04</pdfrwt>
<totfact> 0.52912744E+01</totfact>
</mgrwt>
</event>
<event>
12    2  0.3518828E-008  0.1300602E+04  0.7818608E-02  0.9029088E-01
         -1   -1    0    0    0  501 -0.00000000000E+00  0.00000000000E+00  0.12686267560E+03  0.12686267560E+03  0.00000000000E+00 0.  1.
          1   -1    0    0  501    0  0.00000000000E+00 -0.00000000000E+00 -0.33334567616E+04  0.33334567616E+04  0.00000000000E+00 0. -1.
         23    2    1    2    0    0 -0.20448556678E+03 -0.44257346874E+02 -0.16788986884E+03  0.28349057814E+03  0.91688821895E+02 0.  0.
        254    2    1    2    0    0  0.20448556678E+03  0.44257346874E+02 -0.30387042172E+04  0.31768288591E+04  0.90263238400E+03 0.  0.
         23    2    4    4    0    0  0.20943267228E+03  0.27053314633E+03 -0.43619181329E+03  0.56290188859E+03  0.97698570723E+02 0.  0.
         23    2    4    4    0    0 -0.49471054983E+01 -0.22627579946E+03 -0.26025124039E+04  0.26139269705E+04  0.91204075458E+02 0.  0.
          1    1    3    3  502    0 -0.15402724877E+02  0.65375657214E+01 -0.55000736380E+02  0.57489692133E+02  0.00000000000E+00 0. -1.
         -1    1    3    3    0  502 -0.18908284191E+03 -0.50794912595E+02 -0.11288913246E+03  0.22600088601E+03  0.00000000000E+00 0.  1.
         11    1    5    5    0    0  0.14829703047E+03  0.21291364598E+03 -0.38580526975E+03  0.46494078769E+03  0.00000000000E+00 0.  1.
        -11    1    5    5    0    0  0.61135641816E+02  0.57619500350E+02 -0.50386543535E+02  0.97961100903E+02  0.00000000000E+00 0. -1.
          2    1    6    6  503    0 -0.31549917313E+02 -0.61712636270E+02 -0.11033874440E+04  0.11055621639E+04  0.00000000000E+00 0. -1.
         -2    1    6    6    0  503  0.26602811815E+02 -0.16456316319E+03 -0.14991249599E+04  0.15083648066E+04  0.00000000000E+00 0.  1.
<mgrwt>
<rscale>  0 0.13006018E+04</rscale>
<asrwt>0</asrwt>
<pdfrwt beam="1">  1        1 0.51283946E+00 0.13006018E+04</pdfrwt>
<pdfrwt beam="2">  1       -1 0.19517336E-01 0.13006018E+04</pdfrwt>
<totfact> 0.71555682E+00</totfact>
</mgrwt>
</event>
<event>
12    2  0.3518828E-008  0.1170121E+04  0.7818608E-02  0.9139419E-01
         -1   -1    0    0    0  501 -0.00000000000E+00  0.00000000000E+00  0.15674763252E+03  0.15674763252E+03  0.00000000000E+00 0.  1.
          1   -1    0    0  501    0  0.00000000000E+00 -0.00000000000E+00 -0.21837376336E+04  0.21837376336E+04  0.00000000000E+00 0. -1.
         23    2    1    2    0    0  0.12402365183E+02 -0.22950198719E+03 -0.62201356968E+03  0.66940403925E+03  0.91519976619E+02 0.  0.
        254    2    1    2    0    0 -0.12402365183E+02  0.22950198719E+03 -0.14049764314E+04  0.16710812269E+04  0.87505926268E+03 0.  0.
         23    2    4    4    0    0  0.17719847711E+03  0.22849813190E+03 -0.14259857126E+04  0.14578840096E+04  0.91541445417E+02 0.  0.
         23    2    4    4    0    0 -0.18960084229E+03  0.10038552943E+01  0.21009281186E+02  0.21319721731E+03  0.95195464445E+02 0.  0.
          3    1    3    3  502    0 -0.14346504211E+02 -0.98396245827E+02 -0.38074073838E+03  0.39351131272E+03  0.00000000000E+00 0. -1.
         -3    1    3    3    0  502  0.26748869395E+02 -0.13110574137E+03 -0.24127283130E+03  0.27589272653E+03  0.00000000000E+00 0.  1.
         11    1    5    5    0    0  0.75623578942E+02  0.10802857036E+03 -0.43830041790E+03  0.45770771682E+03  0.00000000000E+00 0.  1.
        -11    1    5    5    0    0  0.10157489816E+03  0.12046956153E+03 -0.98768529474E+03  0.10001762928E+04  0.00000000000E+00 0. -1.
          4    1    6    6  503    0 -0.30543688806E+02  0.21277000068E+02 -0.26810928187E+02  0.45874323188E+02  0.00000000000E+00 0. -1.
         -4    1    6    6    0  503 -0.15905715348E+03 -0.20273144773E+02  0.47820209373E+02  0.16732289412E+03  0.00000000000E+00 0.  1.
<mgrwt>
<rscale>  0 0.11701209E+04</rscale>
<asrwt>0</asrwt>
<pdfrwt beam="1">  1        1 0.33595964E+00 0.11701209E+04</pdfrwt>
<pdfrwt beam="2">  1       -1 0.24115020E-01 0.11701209E+04</pdfrwt>
<totfact> 0.33148022E+01</totfact>
</mgrwt>
</event>
<event>
12    2  0.3518828E-008  0.2561888E+04  0.7818608E-02  0.8381263E-01
          2   -1    0    0  501    0  0.00000000000E+00  0.00000000000E+00  0.16073274914E+04  0.16073274914E+04  0.00000000000E+00 0. -1.
         -2   -1    0    0    0  501 -0.00000000000E+00 -0.00000000000E+00 -0.10208358169E+04  0.10208358169E+04  0.00000000000E+00 0.  1.
         23    2    1    2    0    0  0.14194207618E+03 -0.27928743302E+03  0.13649459587E+04  0.14034824248E+04  0.92392765604E+02 0.  0.
        254    2    1    2    0    0 -0.14194207618E+03  0.27928743302E+03 -0.77845428424E+03  0.12246808836E+04  0.89202195645E+03 0.  0.
         23    2    4    4    0    0  0.18723515797E+03 -0.96650951330E+02 -0.66776979532E+03  0.70553937452E+03  0.86434360560E+02 0.  0.
         23    2    4    4    0    0 -0.32917723416E+03  0.37593838435E+03 -0.11068448893E+03  0.51914150909E+03  0.87003046246E+02 0.  0.
          4    1    3    3  502    0  0.13079218054E+03 -0.18849328467E+03  0.10842328018E+04  0.11082405341E+04  0.00000000000E+00 0. -1.
         -4    1    3    3    0  502  0.11149895641E+02 -0.90794148345E+02  0.28071315691E+03  0.29524189067E+03  0.00000000000E+00 0.  1.
         11    1    5    5    0    0  0.13662381061E+03 -0.67375836609E+02 -0.58291769187E+03  0.60249365514E+03  0.00000000000E+00 0. -1.
        -11    1    5    5    0    0  0.50611347362E+02 -0.29275114721E+02 -0.84852103445E+02  0.10304571938E+03  0.00000000000E+00 0.  1.
          3    1    6    6  503    0 -0.28836144474E+03  0.28621967302E+03 -0.68943801401E+02  0.41210104560E+03  0.00000000000E+00 0. -1.
         -3    1    6    6    0  503 -0.40815789420E+02  0.89718711325E+02 -0.41740687527E+02  0.10704046348E+03  0.00000000000E+00 0.  1.
<mgrwt>
<rscale>  0 0.25618880E+04</rscale>
<asrwt>0</asrwt>
<pdfrwt beam="1">  1        2 0.24728115E+00 0.25618880E+04</pdfrwt>
<pdfrwt beam="2">  1       -2 0.15705166E+00 0.25618880E+04</pdfrwt>
<totfact> 0.25975941E+00</totfact>
</mgrwt>
</event>
<event>
12    2  0.3518828E-008  0.1593975E+04  0.7818608E-02  0.8824258E-01
         -1   -1    0    0    0  501 -0.00000000000E+00  0.00000000000E+00  0.61786948340E+03  0.61786948340E+03  0.00000000000E+00 0.  1.
          1   -1    0    0  501    0  0.00000000000E+00 -0.00000000000E+00 -0.10280315030E+04  0.10280315030E+04  0.00000000000E+00 0. -1.
         23    2    1    2    0    0  0.52968615925E+03  0.13015099067E+03 -0.36468695141E+03  0.66253116541E+03  0.91892681656E+02 0.  0.
        254    2    1    2    0    0 -0.52968615925E+03 -0.13015099067E+03 -0.45475068208E+02  0.98336982100E+03  0.81697093910E+03 0.  0.
         23    2    4    4    0    0  0.88553074103E+02  0.46012281382E+02  0.23900226330E+03  0.27480520806E+03  0.91853380686E+02 0.  0.
         23    2    4    4    0    0 -0.61823923336E+03 -0.17616327206E+03 -0.28447733151E+03  0.70856461294E+03  0.88787445549E+02 0.  0.
          4    1    3    3  502    0  0.44313795797E+03  0.81856779140E+02 -0.26927423512E+03  0.52495751807E+03  0.00000000000E+00 0. -1.
         -4    1    3    3    0  502  0.86548201284E+02  0.48294211534E+02 -0.95412716286E+02  0.13757364734E+03  0.00000000000E+00 0.  1.
         11    1    5    5    0    0  0.94348877926E+02  0.42511582031E+02  0.13266517860E+03  0.16825277111E+03  0.00000000000E+00 0.  1.
        -11    1    5    5    0    0 -0.57958038231E+01  0.35006993517E+01  0.10633708470E+03  0.10655243695E+03  0.00000000000E+00 0. -1.
          3    1    6    6  503    0 -0.71724704337E+01 -0.14224715862E+02 -0.13064776408E+02  0.20602797287E+02  0.00000000000E+00 0. -1.
         -3    1    6    6    0  503 -0.61106676292E+03 -0.16193855620E+03 -0.27141255510E+03  0.68796181565E+03  0.00000000000E+00 0.  1.
<mgrwt>
<rscale>  0 0.15939753E+04</rscale>
<asrwt>0</asrwt>
<pdfrwt beam="1">  1        1 0.15815869E+00 0.15939753E+04</pdfrwt>
<pdfrwt beam="2">  1       -1 0.95056843E-01 0.15939753E+04</pdfrwt>
<totfact> 0.14774827E+01</totfact>
</mgrwt>
</event>
<event>
12    2  0.3518828E-008  0.2430509E+04  0.7818608E-02  0.8428169E-01
         -2   -1    0    0    0  501 -0.00000000000E+00  0.00000000000E+00  0.58755063159E+03  0.58755063159E+03  0.00000000000E+00 0.  1.
          2   -1    0    0  501    0  0.00000000000E+00 -0.00000000000E+00 -0.25135600285E+04  0.25135600285E+04  0.00000000000E+00 0. -1.
         23    2    1    2    0    0 -0.96863099625E+03 -0.31209467945E+03 -0.52224682830E+03  0.11472505838E+04  0.88278290189E+02 0.  0.
        254    2    1    2    0    0  0.96863099625E+03  0.31209467945E+03 -0.14037625686E+04  0.19538600763E+04  0.90076120748E+03 0.  0.
         23    2    4    4    0    0  0.88855890272E+03  0.49405314154E+03 -0.75806142276E+03  0.12713920146E+04  0.90305613052E+02 0.  0.
         23    2    4    4    0    0  0.80072093525E+02 -0.18195846208E+03 -0.64570114587E+03  0.68246806176E+03  0.96500069686E+02 0.  0.
          3    1    3    3  502    0 -0.62280144819E+03 -0.19436434188E+03 -0.28715216433E+03  0.71282221258E+03  0.00000000000E+00 0. -1.
         -3    1    3    3    0  502 -0.34582954805E+03 -0.11773033757E+03 -0.23509466397E+03  0.43442837122E+03  0.00000000000E+00 0.  1.
         11    1    5    5    0    0  0.80432085343E+02  0.76249914073E+02 -0.88065516235E+02  0.14155883900E+03  0.00000000000E+00 0. -1.
        -11    1    5    5    0    0  0.80812681738E+03  0.41780322746E+03 -0.66999590652E+03  0.11298331756E+04  0.00000000000E+00 0.  1.
          3    1    6    6  503    0  0.92096778900E+02 -0.14817639070E+03 -0.43404749913E+03  0.46779834432E+03  0.00000000000E+00 0. -1.
         -3    1    6    6    0  503 -0.12024685375E+02 -0.33782071381E+02 -0.21165364675E+03  0.21466971744E+03  0.00000000000E+00 0.  1.
<mgrwt>
<rscale>  0 0.24305092E+04</rscale>
<asrwt>0</asrwt>
<pdfrwt beam="1">  1        2 0.38670154E+00 0.24305092E+04</pdfrwt>
<pdfrwt beam="2">  1       -2 0.90392406E-01 0.24305092E+04</pdfrwt>
<totfact> 0.32077899E+00</totfact>
</mgrwt>
</event>
<event>
12    2  0.3518828E-008  0.1673396E+04  0.7818608E-02  0.8776685E-01
          1   -1    0    0  501    0  0.00000000000E+00  0.00000000000E+00  0.72389273424E+03  0.72389273424E+03  0.00000000000E+00 0. -1.
         -1   -1    0    0    0  501 -0.00000000000E+00 -0.00000000000E+00 -0.96708197331E+03  0.96708197331E+03  0.00000000000E+00 0.  1.
         23    2    1    2    0    0  0.34432996621E+03 -0.48033226557E+03 -0.12418042966E+03  0.61074654200E+03  0.91150142489E+02 0.  0.
        254    2    1    2    0    0 -0.34432996621E+03  0.48033226557E+03 -0.11900880940E+03  0.10802281656E+04  0.89635237600E+03 0.  0.
         23    2    4    4    0    0 -0.63261928951E+02  0.56826128521E+03  0.22156131644E+03  0.62105328668E+03  0.98462216282E+02 0.  0.
         23    2    4    4    0    0 -0.28106803726E+03 -0.87929019633E+02 -0.34057012585E+03  0.45917487887E+03  0.90126603757E+02 0.  0.
          3    1    3    3  502    0  0.25137948719E+03 -0.39042881244E+03 -0.66285649167E+02  0.46906299305E+03  0.00000000000E+00 0. -1.
         -3    1    3    3    0  502  0.92950479013E+02 -0.89903453135E+02 -0.57894780498E+02  0.14168354895E+03  0.00000000000E+00 0.  1.
         11    1    5    5    0    0 -0.57396511461E+02  0.27255010326E+03  0.63405795552E+02  0.28565400964E+03  0.00000000000E+00 0.  1.
        -11    1    5    5    0    0 -0.58654174896E+01  0.29571118195E+03  0.15815552089E+03  0.33539927704E+03  0.00000000000E+00 0. -1.
          1    1    6    6  503    0 -0.13827593357E+03  0.20800162738E+01 -0.17090371996E+03  0.21984685981E+03  0.00000000000E+00 0. -1.
         -1    1    6    6    0  503 -0.14279210368E+03 -0.90009035907E+02 -0.16966640589E+03  0.23932801906E+03  0.00000000000E+00 0.  1.
<mgrwt>
<rscale>  0 0.16733961E+04</rscale>
<asrwt>0</asrwt>
<pdfrwt beam="1">  1        1 0.11136811E+00 0.16733961E+04</pdfrwt>
<pdfrwt beam="2">  1       -1 0.14878184E+00 0.16733961E+04</pdfrwt>
<totfact> 0.88031352E+00</totfact>
</mgrwt>
</event>
<event>
12    2  0.3518828E-008  0.1961583E+04  0.7818608E-02  0.8624795E-01
         -1   -1    0    0    0  501 -0.00000000000E+00  0.00000000000E+00  0.10416776253E+04  0.10416776253E+04  0.00000000000E+00 0.  1.
          1   -1    0    0  501    0  0.00000000000E+00 -0.00000000000E+00 -0.92346423126E+03  0.92346423126E+03  0.00000000000E+00 0. -1.
         23    2    1    2    0    0  0.57484517346E+03 -0.47889274138E+03  0.24369874763E+03  0.79200807362E+03  0.90013764949E+02 0.  0.
        254    2    1    2    0    0 -0.57484517346E+03  0.47889274138E+03 -0.12548535355E+03  0.11731337830E+04  0.89482460158E+03 0.  0.
         23    2    4    4    0    0 -0.49216336997E+03  0.44737017752E+03  0.29538944235E+03  0.73360779292E+03  0.92523579122E+02 0.  0.
         23    2    4    4    0    0 -0.82681803492E+02  0.31522563854E+02 -0.42087479591E+03  0.43952599006E+03  0.90650700196E+02 0.  0.
          2    1    3    3  502    0  0.88619219786E+02 -0.37471079279E+02  0.42351365666E+02  0.10512414600E+03  0.00000000000E+00 0. -1.
         -2    1    3    3    0  502  0.48622595368E+03 -0.44142166210E+03  0.20134738196E+03  0.68688392762E+03  0.00000000000E+00 0.  1.
         11    1    5    5    0    0 -0.33544692834E+03  0.35958438117E+03  0.21009867291E+03  0.53475884403E+03  0.00000000000E+00 0. -1.
        -11    1    5    5    0    0 -0.15671644163E+03  0.87785796354E+02  0.85290769449E+02  0.19884894888E+03  0.00000000000E+00 0.  1.
          3    1    6    6  503    0 -0.90961755707E+02  0.10897089823E+02 -0.39467991315E+03  0.40517282906E+03  0.00000000000E+00 0. -1.
         -3    1    6    6    0  503  0.82799522143E+01  0.20625474031E+02 -0.26194882761E+02  0.34353160997E+02  0.00000000000E+00 0.  1.
<mgrwt>
<rscale>  0 0.19615831E+04</rscale>
<asrwt>0</asrwt>
<pdfrwt beam="1">  1        1 0.14207142E+00 0.19615831E+04</pdfrwt>
<pdfrwt beam="2">  1       -1 0.16025810E+00 0.19615831E+04</pdfrwt>
<totfact> 0.47146767E+00</totfact>
</mgrwt>
</event>
<event>
12    2  0.3518828E-008  0.1922243E+04  0.7818608E-02  0.8643863E-01
         -2   -1    0    0    0  501 -0.00000000000E+00  0.00000000000E+00  0.34622411774E+03  0.34622411774E+03  0.00000000000E+00 0.  1.
          2   -1    0    0  501    0  0.00000000000E+00 -0.00000000000E+00 -0.26680831321E+04  0.26680831321E+04  0.00000000000E+00 0. -1.
         23    2    1    2    0    0 -0.54483110501E+03 -0.51297435050E+03 -0.95565686062E+03  0.12172347282E+04  0.91633678265E+02 0.  0.
        254    2    1    2    0    0  0.54483110501E+03  0.51297435050E+03 -0.13662021537E+04  0.17970725217E+04  0.89609023316E+03 0.  0.
         23    2    4    4    0    0  0.39989674687E+02  0.33371800143E+03 -0.11680051849E+04  0.12187731200E+04  0.90581054746E+02 0.  0.
         23    2    4    4    0    0  0.50484143033E+03  0.17925634906E+03 -0.19819696883E+03  0.57829940167E+03  0.90279848598E+02 0.  0.
          4    1    3    3  502    0 -0.19410560375E+03 -0.15617140388E+03 -0.25722934575E+03  0.35809695490E+03  0.00000000000E+00 0. -1.
         -4    1    3    3    0  502 -0.35072550127E+03 -0.35680294662E+03 -0.69842751487E+03  0.85913777328E+03  0.00000000000E+00 0.  1.
         11    1    5    5    0    0  0.26001177394E+01 -0.11638311666E+01  0.28182813495E+00  0.28626111054E+01  0.00000000000E+00 0.  1.
        -11    1    5    5    0    0  0.37389556947E+02  0.33488183260E+03 -0.11682870130E+04  0.12159105089E+04  0.00000000000E+00 0. -1.
          1    1    6    6  503    0  0.48679576053E+03  0.18528432422E+03 -0.20241218117E+03  0.55881220849E+03  0.00000000000E+00 0. -1.
         -1    1    6    6    0  503  0.18045669797E+02 -0.60279751564E+01  0.42152123401E+01  0.19487193178E+02  0.00000000000E+00 0.  1.
<mgrwt>
<rscale>  0 0.19222432E+04</rscale>
<asrwt>0</asrwt>
<pdfrwt beam="1">  1        2 0.41047433E+00 0.19222432E+04</pdfrwt>
<pdfrwt beam="2">  1       -2 0.53265249E-01 0.19222432E+04</pdfrwt>
<totfact> 0.86292717E+00</totfact>
</mgrwt>
</event>
<event>
12    2  0.3518828E-008  0.1829488E+04  0.7818608E-02  0.8690773E-01
         -1   -1    0    0    0  501 -0.00000000000E+00  0.00000000000E+00  0.12301212537E+04  0.12301212537E+04  0.00000000000E+00 0.  1.
          1   -1    0    0  501    0  0.00000000000E+00 -0.00000000000E+00 -0.68022291155E+03  0.68022291155E+03  0.00000000000E+00 0. -1.
         23    2    1    2    0    0 -0.61916585938E+03  0.25748606439E+03  0.39098296570E+03  0.78155031466E+03  0.91037245642E+02 0.  0.
        254    2    1    2    0    0  0.61916585938E+03 -0.25748606439E+03  0.15891537643E+03  0.11287938506E+04  0.89401119985E+03 0.  0.
         23    2    4    4    0    0  0.76892162778E+03 -0.67042935444E+02  0.29707094037E+03  0.83212713800E+03  0.91919558989E+02 0.  0.
         23    2    4    4    0    0 -0.14975576840E+03 -0.19044312894E+03 -0.13815556394E+03  0.29666671258E+03  0.10113754482E+03 0.  0.
          4    1    3    3  502    0 -0.16420028162E+03  0.82926394429E+02  0.64257900976E+02  0.19485275778E+03  0.00000000000E+00 0. -1.
         -4    1    3    3    0  502 -0.45496557776E+03  0.17455966996E+03  0.32672506473E+03  0.58669755688E+03  0.00000000000E+00 0.  1.
         11    1    5    5    0    0  0.40370276459E+03 -0.27843004133E+02  0.10710817022E+03  0.41859684082E+03  0.00000000000E+00 0.  1.
        -11    1    5    5    0    0  0.36521886320E+03 -0.39199931312E+02  0.18996277014E+03  0.41353029718E+03  0.00000000000E+00 0. -1.
          2    1    6    6  503    0 -0.37784331585E+02 -0.78584209188E+02 -0.10223567584E+03  0.13436988897E+03  0.00000000000E+00 0. -1.
         -2    1    6    6    0  503 -0.11197143682E+03 -0.11185891976E+03 -0.35919888095E+02  0.16229682361E+03  0.00000000000E+00 0.  1.
<mgrwt>
<rscale>  0 0.18294881E+04</rscale>
<asrwt>0</asrwt>
<pdfrwt beam="1">  1        1 0.10464968E+00 0.18294881E+04</pdfrwt>
<pdfrwt beam="2">  1       -1 0.18924942E+00 0.18294881E+04</pdfrwt>
<totfact> 0.47895119E+00</totfact>
</mgrwt>
</event>
<event>
12    2  0.3518828E-008  0.1418024E+04  0.7818608E-02  0.8940875E-01
         -2   -1    0    0    0  501 -0.00000000000E+00  0.00000000000E+00  0.16512808335E+03  0.16512808335E+03  0.00000000000E+00 0.  1.
          2   -1    0    0  501    0  0.00000000000E+00 -0.00000000000E+00 -0.30442896130E+04  0.30442896130E+04  0.00000000000E+00 0. -1.
         23    2    1    2    0    0  0.60455135555E+02 -0.13311071547E+03 -0.17381846465E+04  0.17465415217E+04  0.88023495972E+02 0.  0.
        254    2    1    2    0    0 -0.60455135555E+02  0.13311071547E+03 -0.11409768832E+04  0.14628761747E+04  0.90377274156E+03 0.  0.
         23    2    4    4    0    0 -0.35457392002E+03  0.23951112756E+03 -0.10290392094E+04  0.11186752032E+04  0.97078683551E+02 0.  0.
         23    2    4    4    0    0  0.29411878447E+03 -0.10640041209E+03 -0.11193767381E+03  0.34420097145E+03  0.90096386515E+02 0.  0.
          3    1    3    3  502    0  0.74147796025E+02 -0.75989119177E+02 -0.13182520130E+04  0.13225205525E+04  0.00000000000E+00 0. -1.
         -3    1    3    3    0  502 -0.13692660470E+02 -0.57121596297E+02 -0.41993263347E+03  0.42402096925E+03  0.00000000000E+00 0.  1.
         11    1    5    5    0    0 -0.33112044953E+03  0.22880865946E+03 -0.88334232460E+03  0.97071510608E+03  0.00000000000E+00 0. -1.
        -11    1    5    5    0    0 -0.23453470489E+02  0.10702468107E+02 -0.14569688479E+03  0.14796009712E+03  0.00000000000E+00 0.  1.
          4    1    6    6  503    0  0.22933784870E+02 -0.26226224365E+02  0.99957870235E+01  0.36244849166E+02  0.00000000000E+00 0.  1.
         -4    1    6    6    0  503  0.27118499960E+03 -0.80174187724E+02 -0.12193346083E+03  0.30795612229E+03  0.00000000000E+00 0. -1.
<mgrwt>
<rscale>  0 0.14180236E+04</rscale>
<asrwt>0</asrwt>
<pdfrwt beam="1">  1        2 0.46835223E+00 0.14180236E+04</pdfrwt>
<pdfrwt beam="2">  1       -2 0.25404321E-01 0.14180236E+04</pdfrwt>
<totfact> 0.22323602E+01</totfact>
</mgrwt>
</event>
<event>
12    2  0.3715883E-008  0.2905820E+04  0.7818608E-02  0.8271148E-01
         -1   -1    0    0    0  501 -0.00000000000E+00  0.00000000000E+00  0.13745827765E+04  0.13745827765E+04  0.00000000000E+00 0.  1.
          1   -1    0    0  501    0  0.00000000000E+00 -0.00000000000E+00 -0.15357001596E+04  0.15357001596E+04  0.00000000000E+00 0. -1.
         23    2    1    2    0    0  0.60985394538E+02 -0.56727574480E+03  0.11073434330E+04  0.12488999221E+04  0.89557510862E+02 0.  0.
        254    2    1    2    0    0 -0.60985394538E+02  0.56727574480E+03 -0.12684608161E+04  0.16613830140E+04  0.90866918531E+03 0.  0.
         23    2    4    4    0    0  0.15771274030E+03 -0.15771326285E+03 -0.59698453190E+03  0.64519553323E+03  0.10069738347E+03 0.  0.
         23    2    4    4    0    0 -0.21869813484E+03  0.72498900765E+03 -0.67147628418E+03  0.10161874808E+04  0.91206691005E+02 0.  0.
          1    1    3    3  502    0  0.34269617917E+02 -0.56916865997E+02  0.13186085884E+03  0.14765237025E+03  0.00000000000E+00 0. -1.
         -1    1    3    3    0  502  0.26715776621E+02 -0.51035887880E+03  0.97548257418E+03  0.11012475518E+04  0.00000000000E+00 0.  1.
         11    1    5    5    0    0  0.16564580351E+03 -0.16467931909E+03 -0.56069768529E+03  0.60740407033E+03  0.00000000000E+00 0.  1.
        -11    1    5    5    0    0 -0.79330632162E+01  0.69660562371E+01 -0.36286846614E+02  0.37791462907E+02  0.00000000000E+00 0. -1.
          2    1    6    6  503    0 -0.17732351344E+02  0.24283331349E+02 -0.95617143902E+01  0.31552224131E+02  0.00000000000E+00 0. -1.
         -2    1    6    6    0  503 -0.20096578349E+03  0.70070567630E+03 -0.66191456979E+03  0.98463525665E+03  0.00000000000E+00 0.  1.
<mgrwt>
<rscale>  0 0.29058197E+04</rscale>
<asrwt>0</asrwt>
<pdfrwt beam="1">  1        1 0.23626156E+00 0.29058197E+04</pdfrwt>
<pdfrwt beam="2">  1       -1 0.21147427E+00 0.29058197E+04</pdfrwt>
<totfact> 0.66608499E-01</totfact>
</mgrwt>
</event>
<event>
12    2  0.3518828E-008  0.1092323E+04  0.7818608E-02  0.9212707E-01
         -1   -1    0    0    0  501 -0.00000000000E+00  0.00000000000E+00  0.95300243103E+03  0.95300243103E+03  0.00000000000E+00 0.  1.
          1   -1    0    0  501    0  0.00000000000E+00 -0.00000000000E+00 -0.31300292318E+03  0.31300292318E+03  0.00000000000E+00 0. -1.
         23    2    1    2    0    0  0.15753560764E+03  0.25499051127E+01  0.13994484292E+03  0.22973700273E+03  0.91490773713E+02 0.  0.
        254    2    1    2    0    0 -0.15753560764E+03 -0.25499051127E+01  0.50005466492E+03  0.10362683515E+04  0.89385315275E+03 0.  0.
         23    2    4    4    0    0  0.34890166557E+03  0.43604267686E+02  0.33474972793E+03  0.49373861420E+03  0.89926272093E+02 0.  0.
         23    2    4    4    0    0 -0.50643727320E+03 -0.46154172798E+02  0.16530493700E+03  0.54252973728E+03  0.91672647381E+02 0.  0.
          4    1    3    3  502    0  0.54979031364E+02 -0.15300415266E+02  0.22393095411E+01  0.57112267546E+02  0.00000000000E+00 0. -1.
         -4    1    3    3    0  502  0.10255657627E+03  0.17850320378E+02  0.13770553338E+03  0.17262473519E+03  0.00000000000E+00 0.  1.
         11    1    5    5    0    0  0.16917184723E+01  0.37174208829E+01  0.29283532470E+02  0.29566981641E+02  0.00000000000E+00 0.  1.
        -11    1    5    5    0    0  0.34720994709E+03  0.39886846803E+02  0.30546619546E+03  0.46417163256E+03  0.00000000000E+00 0. -1.
          3    1    6    6  503    0 -0.40503119582E+03 -0.35991304877E+01  0.14780765324E+03  0.43117319685E+03  0.00000000000E+00 0. -1.
         -3    1    6    6    0  503 -0.10140607739E+03 -0.42555042311E+02  0.17497283754E+02  0.11135654043E+03  0.00000000000E+00 0.  1.
<mgrwt>
<rscale>  0 0.10923233E+04</rscale>
<asrwt>0</asrwt>
<pdfrwt beam="1">  1        1 0.48154296E-01 0.10923233E+04</pdfrwt>
<pdfrwt beam="2">  1       -1 0.14661576E+00 0.10923233E+04</pdfrwt>
<totfact> 0.30678683E+01</totfact>
</mgrwt>
</event>
<event>
12    2  0.3518828E-008  0.1451064E+04  0.7818608E-02  0.8917663E-01
          2   -1    0    0  501    0  0.00000000000E+00  0.00000000000E+00  0.88650328885E+03  0.88650328885E+03  0.00000000000E+00 0. -1.
         -2   -1    0    0    0  501 -0.00000000000E+00 -0.00000000000E+00 -0.59379019929E+03  0.59379019929E+03  0.00000000000E+00 0.  1.
         23    2    1    2    0    0  0.35502200154E+03 -0.24140944640E+03  0.68377124429E+02  0.44429453250E+03  0.91668195570E+02 0.  0.
        254    2    1    2    0    0 -0.35502200154E+03  0.24140944640E+03  0.22433596513E+03  0.10359989556E+04  0.91577730286E+03 0.  0.
         23    2    4    4    0    0 -0.47874314214E+03  0.15534744825E+03  0.49519298484E+03  0.71190041944E+03  0.90875129356E+02 0.  0.
         23    2    4    4    0    0  0.12372114060E+03  0.86061998152E+02 -0.27085701972E+03  0.32409853620E+03  0.94671790295E+02 0.  0.
          4    1    3    3  502    0  0.18479292391E+03 -0.10576193821E+03  0.77118705605E+02  0.22645376362E+03  0.00000000000E+00 0. -1.
         -4    1    3    3    0  502  0.17022907763E+03 -0.13564750819E+03 -0.87415811754E+01  0.21784076889E+03  0.00000000000E+00 0.  1.
         11    1    5    5    0    0 -0.37841421294E+02  0.23847870113E+02  0.15787172222E+02  0.47433415239E+02  0.00000000000E+00 0. -1.
        -11    1    5    5    0    0 -0.44090172084E+03  0.13149957813E+03  0.47940581262E+03  0.66446700420E+03  0.00000000000E+00 0.  1.
          3    1    6    6  503    0  0.91121734492E+02  0.80117318871E+01 -0.16433777087E+03  0.18808046491E+03  0.00000000000E+00 0. -1.
         -3    1    6    6    0  503  0.32599406107E+02  0.78050266265E+02 -0.10651924884E+03  0.13601807129E+03  0.00000000000E+00 0.  1.
<mgrwt>
<rscale>  0 0.14510644E+04</rscale>
<asrwt>0</asrwt>
<pdfrwt beam="1">  1        2 0.13638512E+00 0.14510644E+04</pdfrwt>
<pdfrwt beam="2">  1       -2 0.91352338E-01 0.14510644E+04</pdfrwt>
<totfact> 0.29658004E+01</totfact>
</mgrwt>
</event>
<event>
12    2  0.3518828E-008  0.1439058E+04  0.7818608E-02  0.8926022E-01
         -1   -1    0    0    0  501 -0.00000000000E+00  0.00000000000E+00  0.51723275356E+03  0.51723275356E+03  0.00000000000E+00 0. -1.
          1   -1    0    0  501    0  0.00000000000E+00 -0.00000000000E+00 -0.10009456822E+04  0.10009456822E+04  0.00000000000E+00 0.  1.
         23    2    1    2    0    0  0.51497262531E+02 -0.36936139904E+03 -0.18200709562E+03  0.42433572572E+03  0.88625132528E+02 0.  0.
        254    2    1    2    0    0 -0.51497262531E+02  0.36936139904E+03 -0.30170583298E+03  0.10938427100E+04  0.98304916125E+03 0.  0.
         23    2    4    4    0    0  0.24299539335E+03  0.47285538012E+03 -0.48082747298E+03  0.72262046791E+03  0.91358142290E+02 0.  0.
         23    2    4    4    0    0 -0.29449265588E+03 -0.10349398108E+03  0.17912164000E+03  0.37122224210E+03  0.91019023422E+02 0.  0.
          3    1    3    3  502    0  0.39356389465E+02 -0.64517629665E+02 -0.16907324153E+02  0.77442285215E+02  0.00000000000E+00 0. -1.
         -3    1    3    3    0  502  0.12140873066E+02 -0.30484376938E+03 -0.16509977147E+03  0.34689344050E+03  0.00000000000E+00 0.  1.
         11    1    5    5    0    0 -0.53750676684E+00 -0.30857272864E+01  0.58440012810E+00  0.31862438576E+01  0.00000000000E+00 0.  1.
        -11    1    5    5    0    0  0.24353290012E+03  0.47594110741E+03 -0.48141187311E+03  0.71943422405E+03  0.00000000000E+00 0. -1.
          4    1    6    6  503    0 -0.15623439211E+03 -0.50780281363E+02  0.14557813054E+03  0.21950128552E+03  0.00000000000E+00 0. -1.
         -4    1    6    6    0  503 -0.13825826377E+03 -0.52713699719E+02  0.33543509462E+02  0.15172095658E+03  0.00000000000E+00 0.  1.
<mgrwt>
<rscale>  0 0.14390579E+04</rscale>
<asrwt>0</asrwt>
<pdfrwt beam="1">  1        1 0.15399164E+00 0.14390579E+04</pdfrwt>
<pdfrwt beam="2">  1       -1 0.79574270E-01 0.14390579E+04</pdfrwt>
<totfact> 0.23171976E+01</totfact>
</mgrwt>
</event>
<event>
12    2  0.3518828E-008  0.1989187E+04  0.7818608E-02  0.8611693E-01
         -1   -1    0    0    0  501 -0.00000000000E+00  0.00000000000E+00  0.11365610517E+04  0.11365610517E+04  0.00000000000E+00 0.  1.
          1   -1    0    0  501    0  0.00000000000E+00 -0.00000000000E+00 -0.87035928182E+03  0.87035928182E+03  0.00000000000E+00 0. -1.
         23    2    1    2    0    0 -0.71093020480E+03  0.20311968626E+03 -0.15175956864E+03  0.76009772735E+03  0.89656150976E+02 0.  0.
        254    2    1    2    0    0  0.71093020480E+03 -0.20311968626E+03  0.41796133850E+03  0.12468226061E+04  0.91279546868E+03 0.  0.
         23    2    4    4    0    0  0.74510892900E+03  0.14212513232E+03  0.10439532897E+03  0.77095194354E+03  0.89897971165E+02 0.  0.
         23    2    4    4    0    0 -0.34178724207E+02 -0.34524481858E+03  0.31356600953E+03  0.47587066259E+03  0.88131011786E+02 0.  0.
          2    1    3    3  502    0 -0.41648892528E+03  0.10011928484E+03 -0.12888331663E+03  0.44732293187E+03  0.00000000000E+00 0. -1.
         -2    1    3    3    0  502 -0.29444127952E+03  0.10300040142E+03 -0.22876252012E+02  0.31277479548E+03  0.00000000000E+00 0.  1.
         11    1    5    5    0    0  0.42025272550E+03  0.34945474734E+02  0.62735495607E+02  0.42634408862E+03  0.00000000000E+00 0. -1.
        -11    1    5    5    0    0  0.32485620351E+03  0.10717965758E+03  0.41659833359E+02  0.34460785492E+03  0.00000000000E+00 0.  1.
          3    1    6    6  503    0 -0.13849379003E+02 -0.74554474707E+01  0.31974057805E+02  0.35633262105E+02  0.00000000000E+00 0. -1.
         -3    1    6    6    0  503 -0.20329345204E+02 -0.33778937111E+03  0.28159195172E+03  0.44023740049E+03  0.00000000000E+00 0.  1.
<mgrwt>
<rscale>  0 0.19891872E+04</rscale>
<asrwt>0</asrwt>
<pdfrwt beam="1">  1        1 0.13390143E+00 0.19891872E+04</pdfrwt>
<pdfrwt beam="2">  1       -1 0.17485555E+00 0.19891872E+04</pdfrwt>
<totfact> 0.40535262E+00</totfact>
</mgrwt>
</event>
<event>
12    2  0.3518828E-008  0.1762604E+04  0.7818608E-02  0.8726443E-01
         -1   -1    0    0    0  501 -0.00000000000E+00  0.00000000000E+00  0.56651444211E+03  0.56651444211E+03  0.00000000000E+00 0.  1.
          1   -1    0    0  501    0  0.00000000000E+00 -0.00000000000E+00 -0.13710031832E+04  0.13710031832E+04  0.00000000000E+00 0. -1.
         23    2    1    2    0    0  0.31356408652E+03  0.52006012339E+03 -0.11739709618E+03  0.62519740010E+03  0.91130360443E+02 0.  0.
        254    2    1    2    0    0 -0.31356408652E+03 -0.52006012339E+03 -0.68709164494E+03  0.13123202252E+04  0.93877818292E+03 0.  0.
         23    2    4    4    0    0 -0.29141343302E+03 -0.48160030761E+02  0.15240691967E+03  0.34468122810E+03  0.91302258088E+02 0.  0.
         23    2    4    4    0    0 -0.22150653499E+02 -0.47190009263E+03 -0.83949856461E+03  0.96763899714E+03  0.91580783613E+02 0.  0.
          1    1    3    3  502    0  0.14438271408E+03  0.30262641038E+03 -0.96461870967E+02  0.34890400532E+03  0.00000000000E+00 0. -1.
         -1    1    3    3    0  502  0.16918137245E+03  0.21743371302E+03 -0.20935225209E+02  0.27629339477E+03  0.00000000000E+00 0.  1.
         11    1    5    5    0    0 -0.85876070017E+02 -0.57479097738E+02  0.47501164611E+02  0.11373173136E+03  0.00000000000E+00 0. -1.
        -11    1    5    5    0    0 -0.20553736301E+03  0.93190669767E+01  0.10490575506E+03  0.23094949674E+03  0.00000000000E+00 0.  1.
          3    1    6    6  503    0  0.57778420025E+00 -0.38953139359E+00  0.23612622770E+01  0.24619359921E+01  0.00000000000E+00 0. -1.
         -3    1    6    6    0  503 -0.22728437699E+02 -0.47151056124E+03 -0.84185982689E+03  0.96517706115E+03  0.00000000000E+00 0.  1.
<mgrwt>
<rscale>  0 0.17626039E+04</rscale>
<asrwt>0</asrwt>
<pdfrwt beam="1">  1        1 0.21092357E+00 0.17626039E+04</pdfrwt>
<pdfrwt beam="2">  1       -1 0.87156068E-01 0.17626039E+04</pdfrwt>
<totfact> 0.98821587E+00</totfact>
</mgrwt>
</event>
<event>
12    2  0.3518828E-008  0.1564756E+04  0.7818608E-02  0.8842497E-01
         -2   -1    0    0    0  501 -0.00000000000E+00  0.00000000000E+00  0.52091674345E+03  0.52091674345E+03  0.00000000000E+00 0.  1.
          2   -1    0    0  501    0  0.00000000000E+00 -0.00000000000E+00 -0.11750734268E+04  0.11750734268E+04  0.00000000000E+00 0. -1.
         23    2    1    2    0    0 -0.52631508467E+03  0.15309520306E+02 -0.18222731547E+03  0.56453208855E+03  0.90817039909E+02 0.  0.
        254    2    1    2    0    0  0.52631508467E+03 -0.15309520306E+02 -0.47192936783E+03  0.11314580817E+04  0.88331088104E+03 0.  0.
         23    2    4    4    0    0  0.49408744587E+03  0.14307977315E+03  0.98471853558E+02  0.53167906694E+03  0.91606214984E+02 0.  0.
         23    2    4    4    0    0  0.32227638801E+02 -0.15838929346E+03 -0.57040122139E+03  0.59977901472E+03  0.90837900396E+02 0.  0.
          1    1    3    3  502    0 -0.30306665516E+03  0.31282376037E+02 -0.14580879790E+03  0.33776943329E+03  0.00000000000E+00 0. -1.
         -1    1    3    3    0  502 -0.22324842952E+03 -0.15972855730E+02 -0.36418517568E+02  0.22676265527E+03  0.00000000000E+00 0.  1.
         11    1    5    5    0    0  0.10540521609E+03  0.51957884209E+02  0.56090113582E+02  0.13021513795E+03  0.00000000000E+00 0. -1.
        -11    1    5    5    0    0  0.38868222978E+03  0.91121888945E+02  0.42381739976E+02  0.40146392898E+03  0.00000000000E+00 0.  1.
          1    1    6    6  503    0  0.23807776007E+02 -0.90386623170E+00 -0.41364793861E+02  0.47735451645E+02  0.00000000000E+00 0. -1.
         -1    1    6    6    0  503  0.84198627941E+01 -0.15748542723E+03 -0.52903642753E+03  0.55204356308E+03  0.00000000000E+00 0.  1.
<mgrwt>
<rscale>  0 0.15647561E+04</rscale>
<asrwt>0</asrwt>
<pdfrwt beam="1">  1        2 0.18078052E+00 0.15647561E+04</pdfrwt>
<pdfrwt beam="2">  1       -2 0.80141039E-01 0.15647561E+04</pdfrwt>
<totfact> 0.25957707E+01</totfact>
</mgrwt>
</event>
<event>
12    2  0.3518828E-008  0.1695916E+04  0.7818608E-02  0.8763697E-01
         -2   -1    0    0    0  501 -0.00000000000E+00  0.00000000000E+00  0.63565020093E+03  0.63565020093E+03  0.00000000000E+00 0. -1.
          2   -1    0    0  501    0  0.00000000000E+00 -0.00000000000E+00 -0.11311766058E+04  0.11311766058E+04  0.00000000000E+00 0.  1.
         23    2    1    2    0    0  0.46831940628E+03  0.24898260893E+03 -0.48928401473E+03  0.72753979510E+03  0.92735648679E+02 0.  0.
        254    2    1    2    0    0 -0.46831940628E+03 -0.24898260893E+03 -0.62423901510E+01  0.10392870116E+04  0.89373548619E+03 0.  0.
         23    2    4    4    0    0  0.20187676117E+03 -0.24291260676E+03  0.12107354498E+03  0.35110100823E+03  0.94086946294E+02 0.  0.
         23    2    4    4    0    0 -0.67019616745E+03 -0.60700021698E+01 -0.12731593513E+03  0.68818600341E+03  0.90503481529E+02 0.  0.
          1    1    3    3  502    0  0.16314972815E+03  0.13569203914E+03 -0.21154120097E+03  0.29963284698E+03  0.00000000000E+00 0. -1.
         -1    1    3    3    0  502  0.30516967813E+03  0.11329056978E+03 -0.27774281377E+03  0.42790694812E+03  0.00000000000E+00 0.  1.
         11    1    5    5    0    0  0.35377694333E+02 -0.60527331932E+02 -0.11130844636E+02  0.70986159703E+02  0.00000000000E+00 0. -1.
        -11    1    5    5    0    0  0.16649906683E+03 -0.18238527482E+03  0.13220438962E+03  0.28011484852E+03  0.00000000000E+00 0.  1.
          3    1    6    6  503    0 -0.52449683153E+02  0.21085614705E+02  0.15795726433E+01  0.56551458514E+02  0.00000000000E+00 0. -1.
         -3    1    6    6    0  503 -0.61774648429E+03 -0.27155616875E+02 -0.12889550777E+03  0.63163454490E+03  0.00000000000E+00 0.  1.
<mgrwt>
<rscale>  0 0.16959158E+04</rscale>
<asrwt>0</asrwt>
<pdfrwt beam="1">  1        2 0.17402717E+00 0.16959158E+04</pdfrwt>
<pdfrwt beam="2">  1       -2 0.97792339E-01 0.16959158E+04</pdfrwt>
<totfact> 0.17280495E+01</totfact>
</mgrwt>
</event>
<event>
12    2  0.3518828E-008  0.1770263E+04  0.7818608E-02  0.8722275E-01
          2   -1    0    0  501    0  0.00000000000E+00  0.00000000000E+00  0.16907504609E+04  0.16907504609E+04  0.00000000000E+00 0.  1.
         -2   -1    0    0    0  501 -0.00000000000E+00 -0.00000000000E+00 -0.46337897293E+03  0.46337897293E+03  0.00000000000E+00 0. -1.
         23    2    1    2    0    0 -0.46777071440E+03 -0.89141706369E+02  0.10083372188E+04  0.11192592734E+04  0.96133705447E+02 0.  0.
        254    2    1    2    0    0  0.46777071440E+03  0.89141706369E+02  0.21903426921E+03  0.10348701604E+04  0.89231415588E+03 0.  0.
         23    2    4    4    0    0 -0.32137726355E+02 -0.24539050251E+03  0.32198374484E+03  0.41793957435E+03  0.98745246398E+02 0.  0.
         23    2    4    4    0    0  0.49990844076E+03  0.33453220888E+03 -0.10294947563E+03  0.61693058608E+03  0.90468257313E+02 0.  0.
          2    1    3    3  502    0 -0.41071851574E+03 -0.66996815629E+02  0.79518109589E+03  0.89749164216E+03  0.00000000000E+00 0.  1.
         -2    1    3    3    0  502 -0.57052198665E+02 -0.22144890740E+02  0.21315612289E+03  0.22176763128E+03  0.00000000000E+00 0. -1.
         11    1    5    5    0    0 -0.19521924737E+02 -0.43843539504E+01  0.71464207091E+01  0.21246162805E+02  0.00000000000E+00 0.  1.
        -11    1    5    5    0    0 -0.12615801618E+02 -0.24100614856E+03  0.31483732413E+03  0.39669341154E+03  0.00000000000E+00 0. -1.
          1    1    6    6  503    0  0.39410869210E+03  0.21983567490E+03 -0.91593274408E+02  0.46047661511E+03  0.00000000000E+00 0.  1.
         -1    1    6    6    0  503  0.10579974866E+03  0.11469653399E+03 -0.11356201224E+02  0.15645397096E+03  0.00000000000E+00 0. -1.
<mgrwt>
<rscale>  0 0.17702635E+04</rscale>
<asrwt>0</asrwt>
<pdfrwt beam="1">  1        2 0.26011545E+00 0.17702635E+04</pdfrwt>
<pdfrwt beam="2">  1       -2 0.71289074E-01 0.17702635E+04</pdfrwt>
<totfact> 0.16771301E+01</totfact>
</mgrwt>
</event>
<event>
12    2  0.3518828E-008  0.1964240E+04  0.7818608E-02  0.8623524E-01
          2   -1    0    0  501    0  0.00000000000E+00  0.00000000000E+00  0.17468166794E+04  0.17468166794E+04  0.00000000000E+00 0.  1.
         -2   -1    0    0    0  501 -0.00000000000E+00 -0.00000000000E+00 -0.55218155899E+03  0.55218155899E+03  0.00000000000E+00 0. -1.
         23    2    1    2    0    0  0.35758722152E+03 -0.65673642824E+03  0.66442479723E+03  0.10044239046E+04  0.90750822460E+02 0.  0.
        254    2    1    2    0    0 -0.35758722152E+03  0.65673642824E+03  0.53021032318E+03  0.12945743338E+04  0.91412710373E+03 0.  0.
         23    2    4    4    0    0  0.14047867453E+02  0.57603209715E+03 -0.59254639461E+02  0.58692601671E+03  0.94661065196E+02 0.  0.
         23    2    4    4    0    0 -0.37163508898E+03  0.80704331086E+02  0.58946496264E+03  0.70764831709E+03  0.93120191625E+02 0.  0.
          3    1    3    3  502    0  0.35459131039E+03 -0.61268697405E+03  0.63795186113E+03  0.95294433347E+03  0.00000000000E+00 0. -1.
         -3    1    3    3    0  502  0.29959111382E+01 -0.44049454182E+02  0.26472936104E+02  0.51479571125E+02  0.00000000000E+00 0.  1.
         11    1    5    5    0    0  0.27466985609E+02  0.55049007501E+03 -0.71089705131E+02  0.55574050073E+03  0.00000000000E+00 0.  1.
        -11    1    5    5    0    0 -0.13419118155E+02  0.25542022144E+02  0.11835065670E+02  0.31185515975E+02  0.00000000000E+00 0. -1.
          4    1    6    6  503    0 -0.33632215618E+03  0.64370542061E+02  0.46658174933E+03  0.57875270041E+03  0.00000000000E+00 0.  1.
         -4    1    6    6    0  503 -0.35312932797E+02  0.16333789025E+02  0.12288321331E+03  0.12889561669E+03  0.00000000000E+00 0. -1.
<mgrwt>
<rscale>  0 0.19642403E+04</rscale>
<asrwt>0</asrwt>
<pdfrwt beam="1">  1        2 0.26874102E+00 0.19642403E+04</pdfrwt>
<pdfrwt beam="2">  1       -2 0.84951010E-01 0.19642403E+04</pdfrwt>
<totfact> 0.10382304E+01</totfact>
</mgrwt>
</event>
<event>
12    2  0.3518828E-008  0.1555334E+04  0.7818608E-02  0.8848468E-01
          2   -1    0    0  501    0  0.00000000000E+00  0.00000000000E+00  0.31313457275E+04  0.31313457275E+04  0.00000000000E+00 0. -1.
         -2   -1    0    0    0  501 -0.00000000000E+00 -0.00000000000E+00 -0.19313296012E+03  0.19313296012E+03  0.00000000000E+00 0.  1.
         23    2    1    2    0    0 -0.31071153914E+03 -0.23375611943E+03  0.16873754509E+04  0.17339262549E+04  0.89893052720E+02 0.  0.
        254    2    1    2    0    0  0.31071153914E+03  0.23375611943E+03  0.12508373164E+04  0.15905524327E+04  0.90226352316E+03 0.  0.
         23    2    4    4    0    0  0.17174068903E+03  0.34246897242E+03  0.13233018199E+04  0.13806545569E+04  0.91101249434E+02 0.  0.
         23    2    4    4    0    0  0.13897085011E+03 -0.10871285299E+03 -0.72464503451E+02  0.20989787585E+03  0.87604979553E+02 0.  0.
          2    1    3    3  502    0 -0.24956946799E+03 -0.19405118392E+03  0.14981806051E+04  0.15311714166E+04  0.00000000000E+00 0. -1.
         -2    1    3    3    0  502 -0.61142071151E+02 -0.39704935510E+02  0.18919484581E+03  0.20275483829E+03  0.00000000000E+00 0.  1.
         11    1    5    5    0    0  0.30242918751E+02  0.15920071191E+03  0.56753672415E+03  0.59021812414E+03  0.00000000000E+00 0. -1.
        -11    1    5    5    0    0  0.14149777028E+03  0.18326826051E+03  0.75576509571E+03  0.79043643273E+03  0.00000000000E+00 0.  1.
          1    1    6    6  503    0  0.93649449404E+02 -0.34461151717E+02 -0.51807640478E+01  0.99923123788E+02  0.00000000000E+00 0. -1.
         -1    1    6    6    0  503  0.45321400703E+02 -0.74251701274E+02 -0.67283739403E+02  0.10997475207E+03  0.00000000000E+00 0.  1.
<mgrwt>
<rscale>  0 0.15553341E+04</rscale>
<asrwt>0</asrwt>
<pdfrwt beam="1">  1        2 0.48174546E+00 0.15553341E+04</pdfrwt>
<pdfrwt beam="2">  1       -2 0.29712765E-01 0.15553341E+04</pdfrwt>
<totfact> 0.14548289E+01</totfact>
</mgrwt>
</event>
<event>
12    2  0.3518828E-008  0.2560837E+04  0.7818608E-02  0.8381627E-01
         -3   -1    0    0    0  501 -0.00000000000E+00  0.00000000000E+00  0.76133827160E+03  0.76133827160E+03  0.00000000000E+00 0.  1.
          3   -1    0    0  501    0  0.00000000000E+00 -0.00000000000E+00 -0.21534082843E+04  0.21534082843E+04  0.00000000000E+00 0. -1.
         23    2    1    2    0    0 -0.77604643576E+03 -0.78725367316E+03 -0.10919571004E+04  0.15562429311E+04  0.86633336181E+02 0.  0.
        254    2    1    2    0    0  0.77604643576E+03  0.78725367316E+03 -0.30011291232E+03  0.13585036249E+04  0.73037519284E+03 0.  0.
         23    2    4    4    0    0 -0.10172306568E+03  0.22380114927E+03  0.20998672491E+02  0.26320887563E+03  0.91670232134E+02 0.  0.
         23    2    4    4    0    0  0.87776950144E+03  0.56345252389E+03 -0.32111158481E+03  0.10952947493E+04  0.92735610701E+02 0.  0.
          3    1    3    3  502    0 -0.84501836974E+02 -0.50824517882E+02 -0.96635429730E+02  0.13806555816E+03  0.00000000000E+00 0. -1.
         -3    1    3    3    0  502 -0.69154459879E+03 -0.73642915528E+03 -0.99532167069E+03  0.14181773729E+04  0.00000000000E+00 0.  1.
         11    1    5    5    0    0 -0.17730543292E+02  0.45880241259E+02  0.42869509515E+02  0.65246942836E+02  0.00000000000E+00 0.  1.
        -11    1    5    5    0    0 -0.83992522390E+02  0.17792090801E+03 -0.21870837024E+02  0.19796193279E+03  0.00000000000E+00 0. -1.
          3    1    6    6  503    0  0.60862978105E+03  0.33873176200E+03 -0.21499291994E+03  0.72896596121E+03  0.00000000000E+00 0. -1.
         -3    1    6    6    0  503  0.26913972039E+03  0.22472076189E+03 -0.10611866487E+03  0.36632878805E+03  0.00000000000E+00 0.  1.
<mgrwt>
<rscale>  0 0.25608375E+04</rscale>
<asrwt>0</asrwt>
<pdfrwt beam="1">  1        3 0.33129358E+00 0.25608375E+04</pdfrwt>
<pdfrwt beam="2">  1       -3 0.11712896E+00 0.25608375E+04</pdfrwt>
<totfact> 0.36121969E-02</totfact>
</mgrwt>
</event>
<event>
12    2  0.3518828E-008  0.1573146E+04  0.7818608E-02  0.8837217E-01
          2   -1    0    0  501    0  0.00000000000E+00  0.00000000000E+00  0.34444104141E+04  0.34444104141E+04  0.00000000000E+00 0. -1.
         -2   -1    0    0    0  501 -0.00000000000E+00 -0.00000000000E+00 -0.17962359149E+03  0.17962359149E+03  0.00000000000E+00 0.  1.
         23    2    1    2    0    0  0.55135389420E+02  0.98236251175E+02 -0.72736014597E+02  0.16211340732E+03  0.91104098703E+02 0.  0.
        254    2    1    2    0    0 -0.55135389420E+02 -0.98236251175E+02  0.33375228372E+04  0.34619205982E+04  0.91276791556E+03 0.  0.
         23    2    4    4    0    0  0.37772579710E+03 -0.23611307805E+03  0.15113923075E+04  0.15783217273E+04  0.91469143657E+02 0.  0.
         23    2    4    4    0    0 -0.43286118652E+03  0.13787682687E+03  0.18261305297E+04  0.18835988710E+04  0.82541923093E+02 0.  0.
          1    1    3    3  502    0  0.21900998434E+02 -0.14591572920E+02 -0.20765213446E+02  0.33522556915E+02  0.00000000000E+00 0. -1.
         -1    1    3    3    0  502  0.33234390986E+02  0.11282782410E+03 -0.51970801151E+02  0.12859085040E+03  0.00000000000E+00 0.  1.
         11    1    5    5    0    0  0.37228558477E+03 -0.24086294041E+03  0.14440489462E+04  0.15105922255E+04  0.00000000000E+00 0. -1.
        -11    1    5    5    0    0  0.54402123278E+01  0.47498623632E+01  0.67343361286E+02  0.67729501784E+02  0.00000000000E+00 0.  1.
          4    1    6    6  503    0 -0.72752759609E+02  0.56523261035E+01  0.20193609402E+03  0.21471632190E+03  0.00000000000E+00 0.  1.
         -4    1    6    6    0  503 -0.36010842691E+03  0.13222450077E+03  0.16241944357E+04  0.16688825491E+04  0.00000000000E+00 0. -1.
<mgrwt>
<rscale>  0 0.15731464E+04</rscale>
<asrwt>0</asrwt>
<pdfrwt beam="1">  1        2 0.52990925E+00 0.15731464E+04</pdfrwt>
<pdfrwt beam="2">  1       -2 0.27634401E-01 0.15731464E+04</pdfrwt>
<totfact> 0.10318593E+01</totfact>
</mgrwt>
</event>
<event>
12    2  0.3518828E-008  0.1740253E+04  0.7818608E-02  0.8738734E-01
         -1   -1    0    0    0  501 -0.00000000000E+00  0.00000000000E+00  0.22452037020E+03  0.22452037020E+03  0.00000000000E+00 0.  1.
          1   -1    0    0  501    0  0.00000000000E+00 -0.00000000000E+00 -0.33721675240E+04  0.33721675240E+04  0.00000000000E+00 0. -1.
         23    2    1    2    0    0 -0.26796126746E+03  0.55367366987E+03 -0.14941418410E+04  0.16179728859E+04  0.83777353194E+02 0.  0.
        254    2    1    2    0    0  0.26796126746E+03 -0.55367366987E+03 -0.16535053128E+04  0.19787150083E+04  0.89603319751E+03 0.  0.
         23    2    4    4    0    0 -0.31975514483E+02  0.12847403707E+03 -0.90132454990E+03  0.91568283587E+03  0.92526212122E+02 0.  0.
         23    2    4    4    0    0  0.29993678195E+03 -0.68214770694E+03 -0.75218076287E+03  0.10630321724E+04  0.94730841236E+02 0.  0.
          4    1    3    3  502    0 -0.12777263784E+03  0.26529094281E+03 -0.82490500345E+03  0.87588435084E+03  0.00000000000E+00 0.  1.
         -4    1    3    3    0  502 -0.14018862962E+03  0.28838272705E+03 -0.66923683755E+03  0.74208853506E+03  0.00000000000E+00 0. -1.
         11    1    5    5    0    0 -0.21730118912E+02  0.22273661896E+02 -0.59706624774E+02  0.67329006558E+02  0.00000000000E+00 0. -1.
        -11    1    5    5    0    0 -0.10245395571E+02  0.10620037517E+03 -0.84161792512E+03  0.84835382931E+03  0.00000000000E+00 0.  1.
          4    1    6    6  503    0  0.73199497345E+02 -0.27155672388E+03 -0.30719938192E+03  0.41650051735E+03  0.00000000000E+00 0. -1.
         -4    1    6    6    0  503  0.22673728460E+03 -0.41059098305E+03 -0.44498138095E+03  0.64653165505E+03  0.00000000000E+00 0.  1.
<mgrwt>
<rscale>  0 0.17402532E+04</rscale>
<asrwt>0</asrwt>
<pdfrwt beam="1">  1        1 0.51879494E+00 0.17402532E+04</pdfrwt>
<pdfrwt beam="2">  1       -1 0.34541599E-01 0.17402532E+04</pdfrwt>
<totfact> 0.23840891E+00</totfact>
</mgrwt>
</event>
<event>
12    2  0.3518828E-008  0.2199578E+04  0.7818608E-02  0.8518604E-01
          1   -1    0    0  501    0  0.00000000000E+00  0.00000000000E+00  0.78142590508E+03  0.78142590508E+03  0.00000000000E+00 0. -1.
         -1   -1    0    0    0  501 -0.00000000000E+00 -0.00000000000E+00 -0.15478568896E+04  0.15478568896E+04  0.00000000000E+00 0.  1.
         23    2    1    2    0    0  0.61333090185E+03  0.63971280150E+03 -0.57299941101E+03  0.10593612309E+04  0.92253069860E+02 0.  0.
        254    2    1    2    0    0 -0.61333090185E+03 -0.63971280150E+03 -0.19343157353E+03  0.12699215638E+04  0.88875066305E+03 0.  0.
         23    2    4    4    0    0 -0.41450574009E+03 -0.42165620420E+03 -0.54069339172E+03  0.80628448650E+03  0.90201808252E+02 0.  0.
         23    2    4    4    0    0 -0.19882516176E+03 -0.21805659730E+03  0.34726181819E+03  0.46363707732E+03  0.85372387367E+02 0.  0.
          1    1    3    3  502    0  0.60627640587E+03  0.63148746212E+03 -0.54976943661E+03  0.10337281696E+04  0.00000000000E+00 0. -1.
         -1    1    3    3    0  502  0.70544959816E+01  0.82253393793E+01 -0.23229974397E+02  0.25633061306E+02  0.00000000000E+00 0.  1.
         11    1    5    5    0    0 -0.28019297524E+03 -0.29920881235E+03 -0.42693811127E+03  0.59187005974E+03  0.00000000000E+00 0. -1.
        -11    1    5    5    0    0 -0.13431276485E+03 -0.12244739185E+03 -0.11375528045E+03  0.21441442676E+03  0.00000000000E+00 0.  1.
          2    1    6    6  503    0 -0.57962411976E+02 -0.10850662105E+03  0.99053021801E+02  0.15793932107E+03  0.00000000000E+00 0. -1.
         -2    1    6    6    0  503 -0.14086274978E+03 -0.10954997625E+03  0.24820879639E+03  0.30569775625E+03  0.00000000000E+00 0.  1.
<mgrwt>
<rscale>  0 0.21995777E+04</rscale>
<asrwt>0</asrwt>
<pdfrwt beam="1">  1        1 0.12021937E+00 0.21995777E+04</pdfrwt>
<pdfrwt beam="2">  1       -1 0.23813183E+00 0.21995777E+04</pdfrwt>
<totfact> 0.17455315E+00</totfact>
</mgrwt>
</event>
<event>
12    2  0.3518828E-008  0.1496689E+04  0.7818608E-02  0.8886657E-01
          1   -1    0    0  501    0  0.00000000000E+00  0.00000000000E+00  0.28467452217E+04  0.28467452217E+04  0.00000000000E+00 0. -1.
         -1   -1    0    0    0  501 -0.00000000000E+00 -0.00000000000E+00 -0.19672284901E+03  0.19672284901E+03  0.00000000000E+00 0.  1.
         23    2    1    2    0    0  0.28386765864E+03 -0.53075102228E+02  0.16300866929E+04  0.16579629471E+04  0.90888357159E+02 0.  0.
        254    2    1    2    0    0 -0.28386765864E+03  0.53075102228E+02  0.10199356798E+04  0.13855051236E+04  0.89216469476E+03 0.  0.
         23    2    4    4    0    0 -0.21406764733E+03 -0.16276568795E+03 -0.48793579835E+02  0.28918039360E+03  0.94482060737E+02 0.  0.
         23    2    4    4    0    0 -0.69800011305E+02  0.21584079018E+03  0.10687292596E+04  0.10963247300E+04  0.91029637972E+02 0.  0.
          4    1    3    3  502    0  0.27045827164E+03 -0.25446684098E+02  0.14882682882E+04  0.15128574645E+04  0.00000000000E+00 0. -1.
         -4    1    3    3    0  502  0.13409387000E+02 -0.27628418130E+02  0.14181840473E+03  0.14510548256E+03  0.00000000000E+00 0.  1.
         11    1    5    5    0    0  0.27238434026E+01 -0.31031204060E+02 -0.19320389029E+01  0.31210378444E+02  0.00000000000E+00 0.  1.
        -11    1    5    5    0    0 -0.21679149074E+03 -0.13173448389E+03 -0.46861540932E+02  0.25797001516E+03  0.00000000000E+00 0. -1.
          4    1    6    6  503    0 -0.53374189336E+02  0.21160742464E+03  0.10424347854E+04  0.10650337028E+04  0.00000000000E+00 0. -1.
         -4    1    6    6    0  503 -0.16425821969E+02  0.42333655384E+01  0.26294474268E+02  0.31291027279E+02  0.00000000000E+00 0.  1.
<mgrwt>
<rscale>  0 0.14966895E+04</rscale>
<asrwt>0</asrwt>
<pdfrwt beam="1">  1        1 0.43796077E+00 0.14966895E+04</pdfrwt>
<pdfrwt beam="2">  1       -1 0.30265056E-01 0.14966895E+04</pdfrwt>
<totfact> 0.75391785E+00</totfact>
</mgrwt>
</event>
<event>
12    2  0.3518828E-008  0.1261753E+04  0.7818608E-02  0.9060457E-01
         -1   -1    0    0    0  501 -0.00000000000E+00  0.00000000000E+00  0.51924367471E+03  0.51924367471E+03  0.00000000000E+00 0.  1.
          1   -1    0    0  501    0  0.00000000000E+00 -0.00000000000E+00 -0.76650977752E+03  0.76650977752E+03  0.00000000000E+00 0. -1.
         23    2    1    2    0    0 -0.64841749220E+02 -0.27450048494E+03  0.31383968386E+02  0.29808718453E+03  0.91192364980E+02 0.  0.
        254    2    1    2    0    0  0.64841749220E+02  0.27450048494E+03 -0.27865007119E+03  0.98766626770E+03  0.90459041865E+03 0.  0.
         23    2    4    4    0    0 -0.63583724294E+02 -0.31485533174E+02 -0.54304141792E+03  0.55371023120E+03  0.81650534378E+02 0.  0.
         23    2    4    4    0    0  0.12842547351E+03  0.30598601812E+03  0.26439134673E+03  0.43395603650E+03  0.91074210725E+02 0.  0.
          3    1    3    3  502    0 -0.16231677713E+02 -0.20681636111E+03 -0.41554884774E+01  0.20749395815E+03  0.00000000000E+00 0. -1.
         -3    1    3    3    0  502 -0.48610071506E+02 -0.67684123832E+02  0.35539456863E+02  0.90593226374E+02  0.00000000000E+00 0.  1.
         11    1    5    5    0    0 -0.60555205114E+02  0.94914254715E+01 -0.23174897617E+03  0.23971776734E+03  0.00000000000E+00 0.  1.
        -11    1    5    5    0    0 -0.30285191794E+01 -0.40976958645E+02 -0.31129244175E+03  0.31399246386E+03  0.00000000000E+00 0. -1.
          2    1    6    6  503    0  0.11294807161E+03  0.30242850747E+03  0.26557426631E+03  0.41803105140E+03  0.00000000000E+00 0. -1.
         -2    1    6    6    0  503  0.15477401905E+02  0.35575106451E+01 -0.11829195739E+01  0.15924985100E+02  0.00000000000E+00 0.  1.
<mgrwt>
<rscale>  0 0.12617533E+04</rscale>
<asrwt>0</asrwt>
<pdfrwt beam="1">  1        1 0.11792458E+00 0.12617533E+04</pdfrwt>
<pdfrwt beam="2">  1       -1 0.79883642E-01 0.12617533E+04</pdfrwt>
<totfact> 0.36507717E+01</totfact>
</mgrwt>
</event>
<event>
12    2  0.3518828E-008  0.1795668E+04  0.7818608E-02  0.8708607E-01
         -2   -1    0    0    0  501 -0.00000000000E+00  0.00000000000E+00  0.18421218384E+04  0.18421218384E+04  0.00000000000E+00 0.  1.
          2   -1    0    0  501    0  0.00000000000E+00 -0.00000000000E+00 -0.43759640463E+03  0.43759640463E+03  0.00000000000E+00 0. -1.
         23    2    1    2    0    0 -0.48376506409E+03  0.46581423683E+03  0.48063444543E+03  0.83104810963E+03  0.92843685462E+02 0.  0.
        254    2    1    2    0    0  0.48376506409E+03 -0.46581423683E+03  0.92389098834E+03  0.14486701334E+04  0.89109991392E+03 0.  0.
         23    2    4    4    0    0  0.52382383695E+02  0.72804309414E+02  0.70886571566E+03  0.72020878622E+03  0.90364325477E+02 0.  0.
         23    2    4    4    0    0  0.43138268039E+03 -0.53861854624E+03  0.21502527268E+03  0.72846134717E+03  0.90659313555E+02 0.  0.
          1    1    3    3  502    0 -0.72752648123E+02  0.59721682948E+02  0.10919684299E+03  0.14416510584E+03  0.00000000000E+00 0. -1.
         -1    1    3    3    0  502 -0.41101241596E+03  0.40609255388E+03  0.37143760243E+03  0.68688300379E+03  0.00000000000E+00 0.  1.
         11    1    5    5    0    0  0.28339846490E+02 -0.14674536630E+02  0.28256177996E+03  0.28435830992E+03  0.00000000000E+00 0.  1.
        -11    1    5    5    0    0  0.24042537206E+02  0.87478846043E+02  0.42630393570E+03  0.43585047631E+03  0.00000000000E+00 0. -1.
          4    1    6    6  503    0  0.69032522302E+02 -0.11832170469E+03  0.74843663945E+02  0.15609961233E+03  0.00000000000E+00 0. -1.
         -4    1    6    6    0  503  0.36235015809E+03 -0.42029684156E+03  0.14018160873E+03  0.57236173485E+03  0.00000000000E+00 0.  1.
<mgrwt>
<rscale>  0 0.17956680E+04</rscale>
<asrwt>0</asrwt>
<pdfrwt beam="1">  1        2 0.67322525E-01 0.17956680E+04</pdfrwt>
<pdfrwt beam="2">  1       -2 0.28340335E+00 0.17956680E+04</pdfrwt>
<totfact> 0.27254270E+00</totfact>
</mgrwt>
</event>
<event>
12    2  0.3518828E-008  0.1701258E+04  0.7818608E-02  0.8760647E-01
          2   -1    0    0  501    0  0.00000000000E+00  0.00000000000E+00  0.14072366301E+04  0.14072366301E+04  0.00000000000E+00 0. -1.
         -2   -1    0    0    0  501 -0.00000000000E+00 -0.00000000000E+00 -0.51417759401E+03  0.51417759401E+03  0.00000000000E+00 0.  1.
         23    2    1    2    0    0  0.64606487159E+02 -0.33768701588E+03 -0.24714532774E+03  0.43295983982E+03  0.90370852616E+02 0.  0.
        254    2    1    2    0    0 -0.64606487159E+02  0.33768701588E+03  0.11402043638E+04  0.14884543843E+04  0.89287397987E+03 0.  0.
         23    2    4    4    0    0  0.14080931292E+03  0.40882964024E+03  0.14664036920E+03  0.46724935953E+03  0.99245295898E+02 0.  0.
         23    2    4    4    0    0 -0.20541580008E+03 -0.71142624357E+02  0.99356399461E+03  0.10212050247E+04  0.91833366768E+02 0.  0.
          4    1    3    3  502    0  0.65616748202E+02 -0.11842548831E+03 -0.80052656416E+02  0.15728503338E+03  0.00000000000E+00 0. -1.
         -4    1    3    3    0  502 -0.10102610423E+01 -0.21926152758E+03 -0.16709267132E+03  0.27567480645E+03  0.00000000000E+00 0.  1.
         11    1    5    5    0    0  0.46573221359E+02  0.15953112210E+03  0.10736841094E+03  0.19785656303E+03  0.00000000000E+00 0. -1.
        -11    1    5    5    0    0  0.94236091563E+02  0.24929851814E+03  0.39271958255E+02  0.26939279649E+03  0.00000000000E+00 0.  1.
          4    1    6    6  503    0 -0.21363165521E+03 -0.60970884501E+02  0.95440173785E+03  0.97991765474E+03  0.00000000000E+00 0.  1.
         -4    1    6    6    0  503  0.82158551249E+01 -0.10171739855E+02  0.39162256762E+02  0.41287370004E+02  0.00000000000E+00 0. -1.
<mgrwt>
<rscale>  0 0.17012578E+04</rscale>
<asrwt>0</asrwt>
<pdfrwt beam="1">  1        2 0.21649794E+00 0.17012578E+04</pdfrwt>
<pdfrwt beam="2">  1       -2 0.79104246E-01 0.17012578E+04</pdfrwt>
<totfact> 0.19334724E+01</totfact>
</mgrwt>
</event>
<event>
12    2  0.3518828E-008  0.2078758E+04  0.7818608E-02  0.8570659E-01
         -1   -1    0    0    0  501 -0.00000000000E+00  0.00000000000E+00  0.15103717679E+04  0.15103717679E+04  0.00000000000E+00 0.  1.
          1   -1    0    0  501    0  0.00000000000E+00 -0.00000000000E+00 -0.71525995827E+03  0.71525995827E+03  0.00000000000E+00 0. -1.
         23    2    1    2    0    0 -0.77172481784E+03  0.19896079764E+03  0.34442223257E+02  0.80302982697E+03  0.92336573489E+02 0.  0.
        254    2    1    2    0    0  0.77172481784E+03 -0.19896079764E+03  0.76066958635E+03  0.14226018992E+04  0.90001852784E+03 0.  0.
         23    2    4    4    0    0  0.80084421146E+03 -0.35292345090E+03  0.84809111399E+03  0.12219353240E+04  0.89224353102E+02 0.  0.
         23    2    4    4    0    0 -0.29119393629E+02  0.15396265326E+03 -0.87421527644E+02  0.20066657516E+03  0.89844939810E+02 0.  0.
          3    1    3    3  502    0 -0.22256222858E+03  0.51641239022E+02  0.51449349880E+02  0.23419606905E+03  0.00000000000E+00 0. -1.
         -3    1    3    3    0  502 -0.54916258926E+03  0.14731955862E+03 -0.17007126623E+02  0.56883375792E+03  0.00000000000E+00 0.  1.
         11    1    5    5    0    0 -0.23018509106E+01  0.10890094483E+00  0.31571595199E+01  0.39087124817E+01  0.00000000000E+00 0. -1.
        -11    1    5    5    0    0  0.80314606238E+03 -0.35303235184E+03  0.84493395447E+03  0.12180266115E+04  0.00000000000E+00 0.  1.
          1    1    6    6  503    0  0.27909102222E+02  0.39120657268E+02 -0.51753800941E+01  0.48333511884E+02  0.00000000000E+00 0. -1.
         -1    1    6    6    0  503 -0.57028495851E+02  0.11484199599E+03 -0.82246147550E+02  0.15233306328E+03  0.00000000000E+00 0.  1.
<mgrwt>
<rscale>  0 0.20787578E+04</rscale>
<asrwt>0</asrwt>
<pdfrwt beam="1">  1        1 0.11003999E+00 0.20787578E+04</pdfrwt>
<pdfrwt beam="2">  1       -1 0.23236489E+00 0.20787578E+04</pdfrwt>
<totfact> 0.22110315E+00</totfact>
</mgrwt>
</event>
<event>
12    2  0.3518828E-008  0.1163482E+04  0.7818608E-02  0.9145435E-01
          2   -1    0    0  501    0  0.00000000000E+00  0.00000000000E+00  0.13049071861E+04  0.13049071861E+04  0.00000000000E+00 0.  1.
         -2   -1    0    0    0  501 -0.00000000000E+00 -0.00000000000E+00 -0.25934596691E+03  0.25934596691E+03  0.00000000000E+00 0. -1.
         23    2    1    2    0    0  0.15173342860E+03 -0.16261516176E+03  0.25355623928E+03  0.34948042045E+03  0.91537279873E+02 0.  0.
        254    2    1    2    0    0 -0.15173342860E+03  0.16261516176E+03  0.79200497990E+03  0.12147727326E+04  0.89383118058E+03 0.  0.
         23    2    4    4    0    0 -0.10912400793E+02 -0.33841917977E+03  0.14299772632E+03  0.37870168386E+03  0.91214000586E+02 0.  0.
         23    2    4    4    0    0 -0.14082102781E+03  0.50103434153E+03  0.64900725359E+03  0.83607104869E+03  0.83297118761E+02 0.  0.
          3    1    3    3  502    0  0.11034423381E+03 -0.14322410634E+03  0.14523126883E+03  0.23190755921E+03  0.00000000000E+00 0. -1.
         -3    1    3    3    0  502  0.41389194795E+02 -0.19391055415E+02  0.10832497045E+03  0.11757286124E+03  0.00000000000E+00 0.  1.
         11    1    5    5    0    0  0.32277946875E+02 -0.20857981249E+03  0.10972428085E+03  0.23787984748E+03  0.00000000000E+00 0. -1.
        -11    1    5    5    0    0 -0.43190347668E+02 -0.12983936728E+03  0.33273445468E+02  0.14082183638E+03  0.00000000000E+00 0.  1.
          1    1    6    6  503    0 -0.10415853152E+02  0.13429079945E+03  0.20861358282E+03  0.24831861741E+03  0.00000000000E+00 0. -1.
         -1    1    6    6    0  503 -0.13040517466E+03  0.36674354208E+03  0.44039367076E+03  0.58775243129E+03  0.00000000000E+00 0.  1.
<mgrwt>
<rscale>  0 0.11634817E+04</rscale>
<asrwt>0</asrwt>
<pdfrwt beam="1">  1        2 0.20075495E+00 0.11634817E+04</pdfrwt>
<pdfrwt beam="2">  1       -2 0.39899380E-01 0.11634817E+04</pdfrwt>
<totfact> 0.96472664E+01</totfact>
</mgrwt>
</event>
<event>
12    2  0.3518828E-008  0.1594231E+04  0.7818608E-02  0.8824100E-01
          2   -1    0    0  501    0  0.00000000000E+00  0.00000000000E+00  0.15626958209E+04  0.15626958209E+04  0.00000000000E+00 0. -1.
         -2   -1    0    0    0  501 -0.00000000000E+00 -0.00000000000E+00 -0.40660042628E+03  0.40660042628E+03  0.00000000000E+00 0.  1.
         23    2    1    2    0    0  0.38983813724E+03 -0.40862826219E+03  0.30945840107E+03  0.65017969094E+03  0.89544953032E+02 0.  0.
        254    2    1    2    0    0 -0.38983813724E+03  0.40862826219E+03  0.84663699350E+03  0.13191165562E+04  0.83923981086E+03 0.  0.
         23    2    4    4    0    0 -0.63791425588E+03  0.36796908990E+03  0.62954027045E+03  0.97286228877E+03  0.88341563346E+02 0.  0.
         23    2    4    4    0    0  0.24807611864E+03  0.40659172285E+02  0.21709672305E+03  0.34625426741E+03  0.97806449740E+02 0.  0.
          3    1    3    3  502    0  0.20119105412E+03 -0.25590585729E+03  0.21288799386E+03  0.38895622631E+03  0.00000000000E+00 0. -1.
         -3    1    3    3    0  502  0.18864708312E+03 -0.15272240490E+03  0.96570407217E+02  0.26122346463E+03  0.00000000000E+00 0.  1.
         11    1    5    5    0    0 -0.31136173857E+03  0.20522810128E+03  0.36825644261E+03  0.52409685490E+03  0.00000000000E+00 0. -1.
        -11    1    5    5    0    0 -0.32655251731E+03  0.16274098862E+03  0.26128382785E+03  0.44876543387E+03  0.00000000000E+00 0.  1.
          2    1    6    6  503    0  0.10661216962E+03  0.65277257004E+02  0.85217020797E+02  0.15129182274E+03  0.00000000000E+00 0.  1.
         -2    1    6    6    0  503  0.14146394902E+03 -0.24618084719E+02  0.13187970225E+03  0.19496244467E+03  0.00000000000E+00 0. -1.
<mgrwt>
<rscale>  0 0.15942306E+04</rscale>
<asrwt>0</asrwt>
<pdfrwt beam="1">  1        2 0.24041474E+00 0.15942306E+04</pdfrwt>
<pdfrwt beam="2">  1       -2 0.62553913E-01 0.15942306E+04</pdfrwt>
<totfact> 0.26606945E+01</totfact>
</mgrwt>
</event>
<event>
12    2  0.3518828E-008  0.1728037E+04  0.7818608E-02  0.8745533E-01
         -2   -1    0    0    0  501 -0.00000000000E+00  0.00000000000E+00  0.76988156057E+03  0.76988156057E+03  0.00000000000E+00 0.  1.
          2   -1    0    0  501    0  0.00000000000E+00 -0.00000000000E+00 -0.96966648582E+03  0.96966648582E+03  0.00000000000E+00 0. -1.
         23    2    1    2    0    0 -0.39846788563E+03  0.10668013318E+02  0.41138392238E+03  0.58014578606E+03  0.91880025634E+02 0.  0.
        254    2    1    2    0    0  0.39846788563E+03 -0.10668013318E+02 -0.61116884763E+03  0.11594022603E+04  0.90099710242E+03 0.  0.
         23    2    4    4    0    0  0.30105144277E+03  0.42551168431E+03 -0.33540707096E+03  0.62654723387E+03  0.91495182040E+02 0.  0.
         23    2    4    4    0    0  0.97416442857E+02 -0.43617969763E+03 -0.27576177667E+03  0.53285502646E+03  0.90262006365E+02 0.  0.
          4    1    3    3  502    0 -0.38047909108E+03  0.28809387243E+02  0.36994110277E+03  0.53146094782E+03  0.00000000000E+00 0.  1.
         -4    1    3    3    0  502 -0.17988794544E+02 -0.18141373926E+02  0.41442819611E+02  0.48684838239E+02  0.00000000000E+00 0. -1.
         11    1    5    5    0    0  0.25874602629E+03  0.30497197342E+03 -0.27403169776E+03  0.48482036062E+03  0.00000000000E+00 0. -1.
        -11    1    5    5    0    0  0.42305416485E+02  0.12053971089E+03 -0.61375373193E+02  0.14172687325E+03  0.00000000000E+00 0.  1.
          4    1    6    6  503    0  0.56855404827E+02 -0.33538806350E+03 -0.16637011785E+03  0.37867757566E+03  0.00000000000E+00 0. -1.
         -4    1    6    6    0  503  0.40561038030E+02 -0.10079163413E+03 -0.10939165882E+03  0.15417745081E+03  0.00000000000E+00 0.  1.
<mgrwt>
<rscale>  0 0.17280374E+04</rscale>
<asrwt>0</asrwt>
<pdfrwt beam="1">  1        2 0.14917946E+00 0.17280374E+04</pdfrwt>
<pdfrwt beam="2">  1       -2 0.11844332E+00 0.17280374E+04</pdfrwt>
<totfact> 0.13726109E+01</totfact>
</mgrwt>
</event>
<event>
12    2  0.3518828E-008  0.1754393E+04  0.7818608E-02  0.8730936E-01
         -2   -1    0    0    0  501 -0.00000000000E+00  0.00000000000E+00  0.56901904274E+03  0.56901904274E+03  0.00000000000E+00 0.  1.
          2   -1    0    0  501    0  0.00000000000E+00 -0.00000000000E+00 -0.13522804055E+04  0.13522804055E+04  0.00000000000E+00 0. -1.
         23    2    1    2    0    0  0.64361404677E+03 -0.12633479501E+03 -0.12811445011E+03  0.67497184291E+03  0.94732015534E+02 0.  0.
        254    2    1    2    0    0 -0.64361404677E+03  0.12633479501E+03 -0.65514691266E+03  0.12463276053E+04  0.83301590684E+03 0.  0.
         23    2    4    4    0    0 -0.47589670891E+03 -0.29311899657E+03 -0.20472168455E+03  0.60203472372E+03  0.90213173852E+02 0.  0.
         23    2    4    4    0    0 -0.16771733786E+03  0.41945379158E+03 -0.45042522811E+03  0.64429288163E+03  0.90331846608E+02 0.  0.
          3    1    3    3  502    0  0.12951182890E+03 -0.20268862037E+02  0.12079739794E+02  0.13164368844E+03  0.00000000000E+00 0. -1.
         -3    1    3    3    0  502  0.51410221787E+03 -0.10606593297E+03 -0.14019418990E+03  0.54332815447E+03  0.00000000000E+00 0.  1.
         11    1    5    5    0    0 -0.34340366646E+01 -0.14429445063E+02 -0.16308625116E+02  0.22044789539E+02  0.00000000000E+00 0. -1.
        -11    1    5    5    0    0 -0.47246267225E+03 -0.27868955151E+03 -0.18841305944E+03  0.57998993418E+03  0.00000000000E+00 0.  1.
          4    1    6    6  503    0 -0.75374845408E+02  0.26659199014E+03 -0.22632997457E+03  0.35774000883E+03  0.00000000000E+00 0. -1.
         -4    1    6    6    0  503 -0.92342492452E+02  0.15286180143E+03 -0.22409525354E+03  0.28655287280E+03  0.00000000000E+00 0.  1.
<mgrwt>
<rscale>  0 0.17543925E+04</rscale>
<asrwt>0</asrwt>
<pdfrwt beam="1">  1        2 0.20804314E+00 0.17543925E+04</pdfrwt>
<pdfrwt beam="2">  1       -2 0.87541391E-01 0.17543925E+04</pdfrwt>
<totfact> 0.16453206E+01</totfact>
</mgrwt>
</event>
<event>
12    2  0.3518828E-008  0.1652871E+04  0.7818608E-02  0.8788710E-01
          2   -1    0    0  501    0  0.00000000000E+00  0.00000000000E+00  0.14162067698E+04  0.14162067698E+04  0.00000000000E+00 0. -1.
         -2   -1    0    0    0  501 -0.00000000000E+00 -0.00000000000E+00 -0.48227131418E+03  0.48227131418E+03  0.00000000000E+00 0.  1.
         23    2    1    2    0    0  0.42884399152E+03  0.41835505905E+02  0.76568483978E+03  0.88352632723E+03  0.93210076930E+02 0.  0.
        254    2    1    2    0    0 -0.42884399152E+03 -0.41835505905E+02  0.16825061583E+03  0.10149517567E+04  0.90341652638E+03 0.  0.
         23    2    4    4    0    0 -0.56756783381E+03 -0.13414362072E+03 -0.18194794056E+03  0.61770353502E+03  0.91240600350E+02 0.  0.
         23    2    4    4    0    0  0.13872384229E+03  0.92308114813E+02  0.35019855639E+03  0.39724822170E+03  0.86035040911E+02 0.  0.
          2    1    3    3  502    0  0.16995168527E+03  0.19062723077E+02  0.39875288530E+03  0.43387881519E+03  0.00000000000E+00 0. -1.
         -2    1    3    3    0  502  0.25889230625E+03  0.22772782828E+02  0.36693195448E+03  0.44964751205E+03  0.00000000000E+00 0.  1.
         11    1    5    5    0    0 -0.35581551654E+02 -0.78882373538E+01  0.10716902549E+02  0.37988460181E+02  0.00000000000E+00 0.  1.
        -11    1    5    5    0    0 -0.53198628216E+03 -0.12625538336E+03 -0.19266484311E+03  0.57971507484E+03  0.00000000000E+00 0. -1.
          2    1    6    6  503    0  0.12230528484E+03  0.10149129615E+03  0.25701741310E+03  0.30218705553E+03  0.00000000000E+00 0. -1.
         -2    1    6    6    0  503  0.16418557451E+02 -0.91831813346E+01  0.93181143298E+02  0.95061166175E+02  0.00000000000E+00 0.  1.
<mgrwt>
<rscale>  0 0.16528713E+04</rscale>
<asrwt>0</asrwt>
<pdfrwt beam="1">  1        2 0.21787796E+00 0.16528713E+04</pdfrwt>
<pdfrwt beam="2">  1       -2 0.74195588E-01 0.16528713E+04</pdfrwt>
<totfact> 0.22124105E+01</totfact>
</mgrwt>
</event>
<event>
12    2  0.3518828E-008  0.1324183E+04  0.7818608E-02  0.9010605E-01
         -1   -1    0    0    0  501 -0.00000000000E+00  0.00000000000E+00  0.10361524315E+04  0.10361524315E+04  0.00000000000E+00 0.  1.
          1   -1    0    0  501    0  0.00000000000E+00 -0.00000000000E+00 -0.42306998826E+03  0.42306998826E+03  0.00000000000E+00 0. -1.
         23    2    1    2    0    0 -0.33984048504E+03  0.39323302529E+00  0.88629471093E+02  0.36413152897E+03  0.96150285158E+02 0.  0.
        254    2    1    2    0    0  0.33984048504E+03 -0.39323302529E+00  0.52445297215E+03  0.10950908908E+04  0.89926716229E+03 0.  0.
         23    2    4    4    0    0  0.42067071167E+02 -0.37645956799E+03  0.45952281037E+03  0.60258166066E+03  0.91934757891E+02 0.  0.
         23    2    4    4    0    0  0.29777341388E+03  0.37606633497E+03  0.64930161784E+02  0.49250923012E+03  0.90854397457E+02 0.  0.
          1    1    3    3  502    0 -0.48578857994E+02 -0.21333570448E+02 -0.13451554539E+02  0.54735463746E+02  0.00000000000E+00 0. -1.
         -1    1    3    3    0  502 -0.29126162705E+03  0.21726803473E+02  0.10208102563E+03  0.30939606522E+03  0.00000000000E+00 0.  1.
         11    1    5    5    0    0  0.27200557254E+02 -0.34701632049E+03  0.37399082858E+03  0.51091030217E+03  0.00000000000E+00 0. -1.
        -11    1    5    5    0    0  0.14866513913E+02 -0.29443247504E+02  0.85531981787E+02  0.91671358493E+02  0.00000000000E+00 0.  1.
          4    1    6    6  503    0  0.23172857978E+03  0.23067443926E+03  0.61984571809E+02  0.33279260622E+03  0.00000000000E+00 0.  1.
         -4    1    6    6    0  503  0.66044834095E+02  0.14539189571E+03  0.29455899752E+01  0.15971662390E+03  0.00000000000E+00 0. -1.
<mgrwt>
<rscale>  0 0.13241828E+04</rscale>
<asrwt>0</asrwt>
<pdfrwt beam="1">  1        1 0.65087691E-01 0.13241828E+04</pdfrwt>
<pdfrwt beam="2">  1       -1 0.15940807E+00 0.13241828E+04</pdfrwt>
<totfact> 0.16117169E+01</totfact>
</mgrwt>
</event>
<event>
12    2  0.3518828E-008  0.1432907E+04  0.7818608E-02  0.8930337E-01
          2   -1    0    0  501    0  0.00000000000E+00  0.00000000000E+00  0.14479865604E+04  0.14479865604E+04  0.00000000000E+00 0. -1.
         -2   -1    0    0    0  501 -0.00000000000E+00 -0.00000000000E+00 -0.35449602738E+03  0.35449602738E+03  0.00000000000E+00 0.  1.
         23    2    1    2    0    0  0.21104543612E+03  0.37897666143E+03  0.32216452661E+03  0.54811094735E+03  0.92044241439E+02 0.  0.
        254    2    1    2    0    0 -0.21104543612E+03 -0.37897666143E+03  0.77132600646E+03  0.12543716405E+04  0.88901120250E+03 0.  0.
         23    2    4    4    0    0 -0.22830562872E+03 -0.23550385872E+03 -0.10920026299E+03  0.35748473425E+03  0.91022580744E+02 0.  0.
         23    2    4    4    0    0  0.17260192597E+02 -0.14347280271E+03  0.88052626945E+03  0.89688690623E+03  0.90538676889E+02 0.  0.
          3    1    3    3  502    0  0.69242807903E+02  0.18299883048E+03  0.18873272570E+03  0.27185139350E+03  0.00000000000E+00 0. -1.
         -3    1    3    3    0  502  0.14180262822E+03  0.19597783096E+03  0.13343180092E+03  0.27625955385E+03  0.00000000000E+00 0.  1.
         11    1    5    5    0    0 -0.50414543754E+02 -0.79562021705E+02  0.59600607818E+01  0.94378301766E+02  0.00000000000E+00 0.  1.
        -11    1    5    5    0    0 -0.17789108497E+03 -0.15594183702E+03 -0.11516032377E+03  0.26310643248E+03  0.00000000000E+00 0. -1.
          2    1    6    6  503    0  0.56967627111E+01 -0.14372286848E+03  0.63492390177E+03  0.65101234787E+03  0.00000000000E+00 0. -1.
         -2    1    6    6    0  503  0.11563429886E+02  0.25006577242E+00  0.24560236767E+03  0.24587455836E+03  0.00000000000E+00 0.  1.
<mgrwt>
<rscale>  0 0.14329068E+04</rscale>
<asrwt>0</asrwt>
<pdfrwt beam="1">  1        2 0.22276716E+00 0.14329068E+04</pdfrwt>
<pdfrwt beam="2">  1       -2 0.54537851E-01 0.14329068E+04</pdfrwt>
<totfact> 0.41731779E+01</totfact>
</mgrwt>
</event>
<event>
12    2  0.3518828E-008  0.1878185E+04  0.7818608E-02  0.8665792E-01
          2   -1    0    0  501    0  0.00000000000E+00  0.00000000000E+00  0.13000535203E+04  0.13000535203E+04  0.00000000000E+00 0.  1.
         -2   -1    0    0    0  501 -0.00000000000E+00 -0.00000000000E+00 -0.67835285729E+03  0.67835285729E+03  0.00000000000E+00 0. -1.
         23    2    1    2    0    0 -0.15239128681E+03  0.68216019559E+03  0.12952220493E+03  0.71726217544E+03  0.95516438443E+02 0.  0.
        254    2    1    2    0    0  0.15239128681E+03 -0.68216019559E+03  0.49217845808E+03  0.12611442022E+04  0.92718899221E+03 0.  0.
         23    2    4    4    0    0  0.88840859596E+02  0.13552765164E+03 -0.13124994838E+03  0.22687636523E+03  0.89363826346E+02 0.  0.
         23    2    4    4    0    0  0.63550427212E+02 -0.81768784723E+03  0.62342840646E+03  0.10342678369E+04  0.91623731599E+02 0.  0.
          1    1    3    3  502    0 -0.15616990282E+03  0.53183687128E+03  0.11586721463E+03  0.56627264425E+03  0.00000000000E+00 0. -1.
         -1    1    3    3    0  502  0.37786160127E+01  0.15032332431E+03  0.13654990298E+02  0.15098953119E+03  0.00000000000E+00 0.  1.
         11    1    5    5    0    0  0.69940809170E+02  0.12908777806E+03 -0.70379587038E+02  0.16281479510E+03  0.00000000000E+00 0. -1.
        -11    1    5    5    0    0  0.18900050425E+02  0.64398735782E+01 -0.60870361346E+02  0.64061570135E+02  0.00000000000E+00 0.  1.
          1    1    6    6  503    0  0.33008965678E+02 -0.75016787782E+03  0.55990331020E+03  0.93666063945E+03  0.00000000000E+00 0. -1.
         -1    1    6    6    0  503  0.30541461534E+02 -0.67519969409E+02  0.63525096261E+02  0.97607197463E+02  0.00000000000E+00 0.  1.
<mgrwt>
<rscale>  0 0.18781853E+04</rscale>
<asrwt>0</asrwt>
<pdfrwt beam="1">  1        2 0.20000823E+00 0.18781853E+04</pdfrwt>
<pdfrwt beam="2">  1       -2 0.10436198E+00 0.18781853E+04</pdfrwt>
<totfact> 0.11570157E+01</totfact>
</mgrwt>
</event>
<event>
12    2  0.3518828E-008  0.2707335E+04  0.7818608E-02  0.8332629E-01
         -2   -1    0    0    0  501 -0.00000000000E+00  0.00000000000E+00  0.93844638061E+03  0.93844638061E+03  0.00000000000E+00 0.  1.
          2   -1    0    0  501    0  0.00000000000E+00 -0.00000000000E+00 -0.19526061126E+04  0.19526061126E+04  0.00000000000E+00 0. -1.
         23    2    1    2    0    0  0.17656756868E+02 -0.40542532665E+03  0.75703607162E+03  0.86375653034E+03  0.91050938584E+02 0.  0.
        254    2    1    2    0    0 -0.17656756868E+02  0.40542532665E+03 -0.17711958036E+04  0.20272959629E+04  0.89895099406E+03 0.  0.
         23    2    4    4    0    0  0.35535412580E+01  0.65559186908E+03 -0.90662093802E+03  0.11225994065E+04  0.91948767441E+02 0.  0.
         23    2    4    4    0    0 -0.21210298126E+02 -0.25016654243E+03 -0.86457486560E+03  0.90469655633E+03  0.89179510572E+02 0.  0.
          3    1    3    3  502    0  0.12765469569E+02 -0.10053311798E+03  0.11695620120E+03  0.15475341038E+03  0.00000000000E+00 0. -1.
         -3    1    3    3    0  502  0.48912872991E+01 -0.30489220867E+03  0.64007987043E+03  0.70900311997E+03  0.00000000000E+00 0.  1.
         11    1    5    5    0    0 -0.30611232876E+02  0.38231599546E+03 -0.47369775268E+03  0.60950154130E+03  0.00000000000E+00 0.  1.
        -11    1    5    5    0    0  0.34164774134E+02  0.27327587363E+03 -0.43292318534E+03  0.51309786523E+03  0.00000000000E+00 0. -1.
          4    1    6    6  503    0 -0.37662118373E+02 -0.21273984358E+03 -0.61614547561E+03  0.65292566447E+03  0.00000000000E+00 0. -1.
         -4    1    6    6    0  503  0.16451820247E+02 -0.37426698845E+02 -0.24842939000E+03  0.25177089186E+03  0.00000000000E+00 0.  1.
<mgrwt>
<rscale>  0 0.27073353E+04</rscale>
<asrwt>0</asrwt>
<pdfrwt beam="1">  1        2 0.30040094E+00 0.27073353E+04</pdfrwt>
<pdfrwt beam="2">  1       -2 0.14437637E+00 0.27073353E+04</pdfrwt>
<totfact> 0.20630028E+00</totfact>
</mgrwt>
</event>
<event>
12    2  0.3518828E-008  0.1758085E+04  0.7818608E-02  0.8728912E-01
         -1   -1    0    0    0  501 -0.00000000000E+00  0.00000000000E+00  0.43752525282E+03  0.43752525282E+03  0.00000000000E+00 0.  1.
          1   -1    0    0  501    0  0.00000000000E+00 -0.00000000000E+00 -0.17661063474E+04  0.17661063474E+04  0.00000000000E+00 0. -1.
         23    2    1    2    0    0  0.30765945611E+02 -0.43587508228E+03  0.10655976166E+03  0.45799822483E+03  0.86450913120E+02 0.  0.
        254    2    1    2    0    0 -0.30765945611E+02  0.43587508228E+03 -0.14351408562E+04  0.17456333753E+04  0.89256538879E+03 0.  0.
         23    2    4    4    0    0 -0.43291793090E+03  0.33814558481E+03 -0.66703574327E+03  0.86848971520E+03  0.87047867142E+02 0.  0.
         23    2    4    4    0    0  0.40215198529E+03  0.97729497464E+02 -0.76810511292E+03  0.87714366015E+03  0.90101399026E+02 0.  0.
          1    1    3    3  502    0  0.29066694927E+02 -0.55433316293E+02 -0.11400851683E+01  0.62602117404E+02  0.00000000000E+00 0. -1.
         -1    1    3    3    0  502  0.16992506844E+01 -0.38044176598E+03  0.10769984683E+03  0.39539610742E+03  0.00000000000E+00 0.  1.
         11    1    5    5    0    0 -0.15258065371E+03  0.13263583665E+03 -0.18384785930E+03  0.27326389520E+03  0.00000000000E+00 0. -1.
        -11    1    5    5    0    0 -0.28033727719E+03  0.20550974817E+03 -0.48318788397E+03  0.59522582000E+03  0.00000000000E+00 0.  1.
          3    1    6    6  503    0  0.23352167178E+03  0.10209082345E+03 -0.46346846177E+03  0.52892147099E+03  0.00000000000E+00 0. -1.
         -3    1    6    6    0  503  0.16863031351E+03 -0.43613259853E+01 -0.30463665115E+03  0.34822218916E+03  0.00000000000E+00 0.  1.
<mgrwt>
<rscale>  0 0.17580855E+04</rscale>
<asrwt>0</asrwt>
<pdfrwt beam="1">  1        1 0.27170867E+00 0.17580855E+04</pdfrwt>
<pdfrwt beam="2">  1       -1 0.67311577E-01 0.17580855E+04</pdfrwt>
<totfact> 0.90945234E+00</totfact>
</mgrwt>
</event>
<event>
12    2  0.3518828E-008  0.1833260E+04  0.7818608E-02  0.8688810E-01
         -2   -1    0    0    0  501 -0.00000000000E+00  0.00000000000E+00  0.62085151711E+03  0.62085151711E+03  0.00000000000E+00 0.  1.
          2   -1    0    0  501    0  0.00000000000E+00 -0.00000000000E+00 -0.13533191145E+04  0.13533191145E+04  0.00000000000E+00 0. -1.
         23    2    1    2    0    0 -0.65490532310E+03 -0.40865107453E+02 -0.12023989741E+03  0.67342049691E+03  0.92014093967E+02 0.  0.
        254    2    1    2    0    0  0.65490532310E+03  0.40865107453E+02 -0.61222769994E+03  0.13007501347E+04  0.94157167387E+03 0.  0.
         23    2    4    4    0    0 -0.98550013207E+02  0.94549879014E+02 -0.50678591188E+03  0.53336472435E+03  0.94837671694E+02 0.  0.
         23    2    4    4    0    0  0.75345533631E+03 -0.53684771562E+02 -0.10544178806E+03  0.76738541032E+03  0.84766731668E+02 0.  0.
          2    1    3    3  502    0 -0.23249283278E+02 -0.18932979038E+02 -0.11419821112E+02  0.32084251315E+02  0.00000000000E+00 0. -1.
         -2    1    3    3    0  502 -0.63165603982E+03 -0.21932128415E+02 -0.10882007630E+03  0.64133624559E+03  0.00000000000E+00 0.  1.
         11    1    5    5    0    0 -0.64396170648E+02  0.10003847589E+03 -0.28406068007E+03  0.30796920855E+03  0.00000000000E+00 0. -1.
        -11    1    5    5    0    0 -0.34153842559E+02 -0.54885968723E+01 -0.22272523181E+03  0.22539551580E+03  0.00000000000E+00 0.  1.
          1    1    6    6  503    0  0.11340401150E+03  0.20550193790E+02 -0.26176784884E+02  0.11818631205E+03  0.00000000000E+00 0. -1.
         -1    1    6    6    0  503  0.64005132481E+03 -0.74234965351E+02 -0.79265003175E+02  0.64919909828E+03  0.00000000000E+00 0.  1.
<mgrwt>
<rscale>  0 0.18332596E+04</rscale>
<asrwt>0</asrwt>
<pdfrwt beam="1">  1        2 0.20820294E+00 0.18332596E+04</pdfrwt>
<pdfrwt beam="2">  1       -2 0.95515619E-01 0.18332596E+04</pdfrwt>
<totfact> 0.13340363E+01</totfact>
</mgrwt>
</event>
<event>
12    2  0.3518828E-008  0.1548855E+04  0.7818608E-02  0.8852599E-01
          2   -1    0    0  501    0  0.00000000000E+00  0.00000000000E+00  0.18869287165E+04  0.18869287165E+04  0.00000000000E+00 0.  1.
         -2   -1    0    0    0  501 -0.00000000000E+00 -0.00000000000E+00 -0.31783825969E+03  0.31783825969E+03  0.00000000000E+00 0. -1.
         23    2    1    2    0    0  0.48023545334E+03 -0.99252475909E+02  0.74146045064E+03  0.89364035580E+03  0.91391143054E+02 0.  0.
        254    2    1    2    0    0 -0.48023545334E+03  0.99252475909E+02  0.82763000615E+03  0.13111266204E+04  0.89084479172E+03 0.  0.
         23    2    4    4    0    0 -0.40318528853E+02 -0.35939226228E+03  0.27555864437E+03  0.46437209943E+03  0.94448389558E+02 0.  0.
         23    2    4    4    0    0 -0.43991692449E+03  0.45864473819E+03  0.55207136178E+03  0.84675452094E+03  0.91260801591E+02 0.  0.
          3    1    3    3  502    0  0.31536760729E+03 -0.99339004752E+02  0.54163416420E+03  0.63458059647E+03  0.00000000000E+00 0.  1.
         -3    1    3    3    0  502  0.16486784605E+03  0.86528843064E-01  0.19982628644E+03  0.25905975932E+03  0.00000000000E+00 0. -1.
         11    1    5    5    0    0  0.27143651737E+02 -0.17084249367E+03  0.14013751539E+03  0.22262627583E+03  0.00000000000E+00 0.  1.
        -11    1    5    5    0    0 -0.67462180590E+02 -0.18854976861E+03  0.13542112898E+03  0.24174582360E+03  0.00000000000E+00 0. -1.
          3    1    6    6  503    0 -0.39756826026E+03  0.40686838663E+03  0.45289169049E+03  0.72712673512E+03  0.00000000000E+00 0. -1.
         -3    1    6    6    0  503 -0.42348664231E+02  0.51776351552E+02  0.99179671294E+02  0.11962778582E+03  0.00000000000E+00 0.  1.
<mgrwt>
<rscale>  0 0.15488552E+04</rscale>
<asrwt>0</asrwt>
<pdfrwt beam="1">  1        2 0.29029672E+00 0.15488552E+04</pdfrwt>
<pdfrwt beam="2">  1       -2 0.48898195E-01 0.15488552E+04</pdfrwt>
<totfact> 0.29437957E+01</totfact>
</mgrwt>
</event>
<event>
12    2  0.3518828E-008  0.1537484E+04  0.7818608E-02  0.8859902E-01
          2   -1    0    0  501    0  0.00000000000E+00  0.00000000000E+00  0.14617800104E+04  0.14617800104E+04  0.00000000000E+00 0. -1.
         -2   -1    0    0    0  501 -0.00000000000E+00 -0.00000000000E+00 -0.40427697096E+03  0.40427697096E+03  0.00000000000E+00 0.  1.
         23    2    1    2    0    0 -0.28517662378E+03  0.40417916389E+03  0.42699897359E+03  0.65930824416E+03  0.87594144200E+02 0.  0.
        254    2    1    2    0    0  0.28517662378E+03 -0.40417916389E+03  0.63050406588E+03  0.12067487372E+04  0.90223092080E+03 0.  0.
         23    2    4    4    0    0  0.24295347061E+03 -0.21450673601E+03 -0.17003722269E+03  0.37795362523E+03  0.94322622160E+02 0.  0.
         23    2    4    4    0    0  0.42223153166E+02 -0.18967242788E+03  0.80054128858E+03  0.82879511200E+03  0.90975592284E+02 0.  0.
          2    1    3    3  502    0 -0.20037173411E+02  0.48003902762E+02  0.81557870550E+02  0.96734426382E+02  0.00000000000E+00 0. -1.
         -2    1    3    3    0  502 -0.26513945037E+03  0.35617526113E+03  0.34544110304E+03  0.56257381778E+03  0.00000000000E+00 0.  1.
         11    1    5    5    0    0 -0.35724322162E+01 -0.23604894859E+02 -0.23272824694E+02  0.33340331469E+02  0.00000000000E+00 0. -1.
        -11    1    5    5    0    0  0.24652590283E+03 -0.19090184115E+03 -0.14676439800E+03  0.34461329376E+03  0.00000000000E+00 0.  1.
          4    1    6    6  503    0 -0.58576176484E+01 -0.59435091935E+02  0.11771547084E+03  0.13199914361E+03  0.00000000000E+00 0. -1.
         -4    1    6    6    0  503  0.48080770814E+02 -0.13023733595E+03  0.68282581774E+03  0.69679596839E+03  0.00000000000E+00 0.  1.
<mgrwt>
<rscale>  0 0.15374837E+04</rscale>
<asrwt>0</asrwt>
<pdfrwt beam="1">  1        2 0.22488923E+00 0.15374837E+04</pdfrwt>
<pdfrwt beam="2">  1       -2 0.62196458E-01 0.15374837E+04</pdfrwt>
<totfact> 0.30842720E+01</totfact>
</mgrwt>
</event>
<event>
12    2  0.3518828E-008  0.1999810E+04  0.7818608E-02  0.8606709E-01
          1   -1    0    0  501    0  0.00000000000E+00  0.00000000000E+00  0.16438089134E+04  0.16438089134E+04  0.00000000000E+00 0. -1.
         -1   -1    0    0    0  501 -0.00000000000E+00 -0.00000000000E+00 -0.60822781055E+03  0.60822781055E+03  0.00000000000E+00 0.  1.
         23    2    1    2    0    0  0.43841488009E+03  0.53194273152E+03  0.85149485751E+03  0.10996510887E+04  0.94964982259E+02 0.  0.
        254    2    1    2    0    0 -0.43841488009E+03 -0.53194273152E+03  0.18408624538E+03  0.11523856353E+04  0.90494984942E+03 0.  0.
         23    2    4    4    0    0 -0.63551492626E+03 -0.61206852178E+03  0.64748291606E+02  0.88931851648E+03  0.90487488853E+02 0.  0.
         23    2    4    4    0    0  0.19710004617E+03  0.80125790254E+02  0.11933795378E+03  0.26306711880E+03  0.98459084492E+02 0.  0.
          4    1    3    3  502    0  0.24615517058E+03  0.28018495354E+03  0.53226931641E+03  0.64992815094E+03  0.00000000000E+00 0. -1.
         -4    1    3    3    0  502  0.19225970950E+03  0.25175777798E+03  0.31922554110E+03  0.44972293778E+03  0.00000000000E+00 0.  1.
         11    1    5    5    0    0 -0.48359619149E+03 -0.40907516125E+03  0.45259826421E+02  0.63502457894E+03  0.00000000000E+00 0. -1.
        -11    1    5    5    0    0 -0.15191873477E+03 -0.20299336053E+03  0.19488465185E+02  0.25429393754E+03  0.00000000000E+00 0.  1.
          2    1    6    6  503    0  0.31210987428E+02  0.42577690803E+02 -0.40386144704E+01  0.52946160363E+02  0.00000000000E+00 0.  1.
         -2    1    6    6    0  503  0.16588905874E+03  0.37548099451E+02  0.12337656825E+03  0.21012095844E+03  0.00000000000E+00 0. -1.
<mgrwt>
<rscale>  0 0.19998103E+04</rscale>
<asrwt>0</asrwt>
<pdfrwt beam="1">  1        1 0.25289368E+00 0.19998103E+04</pdfrwt>
<pdfrwt beam="2">  1       -1 0.93573510E-01 0.19998103E+04</pdfrwt>
<totfact> 0.53502106E+00</totfact>
</mgrwt>
</event>
<event>
12    2  0.3518828E-008  0.1336346E+04  0.7818608E-02  0.9001229E-01
         -2   -1    0    0    0  501 -0.00000000000E+00  0.00000000000E+00  0.49474697322E+03  0.49474697322E+03  0.00000000000E+00 0.  1.
          2   -1    0    0  501    0  0.00000000000E+00 -0.00000000000E+00 -0.90239044224E+03  0.90239044224E+03  0.00000000000E+00 0. -1.
         23    2    1    2    0    0 -0.15480014389E+03  0.38450404800E+02 -0.44503995387E+03  0.48163468294E+03  0.92032000379E+02 0.  0.
        254    2    1    2    0    0  0.15480014389E+03 -0.38450404800E+02  0.37396484856E+02  0.91550273251E+03  0.90072484032E+03 0.  0.
         23    2    4    4    0    0  0.51161519936E+03 -0.89187199645E+02 -0.63192970900E+02  0.53125996332E+03  0.92408485854E+02 0.  0.
         23    2    4    4    0    0 -0.35681505547E+03  0.50736794844E+02  0.10058945576E+03  0.38424276919E+03  0.87367390388E+02 0.  0.
          4    1    3    3  502    0 -0.87439821271E+02 -0.13270537817E+02 -0.14533695977E+03  0.17013130633E+03  0.00000000000E+00 0. -1.
         -4    1    3    3    0  502 -0.67360322623E+02  0.51720942618E+02 -0.29970299411E+03  0.31150337662E+03  0.00000000000E+00 0.  1.
         11    1    5    5    0    0  0.14488318188E+03 -0.40422650710E+02  0.20904246131E+02  0.15186215654E+03  0.00000000000E+00 0. -1.
        -11    1    5    5    0    0  0.36673201748E+03 -0.48764548935E+02 -0.84097217030E+02  0.37939780678E+03  0.00000000000E+00 0.  1.
          4    1    6    6  503    0 -0.31047900302E+03  0.21670545054E+02  0.10712793056E+03  0.32915530885E+03  0.00000000000E+00 0.  1.
         -4    1    6    6    0  503 -0.46336052451E+02  0.29066249790E+02 -0.65384748056E+01  0.55087460338E+02  0.00000000000E+00 0. -1.
<mgrwt>
<rscale>  0 0.13363457E+04</rscale>
<asrwt>0</asrwt>
<pdfrwt beam="1">  1        2 0.13882930E+00 0.13363457E+04</pdfrwt>
<pdfrwt beam="2">  1       -2 0.76114920E-01 0.13363457E+04</pdfrwt>
<totfact> 0.44150205E+01</totfact>
</mgrwt>
</event>
<event>
12    2  0.3518828E-008  0.1234880E+04  0.7818608E-02  0.9082862E-01
          1   -1    0    0  501    0  0.00000000000E+00  0.00000000000E+00  0.57195834799E+03  0.57195834799E+03  0.00000000000E+00 0. -1.
         -1   -1    0    0    0  501 -0.00000000000E+00 -0.00000000000E+00 -0.66653846749E+03  0.66653846749E+03  0.00000000000E+00 0.  1.
         23    2    1    2    0    0 -0.20090279439E+03  0.17815883751E+03  0.15423659918E+02  0.28469294913E+03  0.93325676136E+02 0.  0.
        254    2    1    2    0    0  0.20090279439E+03 -0.17815883751E+03 -0.11000377942E+03  0.95380386635E+03  0.90859148126E+03 0.  0.
         23    2    4    4    0    0  0.35016244217E+03  0.27781681841E+03 -0.15194238144E+02  0.45631564807E+03  0.90538308498E+02 0.  0.
         23    2    4    4    0    0 -0.14925964779E+03 -0.45597565592E+03 -0.94809541272E+02  0.49748821828E+03  0.91178050891E+02 0.  0.
          2    1    3    3  502    0 -0.92627003379E+02  0.10137333581E+03 -0.36617750327E+02  0.14211676399E+03  0.00000000000E+00 0. -1.
         -2    1    3    3    0  502 -0.10827579101E+03  0.76785501695E+02  0.52041410245E+02  0.14257618514E+03  0.00000000000E+00 0.  1.
         11    1    5    5    0    0  0.33542619432E+01  0.97975341821E+01 -0.14736828417E+02  0.18011575751E+02  0.00000000000E+00 0. -1.
        -11    1    5    5    0    0  0.34680818023E+03  0.26801928423E+03 -0.45740972614E+00  0.43830407232E+03  0.00000000000E+00 0.  1.
          2    1    6    6  503    0 -0.26263495515E+02 -0.43838127630E+02 -0.37935744624E+02  0.63644900432E+02  0.00000000000E+00 0. -1.
         -2    1    6    6    0  503 -0.12299615227E+03 -0.41213752829E+03 -0.56873796648E+02  0.43384331785E+03  0.00000000000E+00 0.  1.
<mgrwt>
<rscale>  0 0.12348801E+04</rscale>
<asrwt>0</asrwt>
<pdfrwt beam="1">  1        1 0.87993592E-01 0.12348801E+04</pdfrwt>
<pdfrwt beam="2">  1       -1 0.10254438E+00 0.12348801E+04</pdfrwt>
<totfact> 0.32599031E+01</totfact>
</mgrwt>
</event>
<event>
12    2  0.3518828E-008  0.1762937E+04  0.7818608E-02  0.8726261E-01
          2   -1    0    0  501    0  0.00000000000E+00  0.00000000000E+00  0.18420400947E+04  0.18420400947E+04  0.00000000000E+00 0. -1.
         -2   -1    0    0    0  501 -0.00000000000E+00 -0.00000000000E+00 -0.42180782869E+03  0.42180782869E+03  0.00000000000E+00 0.  1.
         23    2    1    2    0    0 -0.36745296981E+03  0.21092952375E+03  0.12356525450E+04  0.13094425206E+04  0.91046986431E+02 0.  0.
        254    2    1    2    0    0  0.36745296981E+03 -0.21092952375E+03  0.18457972097E+03  0.95440540278E+03  0.83504913056E+03 0.  0.
         23    2    4    4    0    0  0.47533584578E+03  0.47763199531E+02 -0.14832145062E+03  0.50839974945E+03  0.90805082571E+02 0.  0.
         23    2    4    4    0    0 -0.10788287597E+03 -0.25869272328E+03  0.33290117159E+03  0.44600565333E+03  0.97658654229E+02 0.  0.
          1    1    3    3  502    0 -0.34685825217E+03  0.21917435458E+03  0.11885397791E+04  0.12573682242E+04  0.00000000000E+00 0. -1.
         -1    1    3    3    0  502 -0.20594717646E+02 -0.82448308314E+01  0.47112765969E+02  0.52074296419E+02  0.00000000000E+00 0.  1.
         11    1    5    5    0    0  0.40597650790E+03  0.72772775695E+02 -0.12201571950E+03  0.43011700461E+03  0.00000000000E+00 0. -1.
        -11    1    5    5    0    0  0.69359337879E+02 -0.25009576164E+02 -0.26305731119E+02  0.78282744846E+02  0.00000000000E+00 0.  1.
          2    1    6    6  503    0 -0.90782467892E+02 -0.23290052416E+03  0.23410125290E+03  0.34247263722E+03  0.00000000000E+00 0. -1.
         -2    1    6    6    0  503 -0.17100408075E+02 -0.25792199120E+02  0.98799918690E+02  0.10353301611E+03  0.00000000000E+00 0.  1.
<mgrwt>
<rscale>  0 0.17629372E+04</rscale>
<asrwt>0</asrwt>
<pdfrwt beam="1">  1        2 0.28339078E+00 0.17629372E+04</pdfrwt>
<pdfrwt beam="2">  1       -2 0.64893513E-01 0.17629372E+04</pdfrwt>
<totfact> 0.16961810E+01</totfact>
</mgrwt>
</event>
<event>
12    2  0.3518828E-008  0.1488239E+04  0.7818608E-02  0.8892312E-01
          2   -1    0    0  501    0  0.00000000000E+00  0.00000000000E+00  0.14126940822E+04  0.14126940822E+04  0.00000000000E+00 0. -1.
         -2   -1    0    0    0  501 -0.00000000000E+00 -0.00000000000E+00 -0.39195570306E+03  0.39195570306E+03  0.00000000000E+00 0.  1.
         23    2    1    2    0    0  0.10754176340E+03 -0.99319146464E+02 -0.21204038297E+03  0.27331060555E+03  0.91148446858E+02 0.  0.
        254    2    1    2    0    0 -0.10754176340E+03  0.99319146464E+02  0.12327787621E+04  0.15313391797E+04  0.89656381996E+03 0.  0.
         23    2    4    4    0    0 -0.21822264258E+03 -0.33885426496E+03  0.79285734396E+03  0.89405245690E+03  0.90904858045E+02 0.  0.
         23    2    4    4    0    0  0.11068087918E+03  0.43817341142E+03  0.43992141814E+03  0.63728672279E+03  0.91418364771E+02 0.  0.
          4    1    3    3  502    0  0.95757598642E+02 -0.57346131318E+02 -0.88938434558E+02  0.14271699834E+03  0.00000000000E+00 0. -1.
         -4    1    3    3    0  502  0.11784164761E+02 -0.41973015146E+02 -0.12310194841E+03  0.13059360720E+03  0.00000000000E+00 0.  1.
         11    1    5    5    0    0 -0.22592289693E+03 -0.31685553733E+03  0.75900966909E+03  0.85295619152E+03  0.00000000000E+00 0. -1.
        -11    1    5    5    0    0  0.77002543443E+01 -0.21998727623E+02  0.33847674870E+02  0.41096265379E+02  0.00000000000E+00 0.  1.
          1    1    6    6  503    0  0.70159957452E+02  0.38946109957E+03  0.35729784400E+03  0.53316424959E+03  0.00000000000E+00 0. -1.
         -1    1    6    6    0  503  0.40520921730E+02  0.48712311852E+02  0.82623574130E+02  0.10412247320E+03  0.00000000000E+00 0.  1.
<mgrwt>
<rscale>  0 0.14882386E+04</rscale>
<asrwt>0</asrwt>
<pdfrwt beam="1">  1        2 0.21733755E+00 0.14882386E+04</pdfrwt>
<pdfrwt beam="2">  1       -2 0.60300878E-01 0.14882386E+04</pdfrwt>
<totfact> 0.35261994E+01</totfact>
</mgrwt>
</event>
<event>
12    2  0.3518828E-008  0.2571157E+04  0.7818608E-02  0.8378065E-01
          2   -1    0    0  501    0  0.00000000000E+00  0.00000000000E+00  0.19379962085E+04  0.19379962085E+04  0.00000000000E+00 0. -1.
         -2   -1    0    0    0  501 -0.00000000000E+00 -0.00000000000E+00 -0.85279395889E+03  0.85279395889E+03  0.00000000000E+00 0.  1.
         23    2    1    2    0    0 -0.81855961040E+03  0.66611522507E+03  0.90347174051E+03  0.13923690967E+04  0.93172885329E+02 0.  0.
        254    2    1    2    0    0  0.81855961040E+03 -0.66611522507E+03  0.18173050908E+03  0.13984210707E+04  0.89933652447E+03 0.  0.
         23    2    4    4    0    0  0.44004560341E+03 -0.75864585853E+03 -0.12879103184E+03  0.89191734727E+03  0.98720579148E+02 0.  0.
         23    2    4    4    0    0  0.37851400699E+03  0.92530633458E+02  0.31052154093E+03  0.50650372344E+03  0.91036382082E+02 0.  0.
          3    1    3    3  502    0 -0.51856819378E+03  0.37228762380E+03  0.57673250257E+03  0.86030891310E+03  0.00000000000E+00 0. -1.
         -3    1    3    3    0  502 -0.29999141662E+03  0.29382760127E+03  0.32673923795E+03  0.53206018356E+03  0.00000000000E+00 0.  1.
         11    1    5    5    0    0  0.30544041602E+03 -0.59503262723E+03 -0.72950274966E+02  0.67281454936E+03  0.00000000000E+00 0. -1.
        -11    1    5    5    0    0  0.13460518739E+03 -0.16361323129E+03 -0.55840756876E+02  0.21910279792E+03  0.00000000000E+00 0.  1.
          4    1    6    6  503    0  0.30032228464E+03  0.77082199910E+02  0.19542784603E+03  0.36650673009E+03  0.00000000000E+00 0. -1.
         -4    1    6    6    0  503  0.78191722351E+02  0.15448433549E+02  0.11509369489E+03  0.13999699335E+03  0.00000000000E+00 0.  1.
<mgrwt>
<rscale>  0 0.25711565E+04</rscale>
<asrwt>0</asrwt>
<pdfrwt beam="1">  1        2 0.29815326E+00 0.25711565E+04</pdfrwt>
<pdfrwt beam="2">  1       -2 0.13119907E+00 0.25711565E+04</pdfrwt>
<totfact> 0.27214234E+00</totfact>
</mgrwt>
</event>
<event>
12    2  0.3518828E-008  0.2212201E+04  0.7818608E-02  0.8513367E-01
         -1   -1    0    0    0  501 -0.00000000000E+00  0.00000000000E+00  0.12321769135E+04  0.12321769135E+04  0.00000000000E+00 0.  1.
          1   -1    0    0  501    0  0.00000000000E+00 -0.00000000000E+00 -0.99292419920E+03  0.99292419920E+03  0.00000000000E+00 0. -1.
         23    2    1    2    0    0  0.39073133958E+03  0.81334279491E+03  0.28085025444E+03  0.94947489278E+03  0.91805363914E+02 0.  0.
        254    2    1    2    0    0 -0.39073133958E+03 -0.81334279491E+03 -0.41597540132E+02  0.12756262199E+04  0.90071883286E+03 0.  0.
         23    2    4    4    0    0 -0.48695256606E+03 -0.95512825150E+03 -0.75221660708E+02  0.10783155911E+04  0.87826176793E+02 0.  0.
         23    2    4    4    0    0  0.96221226479E+02  0.14178545659E+03  0.33624120576E+02  0.19731062884E+03  0.91865459469E+02 0.  0.
          1    1    3    3  502    0  0.41133379323E+02  0.11687590147E+03  0.69386959869E+02  0.14200873719E+03  0.00000000000E+00 0. -1.
         -1    1    3    3    0  502  0.34959796025E+03  0.69646689344E+03  0.21146329457E+03  0.80746615559E+03  0.00000000000E+00 0.  1.
         11    1    5    5    0    0 -0.43497970033E+03 -0.81689426577E+03 -0.90229003783E+02  0.92987356897E+03  0.00000000000E+00 0. -1.
        -11    1    5    5    0    0 -0.51972865729E+02 -0.13823398573E+03  0.15007343074E+02  0.14844202211E+03  0.00000000000E+00 0.  1.
          4    1    6    6  503    0  0.13872128630E+02  0.95423158591E+02  0.35596897839E+02  0.10278693635E+03  0.00000000000E+00 0.  1.
         -4    1    6    6    0  503  0.82349097849E+02  0.46362298003E+02 -0.19727772636E+01  0.94523692494E+02  0.00000000000E+00 0. -1.
<mgrwt>
<rscale>  0 0.22122010E+04</rscale>
<asrwt>0</asrwt>
<pdfrwt beam="1">  1        1 0.15275757E+00 0.22122010E+04</pdfrwt>
<pdfrwt beam="2">  1       -1 0.18956568E+00 0.22122010E+04</pdfrwt>
<totfact> 0.24837016E+00</totfact>
</mgrwt>
</event>
<event>
12    2  0.3518828E-008  0.1523391E+04  0.7818608E-02  0.8869046E-01
         -1   -1    0    0    0  501 -0.00000000000E+00  0.00000000000E+00  0.65829888801E+03  0.65829888801E+03  0.00000000000E+00 0.  1.
          1   -1    0    0  501    0  0.00000000000E+00 -0.00000000000E+00 -0.88133193383E+03  0.88133193383E+03  0.00000000000E+00 0. -1.
         23    2    1    2    0    0 -0.20663810279E+03 -0.35876874815E+03  0.19652806831E+03  0.46712931338E+03  0.90400185905E+02 0.  0.
        254    2    1    2    0    0  0.20663810279E+03  0.35876874815E+03 -0.41956111414E+03  0.10725015085E+04  0.89599868135E+03 0.  0.
         23    2    4    4    0    0  0.45788510476E+03  0.48962604250E+03 -0.21022770965E+03  0.70827648922E+03  0.89819066052E+02 0.  0.
         23    2    4    4    0    0 -0.25124700197E+03 -0.13085729436E+03 -0.20933340449E+03  0.36422501924E+03  0.92686044891E+02 0.  0.
          2    1    3    3  502    0 -0.19860932467E+03 -0.33208528371E+03  0.15438411148E+03  0.41660623301E+03  0.00000000000E+00 0. -1.
         -2    1    3    3    0  502 -0.80287781171E+01 -0.26683464434E+02  0.42143956836E+02  0.50523080370E+02  0.00000000000E+00 0.  1.
         11    1    5    5    0    0  0.36980122160E+03  0.33993498214E+03 -0.14591697196E+03  0.52306834953E+03  0.00000000000E+00 0. -1.
        -11    1    5    5    0    0  0.88083883160E+02  0.14969106037E+03 -0.64310737690E+02  0.18520813969E+03  0.00000000000E+00 0.  1.
          1    1    6    6  503    0 -0.13811545906E+03 -0.93758088060E+02 -0.17142616946E+03  0.23927680766E+03  0.00000000000E+00 0. -1.
         -1    1    6    6    0  503 -0.11313154290E+03 -0.37099206298E+02 -0.37907235028E+02  0.12494821157E+03  0.00000000000E+00 0.  1.
<mgrwt>
<rscale>  0 0.15233907E+04</rscale>
<asrwt>0</asrwt>
<pdfrwt beam="1">  1        1 0.13558953E+00 0.15233907E+04</pdfrwt>
<pdfrwt beam="2">  1       -1 0.10127675E+00 0.15233907E+04</pdfrwt>
<totfact> 0.16856934E+01</totfact>
</mgrwt>
</event>
<event>
12    2  0.3518828E-008  0.1302442E+04  0.7818608E-02  0.9027631E-01
         -2   -1    0    0    0  501 -0.00000000000E+00  0.00000000000E+00  0.14109814063E+03  0.14109814063E+03  0.00000000000E+00 0.  1.
          2   -1    0    0  501    0  0.00000000000E+00 -0.00000000000E+00 -0.30056314844E+04  0.30056314844E+04  0.00000000000E+00 0. -1.
         23    2    1    2    0    0  0.98249959910E+02  0.31294100591E+03 -0.58954939096E+03  0.67734800247E+03  0.60387948064E+02 0.  0.
        254    2    1    2    0    0 -0.98249959910E+02 -0.31294100591E+03 -0.22749839528E+04  0.24693816225E+04  0.90261203432E+03 0.  0.
         23    2    4    4    0    0 -0.25198818975E+03  0.16243266413E+03 -0.31535698007E+03  0.44496295565E+03  0.93056911997E+02 0.  0.
         23    2    4    4    0    0  0.15373822984E+03 -0.47537367004E+03 -0.19596269727E+04  0.20244186669E+04  0.92290287518E+02 0.  0.
          2    1    3    3  502    0 -0.51205811295E+01  0.30682308472E+02 -0.37095300048E+02  0.48411627632E+02  0.00000000000E+00 0. -1.
         -2    1    3    3    0  502  0.10337054104E+03  0.28225869743E+03 -0.55245409091E+03  0.62893637484E+03  0.00000000000E+00 0.  1.
         11    1    5    5    0    0 -0.16228309762E+02 -0.97644901339E+01 -0.66592823996E+01  0.20076088947E+02  0.00000000000E+00 0. -1.
        -11    1    5    5    0    0 -0.23575987999E+03  0.17219715427E+03 -0.30869769767E+03  0.42488686670E+03  0.00000000000E+00 0.  1.
          1    1    6    6  503    0 -0.67691822907E+01 -0.50146534455E+01 -0.14183065258E+02  0.16496300136E+02  0.00000000000E+00 0. -1.
         -1    1    6    6    0  503  0.16050741213E+03 -0.47035901659E+03 -0.19454439074E+04  0.20079223667E+04  0.00000000000E+00 0.  1.
<mgrwt>
<rscale>  0 0.13024423E+04</rscale>
<asrwt>0</asrwt>
<pdfrwt beam="1">  1        2 0.46240487E+00 0.13024423E+04</pdfrwt>
<pdfrwt beam="2">  1       -2 0.21707405E-01 0.13024423E+04</pdfrwt>
<totfact> 0.31657110E+01</totfact>
</mgrwt>
</event>
<event>
12    2  0.3518828E-008  0.1600773E+04  0.7818608E-02  0.8820073E-01
          1   -1    0    0  501    0  0.00000000000E+00  0.00000000000E+00  0.37790318370E+03  0.37790318370E+03  0.00000000000E+00 0. -1.
         -1   -1    0    0    0  501 -0.00000000000E+00 -0.00000000000E+00 -0.16951931987E+04  0.16951931987E+04  0.00000000000E+00 0.  1.
         23    2    1    2    0    0 -0.45511130147E+02 -0.33284056723E+03  0.10346980725E+03  0.36362496227E+03  0.93075270668E+02 0.  0.
        254    2    1    2    0    0  0.45511130147E+02  0.33284056723E+03 -0.14207598222E+04  0.17094714201E+04  0.88931431874E+03 0.  0.
         23    2    4    4    0    0  0.25712063093E+02  0.27485293528E+03 -0.15277062475E+04  0.15552013326E+04  0.92517889974E+02 0.  0.
         23    2    4    4    0    0  0.19799067054E+02  0.57987631956E+02  0.10694642534E+03  0.15427008747E+03  0.92774745910E+02 0.  0.
          1    1    3    3  502    0 -0.58835333672E+02 -0.23410033245E+03  0.10675859525E+03  0.26393552206E+03  0.00000000000E+00 0. -1.
         -1    1    3    3    0  502  0.13324203525E+02 -0.98740234777E+02 -0.32887879967E+01  0.99689440212E+02  0.00000000000E+00 0.  1.
         11    1    5    5    0    0  0.29277558978E+02  0.26617944748E+02 -0.14097446543E+03  0.14642230139E+03  0.00000000000E+00 0. -1.
        -11    1    5    5    0    0 -0.35654958846E+01  0.24823499053E+03 -0.13867317821E+04  0.14087790312E+04  0.00000000000E+00 0.  1.
          1    1    6    6  503    0 -0.37360112235E+02  0.20441221237E+02  0.36491987039E+02  0.56082855045E+02  0.00000000000E+00 0. -1.
         -1    1    6    6    0  503  0.57159179289E+02  0.37546410720E+02  0.70454438296E+02  0.98187232421E+02  0.00000000000E+00 0.  1.
<mgrwt>
<rscale>  0 0.16007734E+04</rscale>
<asrwt>0</asrwt>
<pdfrwt beam="1">  1        1 0.58138952E-01 0.16007734E+04</pdfrwt>
<pdfrwt beam="2">  1       -1 0.26079895E+00 0.16007734E+04</pdfrwt>
<totfact> 0.36834703E+00</totfact>
</mgrwt>
</event>
<event>
12    2  0.3518828E-008  0.1981450E+04  0.7818608E-02  0.8615343E-01
         -2   -1    0    0    0  501 -0.00000000000E+00  0.00000000000E+00  0.35068094395E+03  0.35068094395E+03  0.00000000000E+00 0. -1.
          2   -1    0    0  501    0  0.00000000000E+00 -0.00000000000E+00 -0.27989426139E+04  0.27989426139E+04  0.00000000000E+00 0.  1.
         23    2    1    2    0    0 -0.45312791000E+03  0.71506043582E+02  0.24122259276E+02  0.46902485710E+03  0.94680600418E+02 0.  0.
        254    2    1    2    0    0  0.45312791000E+03 -0.71506043582E+02 -0.24723839292E+04  0.26805987008E+04  0.92870290397E+03 0.  0.
         23    2    4    4    0    0  0.93149684567E+02  0.18651322215E+03 -0.73314476288E+02  0.23894400883E+03  0.90858027444E+02 0.  0.
         23    2    4    4    0    0  0.35997822543E+03 -0.25801926573E+03 -0.23990694530E+04  0.24416546919E+04  0.99925623545E+02 0.  0.
          1    1    3    3  502    0 -0.51677462764E+02  0.28564577752E+02 -0.21225337059E+02  0.62745598995E+02  0.00000000000E+00 0. -1.
         -1    1    3    3    0  502 -0.40145044724E+03  0.42941465830E+02  0.45347596335E+02  0.40627925811E+03  0.00000000000E+00 0.  1.
         11    1    5    5    0    0  0.28945432347E+02  0.99587253278E+02  0.75340248054E+01  0.10398182822E+03  0.00000000000E+00 0.  1.
        -11    1    5    5    0    0  0.64204252220E+02  0.86925968873E+02 -0.80848501094E+02  0.13496218062E+03  0.00000000000E+00 0. -1.
          4    1    6    6  503    0  0.65565267314E+02 -0.14528504457E+02 -0.50419756795E+03  0.50865024255E+03  0.00000000000E+00 0. -1.
         -4    1    6    6    0  503  0.29441295812E+03 -0.24349076128E+03 -0.18948718850E+04  0.19330044494E+04  0.00000000000E+00 0.  1.
<mgrwt>
<rscale>  0 0.19814498E+04</rscale>
<asrwt>0</asrwt>
<pdfrwt beam="1">  1        2 0.43060657E+00 0.19814498E+04</pdfrwt>
<pdfrwt beam="2">  1       -2 0.53950913E-01 0.19814498E+04</pdfrwt>
<totfact> 0.69836970E+00</totfact>
</mgrwt>
</event>
<event>
12    2  0.3518828E-008  0.1612749E+04  0.7818608E-02  0.8812754E-01
          1   -1    0    0  501    0  0.00000000000E+00  0.00000000000E+00  0.39085299118E+03  0.39085299118E+03  0.00000000000E+00 0. -1.
         -1   -1    0    0    0  501 -0.00000000000E+00 -0.00000000000E+00 -0.16636423066E+04  0.16636423066E+04  0.00000000000E+00 0.  1.
         23    2    1    2    0    0  0.86913907284E+02 -0.11658004562E+03  0.23580089870E+03  0.29159715622E+03  0.91004963442E+02 0.  0.
        254    2    1    2    0    0 -0.86913907284E+02  0.11658004562E+03 -0.15085902141E+04  0.17628981416E+04  0.90045571187E+03 0.  0.
         23    2    4    4    0    0 -0.30885708423E+03  0.39240270670E+03 -0.11191815187E+04  0.12288008900E+04  0.89508506554E+02 0.  0.
         23    2    4    4    0    0  0.22194317694E+03 -0.27582266108E+03 -0.38940869546E+03  0.53409725160E+03  0.91015536648E+02 0.  0.
          1    1    3    3  502    0  0.49282674944E+02 -0.10050322004E+03  0.22162673788E+03  0.24829033455E+03  0.00000000000E+00 0. -1.
         -1    1    3    3    0  502  0.37631232339E+02 -0.16076825585E+02  0.14174160822E+02  0.43306821671E+02  0.00000000000E+00 0.  1.
         11    1    5    5    0    0 -0.11754068602E+03  0.84828899827E+02 -0.33378111233E+03  0.36389776870E+03  0.00000000000E+00 0. -1.
        -11    1    5    5    0    0 -0.19131639820E+03  0.30757380687E+03 -0.78540040634E+03  0.86490312126E+03  0.00000000000E+00 0.  1.
          1    1    6    6  503    0  0.93635274560E+02 -0.55746754533E+02 -0.14185555895E+03  0.17888058835E+03  0.00000000000E+00 0. -1.
         -1    1    6    6    0  503  0.12830790238E+03 -0.22007590654E+03 -0.24755313650E+03  0.35521666325E+03  0.00000000000E+00 0.  1.
<mgrwt>
<rscale>  0 0.16127487E+04</rscale>
<asrwt>0</asrwt>
<pdfrwt beam="1">  1        1 0.60131231E-01 0.16127487E+04</pdfrwt>
<pdfrwt beam="2">  1       -1 0.25594496E+00 0.16127487E+04</pdfrwt>
<totfact> 0.37835702E+00</totfact>
</mgrwt>
</event>
<event>
12    2  0.3518828E-008  0.1730884E+04  0.7818608E-02  0.8743944E-01
          1   -1    0    0  501    0  0.00000000000E+00  0.00000000000E+00  0.17560968618E+04  0.17560968618E+04  0.00000000000E+00 0. -1.
         -1   -1    0    0    0  501 -0.00000000000E+00 -0.00000000000E+00 -0.42650818123E+03  0.42650818123E+03  0.00000000000E+00 0.  1.
         23    2    1    2    0    0 -0.33893243413E+03 -0.27297149440E+03 -0.84193889470E+02  0.45235293224E+03  0.90254820503E+02 0.  0.
        254    2    1    2    0    0  0.33893243413E+03  0.27297149440E+03  0.14137825700E+04  0.17302521108E+04  0.89755366407E+03 0.  0.
         23    2    4    4    0    0  0.47342644316E+03 -0.15427473307E+03  0.51147274161E+03  0.71863131776E+03  0.83025990588E+02 0.  0.
         23    2    4    4    0    0 -0.13449400903E+03  0.42724622747E+03  0.90230982844E+03  0.10116207930E+04  0.92658647987E+02 0.  0.
          3    1    3    3  502    0 -0.15566745600E+03 -0.77829546951E+02 -0.89314866490E+01  0.17426866238E+03  0.00000000000E+00 0. -1.
         -3    1    3    3    0  502 -0.18326497813E+03 -0.19514194745E+03 -0.75262402821E+02  0.27808426986E+03  0.00000000000E+00 0.  1.
         11    1    5    5    0    0  0.36249926886E+03 -0.13805138008E+03  0.35272316629E+03  0.52428764577E+03  0.00000000000E+00 0.  1.
        -11    1    5    5    0    0  0.11092717429E+03 -0.16223352988E+02  0.15874957532E+03  0.19434367199E+03  0.00000000000E+00 0. -1.
          3    1    6    6  503    0 -0.84013327231E+02  0.33248784826E+03  0.75597570455E+03  0.83012389091E+03  0.00000000000E+00 0.  1.
         -3    1    6    6    0  503 -0.50480681799E+02  0.94758379210E+02  0.14633412390E+03  0.18149690213E+03  0.00000000000E+00 0. -1.
<mgrwt>
<rscale>  0 0.17308838E+04</rscale>
<asrwt>0</asrwt>
<pdfrwt beam="1">  1        1 0.27016874E+00 0.17308838E+04</pdfrwt>
<pdfrwt beam="2">  1       -1 0.65616644E-01 0.17308838E+04</pdfrwt>
<totfact> 0.97519483E+00</totfact>
</mgrwt>
</event>
<event>
12    2  0.3518828E-008  0.1259602E+04  0.7818608E-02  0.9062229E-01
         -2   -1    0    0    0  501 -0.00000000000E+00  0.00000000000E+00  0.70138471880E+03  0.70138471880E+03  0.00000000000E+00 0.  1.
          2   -1    0    0  501    0  0.00000000000E+00 -0.00000000000E+00 -0.56552346550E+03  0.56552346550E+03  0.00000000000E+00 0. -1.
         23    2    1    2    0    0  0.59118110441E+02  0.12006912852E+03 -0.24679077238E+03  0.29481041287E+03  0.89977483824E+02 0.  0.
        254    2    1    2    0    0 -0.59118110441E+02 -0.12006912852E+03  0.38265202568E+03  0.97209777144E+03  0.88353831715E+03 0.  0.
         23    2    4    4    0    0  0.13776096982E+03  0.17238583080E+02 -0.24392429499E+03  0.29495175822E+03  0.90676482282E+02 0.  0.
         23    2    4    4    0    0 -0.19687908026E+03 -0.13730771160E+03  0.62657632067E+03  0.67714601322E+03  0.91181454717E+02 0.  0.
          3    1    3    3  502    0  0.25950779889E+02  0.11671508133E+03 -0.22555150974E+03  0.25528285633E+03  0.00000000000E+00 0. -1.
         -3    1    3    3    0  502  0.33167330552E+02  0.33540471895E+01 -0.21239262640E+02  0.39527556540E+02  0.00000000000E+00 0.  1.
         11    1    5    5    0    0  0.10166724502E+03  0.68135997840E+01 -0.88220037735E+02  0.13477918574E+03  0.00000000000E+00 0.  1.
        -11    1    5    5    0    0  0.36093724799E+02  0.10424983296E+02 -0.15570425726E+03  0.16017257248E+03  0.00000000000E+00 0. -1.
          3    1    6    6  503    0 -0.18362685667E+03 -0.85271697605E+02  0.51336351187E+03  0.55184434420E+03  0.00000000000E+00 0. -1.
         -3    1    6    6    0  503 -0.13252223583E+02 -0.52036013998E+02  0.11321280880E+03  0.12530166902E+03  0.00000000000E+00 0.  1.
<mgrwt>
<rscale>  0 0.12596023E+04</rscale>
<asrwt>0</asrwt>
<pdfrwt beam="1">  1        2 0.87003610E-01 0.12596023E+04</pdfrwt>
<pdfrwt beam="2">  1       -2 0.10790534E+00 0.12596023E+04</pdfrwt>
<totfact> 0.36031181E+01</totfact>
</mgrwt>
</event>
<event>
12    2  0.3518828E-008  0.2529415E+04  0.7818608E-02  0.8392581E-01
         -2   -1    0    0    0  501 -0.00000000000E+00  0.00000000000E+00  0.84828844607E+03  0.84828844607E+03  0.00000000000E+00 0. -1.
          2   -1    0    0  501    0  0.00000000000E+00 -0.00000000000E+00 -0.18855431355E+04  0.18855431355E+04  0.00000000000E+00 0.  1.
         23    2    1    2    0    0  0.81252007800E+03 -0.20690970757E+03 -0.12250070818E+04  0.14871452907E+04  0.89209086441E+02 0.  0.
        254    2    1    2    0    0 -0.81252007800E+03  0.20690970757E+03  0.18775239230E+03  0.12466862909E+04  0.90331347981E+03 0.  0.
         23    2    4    4    0    0 -0.95128123154E+03 -0.11208333434E+00  0.72169926021E+02  0.95832252689E+03  0.90761078059E+02 0.  0.
         23    2    4    4    0    0  0.13876115353E+03  0.20702179091E+03  0.11558246628E+03  0.28836376399E+03  0.87645160909E+02 0.  0.
          4    1    3    3  502    0  0.62735158370E+03 -0.19778234309E+03 -0.95614338008E+03  0.11605593600E+04  0.00000000000E+00 0.  1.
         -4    1    3    3    0  502  0.18516849430E+03 -0.91273644868E+01 -0.26886370168E+03  0.32658593072E+03  0.00000000000E+00 0. -1.
         11    1    5    5    0    0 -0.54480495733E+03 -0.61482848192E+01 -0.33302507650E+01  0.54484982656E+03  0.00000000000E+00 0. -1.
        -11    1    5    5    0    0 -0.40647627421E+03  0.60362014849E+01  0.75500176786E+02  0.41347270033E+03  0.00000000000E+00 0.  1.
          2    1    6    6  503    0  0.12373099396E+03  0.16148275781E+03  0.12599339431E+03  0.23929140257E+03  0.00000000000E+00 0. -1.
         -2    1    6    6    0  503  0.15030159573E+02  0.45539033101E+02 -0.10410928033E+02  0.49072361417E+02  0.00000000000E+00 0.  1.
<mgrwt>
<rscale>  0 0.25294145E+04</rscale>
<asrwt>0</asrwt>
<pdfrwt beam="1">  1        2 0.29008355E+00 0.25294145E+04</pdfrwt>
<pdfrwt beam="2">  1       -2 0.13050592E+00 0.25294145E+04</pdfrwt>
<totfact> 0.29598378E+00</totfact>
</mgrwt>
</event>
<event>
12    2  0.3518828E-008  0.4160259E+04  0.7818608E-02  0.7972975E-01
         -2   -1    0    0    0  501 -0.00000000000E+00  0.00000000000E+00  0.16402496307E+04  0.16402496307E+04  0.00000000000E+00 0. -1.
          2   -1    0    0  501    0  0.00000000000E+00 -0.00000000000E+00 -0.26379762579E+04  0.26379762579E+04  0.00000000000E+00 0.  1.
         23    2    1    2    0    0  0.60236097859E+02  0.11714200064E+04 -0.21192915546E+04  0.24238589656E+04  0.88557173229E+02 0.  0.
        254    2    1    2    0    0 -0.60236097859E+02 -0.11714200064E+04  0.11215649274E+04  0.18543669230E+04  0.89717087557E+03 0.  0.
         23    2    4    4    0    0 -0.42413110366E+03 -0.91290135404E+03  0.87740075090E+03  0.13383502272E+04  0.89850864028E+02 0.  0.
         23    2    4    4    0    0  0.36389500580E+03 -0.25851865238E+03  0.24416417648E+03  0.51601669579E+03  0.86055891048E+02 0.  0.
          1    1    3    3  502    0  0.75245885023E+02  0.87344241978E+03 -0.16291324375E+04  0.18500367842E+04  0.00000000000E+00 0. -1.
         -1    1    3    3    0  502 -0.15009787164E+02  0.29797758665E+03 -0.49015911706E+03  0.57382218142E+03  0.00000000000E+00 0.  1.
         11    1    5    5    0    0 -0.37786908531E+03 -0.85102628306E+03  0.83224348617E+03  0.12488634835E+04  0.00000000000E+00 0.  1.
        -11    1    5    5    0    0 -0.46262018352E+02 -0.61875070989E+02  0.45157264726E+02  0.89486743764E+02  0.00000000000E+00 0. -1.
          2    1    6    6  503    0  0.55453094478E+02 -0.42517216006E+02  0.77136353819E+02  0.10408062464E+03  0.00000000000E+00 0. -1.
         -2    1    6    6    0  503  0.30844191132E+03 -0.21600143637E+03  0.16702782266E+03  0.41193607115E+03  0.00000000000E+00 0.  1.
<mgrwt>
<rscale>  0 0.41602594E+04</rscale>
<asrwt>0</asrwt>
<pdfrwt beam="1">  1        2 0.40584250E+00 0.41602594E+04</pdfrwt>
<pdfrwt beam="2">  1       -2 0.25234610E+00 0.41602594E+04</pdfrwt>
<totfact> 0.13990898E-01</totfact>
</mgrwt>
</event>
<event>
12    2  0.3518828E-008  0.2248961E+04  0.7818608E-02  0.8498321E-01
         -2   -1    0    0    0  501 -0.00000000000E+00  0.00000000000E+00  0.62201888834E+03  0.62201888834E+03  0.00000000000E+00 0.  1.
          2   -1    0    0  501    0  0.00000000000E+00 -0.00000000000E+00 -0.20328266022E+04  0.20328266022E+04  0.00000000000E+00 0. -1.
         23    2    1    2    0    0 -0.55331491781E+03  0.32344535552E+03 -0.14226868358E+04  0.15629912066E+04  0.90163091051E+02 0.  0.
        254    2    1    2    0    0  0.55331491781E+03 -0.32344535552E+03  0.11879121944E+02  0.10918542839E+04  0.88387237057E+03 0.  0.
         23    2    4    4    0    0  0.36027388305E+03  0.73551762053E+02 -0.34783660295E+03  0.51440606313E+03  0.91739647504E+02 0.  0.
         23    2    4    4    0    0  0.19304103475E+03 -0.39699711758E+03  0.35971572489E+03  0.57744822077E+03  0.95809667964E+02 0.  0.
          1    1    3    3  502    0 -0.49549410704E+03  0.27472517220E+03 -0.13102559917E+04  0.14275009962E+04  0.00000000000E+00 0. -1.
         -1    1    3    3    0  502 -0.57820810770E+02  0.48720183322E+02 -0.11243084411E+03  0.13549021045E+03  0.00000000000E+00 0.  1.
         11    1    5    5    0    0  0.33663997670E+03  0.59654415353E+02 -0.28232106204E+03  0.44338505304E+03  0.00000000000E+00 0.  1.
        -11    1    5    5    0    0  0.23633906355E+02  0.13897346700E+02 -0.65515540904E+02  0.71021010094E+02  0.00000000000E+00 0. -1.
          1    1    6    6  503    0 -0.58118948920E+00 -0.58665416207E+02  0.25494745385E+02  0.63968358445E+02  0.00000000000E+00 0. -1.
         -1    1    6    6    0  503  0.19362222424E+03 -0.33833170137E+03  0.33422097951E+03  0.51347986233E+03  0.00000000000E+00 0.  1.
<mgrwt>
<rscale>  0 0.22489611E+04</rscale>
<asrwt>0</asrwt>
<pdfrwt beam="1">  1        2 0.31274256E+00 0.22489611E+04</pdfrwt>
<pdfrwt beam="2">  1       -2 0.95695213E-01 0.22489611E+04</pdfrwt>
<totfact> 0.53427765E+00</totfact>
</mgrwt>
</event>
<event>
12    2  0.3518828E-008  0.1802421E+04  0.7818608E-02  0.8705013E-01
          2   -1    0    0  501    0  0.00000000000E+00  0.00000000000E+00  0.11784430776E+04  0.11784430776E+04  0.00000000000E+00 0.  1.
         -2   -1    0    0    0  501 -0.00000000000E+00 -0.00000000000E+00 -0.68919808984E+03  0.68919808984E+03  0.00000000000E+00 0. -1.
         23    2    1    2    0    0 -0.36634560094E+03 -0.56830882179E+03  0.15962480253E+03  0.70016147541E+03  0.86959748232E+02 0.  0.
        254    2    1    2    0    0  0.36634560094E+03  0.56830882179E+03  0.32962018520E+03  0.11674796920E+04  0.89284676653E+03 0.  0.
         23    2    4    4    0    0  0.45692912545E+03  0.36027429831E+03 -0.16878897068E+03  0.61207845010E+03  0.86997222614E+02 0.  0.
         23    2    4    4    0    0 -0.90583524509E+02  0.20803452347E+03  0.49840915588E+03  0.55540124191E+03  0.92601916700E+02 0.  0.
          3    1    3    3  502    0 -0.12423325356E+03 -0.15578943869E+03  0.82499873555E+02  0.21566288423E+03  0.00000000000E+00 0. -1.
         -3    1    3    3    0  502 -0.24211234738E+03 -0.41251938310E+03  0.77124928976E+02  0.48449859118E+03  0.00000000000E+00 0.  1.
         11    1    5    5    0    0  0.56829105683E+02  0.85638403565E+02 -0.22402748049E+02  0.10519204598E+03  0.00000000000E+00 0. -1.
        -11    1    5    5    0    0  0.40010001976E+03  0.27463589475E+03 -0.14638622263E+03  0.50688640411E+03  0.00000000000E+00 0.  1.
          3    1    6    6  503    0 -0.73453956928E+00  0.65160713570E+02  0.22359737485E+03  0.23289964401E+03  0.00000000000E+00 0. -1.
         -3    1    6    6    0  503 -0.89848984939E+02  0.14287380990E+03  0.27481178103E+03  0.32250159789E+03  0.00000000000E+00 0.  1.
<mgrwt>
<rscale>  0 0.18024214E+04</rscale>
<asrwt>0</asrwt>
<pdfrwt beam="1">  1        2 0.18129893E+00 0.18024214E+04</pdfrwt>
<pdfrwt beam="2">  1       -2 0.10603048E+00 0.18024214E+04</pdfrwt>
<totfact> 0.13227413E+01</totfact>
</mgrwt>
</event>
<event>
12    2  0.3518828E-008  0.1572334E+04  0.7818608E-02  0.8837727E-01
         -1   -1    0    0    0  501 -0.00000000000E+00  0.00000000000E+00  0.66507635850E+03  0.66507635850E+03  0.00000000000E+00 0.  1.
          1   -1    0    0  501    0  0.00000000000E+00 -0.00000000000E+00 -0.92930460375E+03  0.92930460375E+03  0.00000000000E+00 0. -1.
         23    2    1    2    0    0 -0.39810996852E+03 -0.82185522293E+02  0.23819668570E+03  0.47937586508E+03  0.88416920504E+02 0.  0.
        254    2    1    2    0    0  0.39810996852E+03  0.82185522293E+02 -0.50242493095E+03  0.11150050972E+04  0.90860307526E+03 0.  0.
         23    2    4    4    0    0 -0.63593034960E+02 -0.28158741554E+03  0.45545026229E+02  0.30626056873E+03  0.91573139389E+02 0.  0.
         23    2    4    4    0    0  0.46170300348E+03  0.36377293784E+03 -0.54796995718E+03  0.80874452844E+03  0.91083613173E+02 0.  0.
          4    1    3    3  502    0 -0.17574699670E+03 -0.53693685979E+02  0.61015733527E+02  0.19363093374E+03  0.00000000000E+00 0. -1.
         -4    1    3    3    0  502 -0.22236297182E+03 -0.28491836314E+02  0.17718095217E+03  0.28574493134E+03  0.00000000000E+00 0.  1.
         11    1    5    5    0    0  0.43645274117E+01 -0.67158022081E+02 -0.22978649985E+02  0.71114466774E+02  0.00000000000E+00 0.  1.
        -11    1    5    5    0    0 -0.67957562371E+02 -0.21442939346E+03  0.68523676214E+02  0.23514610196E+03  0.00000000000E+00 0. -1.
          4    1    6    6  503    0  0.27300714452E+03  0.22430817597E+03 -0.38790527769E+03  0.52470712138E+03  0.00000000000E+00 0. -1.
         -4    1    6    6    0  503  0.18869585896E+03  0.13946476187E+03 -0.16006467949E+03  0.28403740707E+03  0.00000000000E+00 0.  1.
<mgrwt>
<rscale>  0 0.15723340E+04</rscale>
<asrwt>0</asrwt>
<pdfrwt beam="1">  1        1 0.14296994E+00 0.15723340E+04</pdfrwt>
<pdfrwt beam="2">  1       -1 0.10231944E+00 0.15723340E+04</pdfrwt>
<totfact> 0.14978543E+01</totfact>
</mgrwt>
</event>
<event>
12    2  0.3518828E-008  0.1892999E+04  0.7818608E-02  0.8658349E-01
          2   -1    0    0  501    0  0.00000000000E+00  0.00000000000E+00  0.19462797793E+04  0.19462797793E+04  0.00000000000E+00 0. -1.
         -2   -1    0    0    0  501 -0.00000000000E+00 -0.00000000000E+00 -0.46029437888E+03  0.46029437888E+03  0.00000000000E+00 0.  1.
         23    2    1    2    0    0 -0.13149983772E+02 -0.46550921119E+03  0.12912515761E+04  0.13756594019E+04  0.90754665676E+02 0.  0.
        254    2    1    2    0    0  0.13149983772E+02  0.46550921119E+03  0.19473382430E+03  0.10309147563E+04  0.89888387719E+03 0.  0.
         23    2    4    4    0    0  0.12003029739E+02 -0.11248266217E+03 -0.25495345193E+03  0.29338044683E+03  0.90963739601E+02 0.  0.
         23    2    4    4    0    0  0.11469540330E+01  0.57799187335E+03  0.44968727623E+03  0.73753430948E+03  0.87534508000E+02 0.  0.
          1    1    3    3  502    0 -0.17474620455E+02 -0.34235034753E+03  0.82469699878E+03  0.89310372444E+03  0.00000000000E+00 0. -1.
         -1    1    3    3    0  502  0.43246366824E+01 -0.12315886366E+03  0.46655457734E+03  0.48255567743E+03  0.00000000000E+00 0.  1.
         11    1    5    5    0    0  0.18539724021E+02 -0.74710461434E+02 -0.24032260183E+03  0.25234961337E+03  0.00000000000E+00 0.  1.
        -11    1    5    5    0    0 -0.65366942821E+01 -0.37772200731E+02 -0.14630850093E+02  0.41030833463E+02  0.00000000000E+00 0. -1.
          2    1    6    6  503    0  0.38595285705E+02  0.42942562660E+03  0.34048443472E+03  0.54938658078E+03  0.00000000000E+00 0.  1.
         -2    1    6    6    0  503 -0.37448331672E+02  0.14856624676E+03  0.10920284151E+03  0.18814772870E+03  0.00000000000E+00 0. -1.
<mgrwt>
<rscale>  0 0.18929994E+04</rscale>
<asrwt>0</asrwt>
<pdfrwt beam="1">  1        2 0.29942765E+00 0.18929994E+04</pdfrwt>
<pdfrwt beam="2">  1       -2 0.70814521E-01 0.18929994E+04</pdfrwt>
<totfact> 0.12154505E+01</totfact>
</mgrwt>
</event>
<event>
12    2  0.3518828E-008  0.1248968E+04  0.7818608E-02  0.9071043E-01
         -1   -1    0    0    0  501 -0.00000000000E+00  0.00000000000E+00  0.72852788633E+03  0.72852788633E+03  0.00000000000E+00 0.  1.
          1   -1    0    0  501    0  0.00000000000E+00 -0.00000000000E+00 -0.53529909678E+03  0.53529909678E+03  0.00000000000E+00 0. -1.
         23    2    1    2    0    0 -0.96766449820E+01  0.14830679424E+03  0.29921097505E+03  0.34578041612E+03  0.89153496349E+02 0.  0.
        254    2    1    2    0    0  0.96766449820E+01 -0.14830679424E+03 -0.10598218550E+03  0.91804656699E+03  0.89971591785E+03 0.  0.
         23    2    4    4    0    0  0.37449978782E+03  0.86090354991E+02  0.13012389492E+03  0.41592628942E+03  0.91655932205E+02 0.  0.
         23    2    4    4    0    0 -0.36482314283E+03 -0.23439714923E+03 -0.23610608042E+03  0.50212027756E+03  0.91327667319E+02 0.  0.
          3    1    3    3  502    0 -0.47748319835E+01 -0.95346216009E+01  0.47119309061E+02  0.48310840563E+02  0.00000000000E+00 0. -1.
         -3    1    3    3    0  502 -0.49018129986E+01  0.15784141584E+03  0.25209166599E+03  0.29746957556E+03  0.00000000000E+00 0.  1.
         11    1    5    5    0    0  0.34157567573E+03  0.90974489281E+02  0.14149836462E+03  0.38075200215E+03  0.00000000000E+00 0. -1.
        -11    1    5    5    0    0  0.32924112082E+02 -0.48841342905E+01 -0.11374469699E+02  0.35174287272E+02  0.00000000000E+00 0.  1.
          4    1    6    6  503    0 -0.24170595768E+03 -0.20001752779E+03 -0.14813973310E+03  0.34694979741E+03  0.00000000000E+00 0. -1.
         -4    1    6    6    0  503 -0.12311718515E+03 -0.34379621439E+02 -0.87966347320E+02  0.15517048015E+03  0.00000000000E+00 0.  1.
<mgrwt>
<rscale>  0 0.12489681E+04</rscale>
<asrwt>0</asrwt>
<pdfrwt beam="1">  1        1 0.82353707E-01 0.12489681E+04</pdfrwt>
<pdfrwt beam="2">  1       -1 0.11208121E+00 0.12489681E+04</pdfrwt>
<totfact> 0.29026897E+01</totfact>
</mgrwt>
</event>
<event>
12    2  0.3518828E-008  0.2140104E+04  0.7818608E-02  0.8543780E-01
         -2   -1    0    0    0  501 -0.00000000000E+00  0.00000000000E+00  0.13765636361E+04  0.13765636361E+04  0.00000000000E+00 0.  1.
          2   -1    0    0  501    0  0.00000000000E+00 -0.00000000000E+00 -0.83178973994E+03  0.83178973994E+03  0.00000000000E+00 0. -1.
         23    2    1    2    0    0  0.30351851351E+02  0.69558852160E+03  0.77834093228E+03  0.10484724256E+04  0.93355204375E+02 0.  0.
        254    2    1    2    0    0 -0.30351851351E+02 -0.69558852160E+03 -0.23356703609E+03  0.11598809504E+04  0.89777816446E+03 0.  0.
         23    2    4    4    0    0  0.56240060441E+02 -0.80511344645E+03  0.67990768591E+02  0.81501901943E+03  0.90899127404E+02 0.  0.
         23    2    4    4    0    0 -0.86591911792E+02  0.10952492486E+03 -0.30155780468E+03  0.34486193101E+03  0.92188792925E+02 0.  0.
          1    1    3    3  502    0  0.25294201530E+02  0.45520353374E+02  0.66293530206E+02  0.84301431480E+02  0.00000000000E+00 0. -1.
         -1    1    3    3    0  502  0.50576498208E+01  0.65006816822E+03  0.71204740207E+03  0.96417099415E+03  0.00000000000E+00 0.  1.
         11    1    5    5    0    0  0.19668284432E+02 -0.36607276154E+03 -0.14114182766E+02  0.36687234607E+03  0.00000000000E+00 0.  1.
        -11    1    5    5    0    0  0.36571776009E+02 -0.43904068491E+03  0.82104951357E+02  0.44814667336E+03  0.00000000000E+00 0. -1.
          1    1    6    6  503    0 -0.17889523355E+02 -0.12153536250E+02 -0.80402352192E+02  0.83260325049E+02  0.00000000000E+00 0. -1.
         -1    1    6    6    0  503 -0.68702388437E+02  0.12167846111E+03 -0.22115545249E+03  0.26160160596E+03  0.00000000000E+00 0.  1.
<mgrwt>
<rscale>  0 0.21401042E+04</rscale>
<asrwt>0</asrwt>
<pdfrwt beam="1">  1        2 0.12796765E+00 0.21401042E+04</pdfrwt>
<pdfrwt beam="2">  1       -2 0.21177902E+00 0.21401042E+04</pdfrwt>
<totfact> 0.33473386E+00</totfact>
</mgrwt>
</event>
<event>
12    2  0.3518828E-008  0.1351029E+04  0.7818608E-02  0.8990049E-01
         -2   -1    0    0    0  501 -0.00000000000E+00  0.00000000000E+00  0.16590885873E+03  0.16590885873E+03  0.00000000000E+00 0. -1.
          2   -1    0    0  501    0  0.00000000000E+00 -0.00000000000E+00 -0.27504263706E+04  0.27504263706E+04  0.00000000000E+00 0.  1.
         23    2    1    2    0    0  0.17808794011E+01  0.19962391602E+03 -0.13955294735E+04  0.14126197509E+04  0.90217348171E+02 0.  0.
        254    2    1    2    0    0 -0.17808794011E+01 -0.19962391602E+03 -0.11889880384E+04  0.15037154784E+04  0.89867391486E+03 0.  0.
         23    2    4    4    0    0  0.43439185196E+03 -0.15981414250E+03 -0.66070217494E+03  0.81186111884E+03  0.91401701929E+02 0.  0.
         23    2    4    4    0    0 -0.43617273136E+03 -0.39809773514E+02 -0.52828586345E+03  0.69185435959E+03  0.88005861793E+02 0.  0.
          2    1    3    3  502    0 -0.14110450553E+02  0.12449439378E+03 -0.11062033292E+04  0.11132761402E+04  0.00000000000E+00 0. -1.
         -2    1    3    3    0  502  0.15891329954E+02  0.75129522237E+02 -0.28932614425E+03  0.29934361063E+03  0.00000000000E+00 0.  1.
         11    1    5    5    0    0  0.21779663080E+03 -0.11049751881E+03 -0.28427483761E+03  0.37477627639E+03  0.00000000000E+00 0. -1.
        -11    1    5    5    0    0  0.21659522117E+03 -0.49316623688E+02 -0.37642733733E+03  0.43708484244E+03  0.00000000000E+00 0.  1.
          1    1    6    6  503    0 -0.14116919527E+03 -0.45027907856E+02 -0.21887885013E+03  0.26431837850E+03  0.00000000000E+00 0. -1.
         -1    1    6    6    0  503 -0.29500353610E+03  0.52181343422E+01 -0.30940701332E+03  0.42753598109E+03  0.00000000000E+00 0.  1.
<mgrwt>
<rscale>  0 0.13510294E+04</rscale>
<asrwt>0</asrwt>
<pdfrwt beam="1">  1        2 0.42314252E+00 0.13510294E+04</pdfrwt>
<pdfrwt beam="2">  1       -2 0.25524439E-01 0.13510294E+04</pdfrwt>
<totfact> 0.33655237E+01</totfact>
</mgrwt>
</event>
<event>
12    2  0.3518828E-008  0.1464572E+04  0.7818608E-02  0.8908360E-01
         -2   -1    0    0    0  501 -0.00000000000E+00  0.00000000000E+00  0.83224501631E+03  0.83224501631E+03  0.00000000000E+00 0.  1.
          2   -1    0    0  501    0  0.00000000000E+00 -0.00000000000E+00 -0.64433263266E+03  0.64433263266E+03  0.00000000000E+00 0. -1.
         23    2    1    2    0    0  0.41055438262E+03 -0.87257471007E+02  0.20772034119E+03  0.47901147976E+03  0.10067517204E+03 0.  0.
        254    2    1    2    0    0 -0.41055438262E+03  0.87257471007E+02 -0.19807957531E+02  0.99756616920E+03  0.90475252938E+03 0.  0.
         23    2    4    4    0    0 -0.55139252165E+03 -0.23050483722E+03 -0.13595986226E+03  0.61956262511E+03  0.90590117451E+02 0.  0.
         23    2    4    4    0    0  0.14083813902E+03  0.31776230822E+03  0.11615190473E+03  0.37800354409E+03  0.92666868086E+02 0.  0.
          1    1    3    3  502    0  0.56817138154E+01  0.10799258558E+02  0.16808695264E+02  0.20771087929E+02  0.00000000000E+00 0. -1.
         -1    1    3    3    0  502  0.40487266881E+03 -0.98056729565E+02  0.19091164592E+03  0.45824039183E+03  0.00000000000E+00 0.  1.
         11    1    5    5    0    0 -0.32156979066E+03 -0.91178695845E+02 -0.53955192023E+02  0.33857325291E+03  0.00000000000E+00 0.  1.
        -11    1    5    5    0    0 -0.22982273099E+03 -0.13932614137E+03 -0.82004670240E+02  0.28098937220E+03  0.00000000000E+00 0. -1.
          4    1    6    6  503    0 -0.28325218633E+01  0.59131601467E+02  0.43199145791E+02  0.73285303228E+02  0.00000000000E+00 0. -1.
         -4    1    6    6    0  503  0.14367066089E+03  0.25863070676E+03  0.72952758941E+02  0.30471824086E+03  0.00000000000E+00 0.  1.
<mgrwt>
<rscale>  0 0.14645718E+04</rscale>
<asrwt>0</asrwt>
<pdfrwt beam="1">  1        2 0.99128097E-01 0.14645718E+04</pdfrwt>
<pdfrwt beam="2">  1       -2 0.12803770E+00 0.14645718E+04</pdfrwt>
<totfact> 0.19866868E+01</totfact>
</mgrwt>
</event>
<event>
12    2  0.3518828E-008  0.1846501E+04  0.7818608E-02  0.8681954E-01
         -2   -1    0    0    0  501 -0.00000000000E+00  0.00000000000E+00  0.29110870819E+03  0.29110870819E+03  0.00000000000E+00 0.  1.
          2   -1    0    0  501    0  0.00000000000E+00 -0.00000000000E+00 -0.29280861160E+04  0.29280861160E+04  0.00000000000E+00 0. -1.
         23    2    1    2    0    0  0.17220089683E+03  0.10148694910E+03 -0.21345880260E+04  0.21458719375E+04  0.91365100431E+02 0.  0.
        254    2    1    2    0    0 -0.17220089683E+03 -0.10148694910E+03 -0.50238938174E+03  0.10733228867E+04  0.92718616169E+03 0.  0.
         23    2    4    4    0    0 -0.10512408094E+03  0.38724561285E+02 -0.75189217948E+03  0.76555530241E+03  0.90456660580E+02 0.  0.
         23    2    4    4    0    0 -0.67076815893E+02 -0.14021151038E+03  0.24950279774E+03  0.30776758425E+03  0.91162892474E+02 0.  0.
          3    1    3    3  502    0  0.13640763008E+03  0.89242078727E+02 -0.12646920616E+04  0.12751537949E+04  0.00000000000E+00 0. -1.
         -3    1    3    3    0  502  0.35793266748E+02  0.12244870369E+02 -0.86989596447E+03  0.87071814257E+03  0.00000000000E+00 0.  1.
         11    1    5    5    0    0 -0.31367205379E+02 -0.29345894617E+01 -0.53822669198E+02  0.62364999063E+02  0.00000000000E+00 0. -1.
        -11    1    5    5    0    0 -0.73756875558E+02  0.41659150746E+02 -0.69806951028E+03  0.70319030334E+03  0.00000000000E+00 0.  1.
          4    1    6    6  503    0 -0.35286682484E+02 -0.98523887203E+02  0.84105289144E+02  0.13426021738E+03  0.00000000000E+00 0. -1.
         -4    1    6    6    0  503 -0.31790133408E+02 -0.41687623178E+02  0.16539750859E+03  0.17350736687E+03  0.00000000000E+00 0.  1.
<mgrwt>
<rscale>  0 0.18465009E+04</rscale>
<asrwt>0</asrwt>
<pdfrwt beam="1">  1        2 0.45047477E+00 0.18465009E+04</pdfrwt>
<pdfrwt beam="2">  1       -2 0.44785957E-01 0.18465009E+04</pdfrwt>
<totfact> 0.86105358E+00</totfact>
</mgrwt>
</event>
<event>
12    2  0.3518828E-008  0.1504138E+04  0.7818608E-02  0.8881706E-01
          1   -1    0    0  501    0  0.00000000000E+00  0.00000000000E+00  0.62449151466E+03  0.62449151466E+03  0.00000000000E+00 0. -1.
         -1   -1    0    0    0  501 -0.00000000000E+00 -0.00000000000E+00 -0.90570942053E+03  0.90570942053E+03  0.00000000000E+00 0.  1.
         23    2    1    2    0    0  0.48075241358E+02 -0.26725704044E+03  0.32650191199E+03  0.43461043353E+03  0.92440120636E+02 0.  0.
        254    2    1    2    0    0 -0.48075241358E+02  0.26725704044E+03 -0.60771981786E+03  0.10955905017E+04  0.87020550207E+03 0.  0.
         23    2    4    4    0    0 -0.21224819502E+03  0.20286813128E+03  0.12812644180E+03  0.33344548077E+03  0.92545818802E+02 0.  0.
         23    2    4    4    0    0  0.16417295367E+03  0.64388909168E+02 -0.73584625966E+03  0.76214502090E+03  0.91085809482E+02 0.  0.
          3    1    3    3  502    0  0.70487945671E+02 -0.24257434061E+03  0.29874635970E+03  0.39122915106E+03  0.00000000000E+00 0. -1.
         -3    1    3    3    0  502 -0.22412704313E+02 -0.24682699837E+02  0.27755552286E+02  0.43381282468E+02  0.00000000000E+00 0.  1.
         11    1    5    5    0    0 -0.32538064431E-01  0.13223448006E+02 -0.10488846097E+02  0.16878285705E+02  0.00000000000E+00 0. -1.
        -11    1    5    5    0    0 -0.21221565696E+03  0.18964468327E+03  0.13861528790E+03  0.31656719506E+03  0.00000000000E+00 0.  1.
          3    1    6    6  503    0  0.46074749205E+02 -0.27939328698E+01 -0.79903539915E+02  0.92278189547E+02  0.00000000000E+00 0. -1.
         -3    1    6    6    0  503  0.11809820446E+03  0.67182842038E+02 -0.65594271974E+03  0.66986683135E+03  0.00000000000E+00 0.  1.
<mgrwt>
<rscale>  0 0.15041381E+04</rscale>
<asrwt>0</asrwt>
<pdfrwt beam="1">  1        1 0.96075618E-01 0.15041381E+04</pdfrwt>
<pdfrwt beam="2">  1       -1 0.13933991E+00 0.15041381E+04</pdfrwt>
<totfact> 0.13261356E+01</totfact>
</mgrwt>
</event>
<event>
12    2  0.3518828E-008  0.2091624E+04  0.7818608E-02  0.8564942E-01
         -2   -1    0    0    0  501 -0.00000000000E+00  0.00000000000E+00  0.43523124705E+03  0.43523124705E+03  0.00000000000E+00 0.  1.
          2   -1    0    0  501    0  0.00000000000E+00 -0.00000000000E+00 -0.25129697053E+04  0.25129697053E+04  0.00000000000E+00 0. -1.
         23    2    1    2    0    0  0.32248993268E+03  0.30394477489E+03  0.17205788498E+03  0.48404319268E+03  0.91168600570E+02 0.  0.
        254    2    1    2    0    0 -0.32248993268E+03 -0.30394477489E+03 -0.22497963432E+04  0.24641577596E+04  0.90227916727E+03 0.  0.
         23    2    4    4    0    0 -0.59223726695E+03 -0.20742427242E+02 -0.12333765918E+04  0.13712753250E+04  0.89459325750E+02 0.  0.
         23    2    4    4    0    0  0.26974733427E+03 -0.28320234764E+03 -0.10164197513E+04  0.10928824346E+04  0.91190520229E+02 0.  0.
          3    1    3    3  502    0  0.14889911963E+03  0.18836432532E+03  0.60861498505E+02  0.24770181445E+03  0.00000000000E+00 0. -1.
         -3    1    3    3    0  502  0.17359081305E+03  0.11558044957E+03  0.11119638648E+03  0.23634137823E+03  0.00000000000E+00 0.  1.
         11    1    5    5    0    0 -0.16063560334E+02  0.13310570622E+02 -0.62079720546E+02  0.65491228146E+02  0.00000000000E+00 0. -1.
        -11    1    5    5    0    0 -0.57617370662E+03 -0.34052997864E+02 -0.11712968713E+04  0.13057840968E+04  0.00000000000E+00 0.  1.
          4    1    6    6  503    0  0.93320924338E+01 -0.50644940808E+02 -0.10707436605E+03  0.11881463649E+03  0.00000000000E+00 0. -1.
         -4    1    6    6    0  503  0.26041524183E+03 -0.23255740684E+03 -0.90934538530E+03  0.97406779816E+03  0.00000000000E+00 0.  1.
<mgrwt>
<rscale>  0 0.20916242E+04</rscale>
<asrwt>0</asrwt>
<pdfrwt beam="1">  1        2 0.38661072E+00 0.20916242E+04</pdfrwt>
<pdfrwt beam="2">  1       -2 0.66958653E-01 0.20916242E+04</pdfrwt>
<totfact> 0.64624836E+00</totfact>
</mgrwt>
</event>
<event>
12    2  0.3518828E-008  0.1550648E+04  0.7818608E-02  0.8851454E-01
          2   -1    0    0  501    0  0.00000000000E+00  0.00000000000E+00  0.53636134696E+03  0.53636134696E+03  0.00000000000E+00 0.  1.
         -2   -1    0    0    0  501 -0.00000000000E+00 -0.00000000000E+00 -0.11207510545E+04  0.11207510545E+04  0.00000000000E+00 0. -1.
         23    2    1    2    0    0  0.34683136759E+03 -0.19462480103E+03 -0.59810115995E+03  0.72397051781E+03  0.90760687596E+02 0.  0.
        254    2    1    2    0    0 -0.34683136759E+03  0.19462480103E+03  0.13711452438E+02  0.93314188361E+03  0.84403492837E+03 0.  0.
         23    2    4    4    0    0 -0.15452940177E+03  0.15238986940E+03 -0.40116152796E+03  0.46527285896E+03  0.91903500808E+02 0.  0.
         23    2    4    4    0    0 -0.19230196581E+03  0.42234931635E+02  0.41487298040E+03  0.46786902466E+03  0.89543279260E+02 0.  0.
          1    1    3    3  502    0  0.29383970383E+03 -0.12755882840E+03 -0.44016097505E+03  0.54438470791E+03  0.00000000000E+00 0. -1.
         -1    1    3    3    0  502  0.52991663757E+02 -0.67065972636E+02 -0.15794018490E+03  0.17958580990E+03  0.00000000000E+00 0.  1.
         11    1    5    5    0    0 -0.12819634534E+03  0.12975422578E+03 -0.24584126897E+03  0.30611826407E+03  0.00000000000E+00 0. -1.
        -11    1    5    5    0    0 -0.26333056436E+02  0.22635643619E+02 -0.15532025899E+03  0.15915459489E+03  0.00000000000E+00 0.  1.
          2    1    6    6  503    0 -0.76590572411E+02 -0.25459504943E+02  0.18347554663E+03  0.20044345433E+03  0.00000000000E+00 0. -1.
         -2    1    6    6    0  503 -0.11571139340E+03  0.67694436578E+02  0.23139743377E+03  0.26742557032E+03  0.00000000000E+00 0.  1.
<mgrwt>
<rscale>  0 0.15506483E+04</rscale>
<asrwt>0</asrwt>
<pdfrwt beam="1">  1        2 0.82517131E-01 0.15506483E+04</pdfrwt>
<pdfrwt beam="2">  1       -2 0.17242324E+00 0.15506483E+04</pdfrwt>
<totfact> 0.11171810E+01</totfact>
</mgrwt>
</event>
<event>
12    2  0.3518828E-008  0.1676389E+04  0.7818608E-02  0.8774947E-01
          2   -1    0    0  501    0  0.00000000000E+00  0.00000000000E+00  0.26353949368E+04  0.26353949368E+04  0.00000000000E+00 0. -1.
         -2   -1    0    0    0  501 -0.00000000000E+00 -0.00000000000E+00 -0.26658991510E+03  0.26658991510E+03  0.00000000000E+00 0.  1.
         23    2    1    2    0    0 -0.37315478857E+02  0.58749554443E+03  0.73890216353E+03  0.94909660761E+03  0.90909315341E+02 0.  0.
        254    2    1    2    0    0  0.37315478857E+02 -0.58749554443E+03  0.16299028582E+04  0.19528882443E+04  0.90035865516E+03 0.  0.
         23    2    4    4    0    0 -0.23894722548E+03  0.11166831901E+03  0.69991226461E+03  0.75350199179E+03  0.91227646274E+02 0.  0.
         23    2    4    4    0    0  0.27626270434E+03 -0.69916386344E+03  0.92999059355E+03  0.11993862525E+04  0.92161211013E+02 0.  0.
          3    1    3    3  502    0 -0.53960380592E+02  0.39502605953E+03  0.44603900056E+03  0.59825421052E+03  0.00000000000E+00 0.  1.
         -3    1    3    3    0  502  0.16644901735E+02  0.19246948490E+03  0.29286316297E+03  0.35084239709E+03  0.00000000000E+00 0. -1.
         11    1    5    5    0    0 -0.15189897488E+03  0.63171901582E+02  0.30870887419E+03  0.34980731371E+03  0.00000000000E+00 0. -1.
        -11    1    5    5    0    0 -0.87048250599E+02  0.48496417429E+02  0.39120339042E+03  0.40369467808E+03  0.00000000000E+00 0.  1.
          4    1    6    6  503    0  0.28311430892E+03 -0.68424195094E+03  0.91547866735E+03  0.11774726960E+04  0.00000000000E+00 0. -1.
         -4    1    6    6    0  503 -0.68516045785E+01 -0.14921912501E+02  0.14511926195E+02  0.21913556531E+02  0.00000000000E+00 0.  1.
<mgrwt>
<rscale>  0 0.16763886E+04</rscale>
<asrwt>0</asrwt>
<pdfrwt beam="1">  1        2 0.40544536E+00 0.16763886E+04</pdfrwt>
<pdfrwt beam="2">  1       -2 0.41013835E-01 0.16763886E+04</pdfrwt>
<totfact> 0.15607460E+01</totfact>
</mgrwt>
</event>
<event>
12    2  0.3518828E-008  0.1516086E+04  0.7818608E-02  0.8873826E-01
          3   -1    0    0  501    0  0.00000000000E+00  0.00000000000E+00  0.58450249114E+03  0.58450249114E+03  0.00000000000E+00 0. -1.
         -3   -1    0    0    0  501 -0.00000000000E+00 -0.00000000000E+00 -0.98310863811E+03  0.98310863811E+03  0.00000000000E+00 0.  1.
         23    2    1    2    0    0  0.42358601975E+03 -0.20272194281E+03 -0.24176728411E+03  0.53794495048E+03  0.10203944261E+03 0.  0.
        254    2    1    2    0    0 -0.42358601975E+03  0.20272194281E+03 -0.15683886285E+03  0.10296661788E+04  0.90282484933E+03 0.  0.
         23    2    4    4    0    0 -0.18698603131E+03 -0.42440521229E+02  0.35138378393E+03  0.41068164758E+03  0.91781688265E+02 0.  0.
         23    2    4    4    0    0 -0.23659998844E+03  0.24516246404E+03 -0.50822264678E+03  0.61898453119E+03  0.93634410603E+02 0.  0.
          1    1    3    3  502    0  0.97236500995E+02 -0.27416120659E+02 -0.11312834366E+02  0.10165904298E+03  0.00000000000E+00 0. -1.
         -1    1    3    3    0  502  0.32634951876E+03 -0.17530582215E+03 -0.23045444975E+03  0.43628590750E+03  0.00000000000E+00 0.  1.
         11    1    5    5    0    0  0.10470716241E+02 -0.14382892086E+01  0.23077545151E+02  0.25382625251E+02  0.00000000000E+00 0.  1.
        -11    1    5    5    0    0 -0.19745674755E+03 -0.41002232020E+02  0.32830623878E+03  0.38529902233E+03  0.00000000000E+00 0. -1.
          3    1    6    6  503    0 -0.90968995724E+02  0.15930971906E+03 -0.28571595295E+03  0.33954167718E+03  0.00000000000E+00 0. -1.
         -3    1    6    6    0  503 -0.14563099272E+03  0.85852744980E+02 -0.22250669383E+03  0.27944285401E+03  0.00000000000E+00 0.  1.
<mgrwt>
<rscale>  0 0.15160863E+04</rscale>
<asrwt>0</asrwt>
<pdfrwt beam="1">  1        3 0.89923461E-01 0.15160863E+04</pdfrwt>
<pdfrwt beam="2">  1       -3 0.15124748E+00 0.15160863E+04</pdfrwt>
<totfact> 0.89180163E-01</totfact>
</mgrwt>
</event>
<event>
12    2  0.3518828E-008  0.1839753E+04  0.7818608E-02  0.8685440E-01
          2   -1    0    0  501    0  0.00000000000E+00  0.00000000000E+00  0.17707073180E+04  0.17707073180E+04  0.00000000000E+00 0.  1.
         -2   -1    0    0    0  501 -0.00000000000E+00 -0.00000000000E+00 -0.47787261780E+03  0.47787261780E+03  0.00000000000E+00 0. -1.
         23    2    1    2    0    0  0.63466234845E+03  0.22973770760E+03  0.29666090588E+03  0.74300608427E+03  0.92057793598E+02 0.  0.
        254    2    1    2    0    0 -0.63466234845E+03 -0.22973770760E+03  0.99617379431E+03  0.15055738515E+04  0.90488379535E+03 0.  0.
         23    2    4    4    0    0  0.13836011354E+03 -0.11494683364E+03  0.58255420124E+03  0.61669766255E+03  0.92683946986E+02 0.  0.
         23    2    4    4    0    0 -0.77302246198E+03 -0.11479087396E+03  0.41361959307E+03  0.88887618897E+03  0.90989230545E+02 0.  0.
          4    1    3    3  502    0  0.15958536874E+03  0.90236930003E+02  0.11034160839E+03  0.21397538175E+03  0.00000000000E+00 0. -1.
         -4    1    3    3    0  502  0.47507697971E+03  0.13950077759E+03  0.18631929749E+03  0.52903070253E+03  0.00000000000E+00 0.  1.
         11    1    5    5    0    0  0.10470763768E+03 -0.10757610137E+03  0.33943976628E+03  0.37115449870E+03  0.00000000000E+00 0.  1.
        -11    1    5    5    0    0  0.33652475854E+02 -0.73707322660E+01  0.24311443496E+03  0.24554316385E+03  0.00000000000E+00 0. -1.
          2    1    6    6  503    0 -0.42773614475E+03 -0.74918720569E+02  0.17997659349E+03  0.47006658935E+03  0.00000000000E+00 0. -1.
         -2    1    6    6    0  503 -0.34528631723E+03 -0.39872153391E+02  0.23364299958E+03  0.41880959962E+03  0.00000000000E+00 0.  1.
<mgrwt>
<rscale>  0 0.18397527E+04</rscale>
<asrwt>0</asrwt>
<pdfrwt beam="1">  1        2 0.27241651E+00 0.18397527E+04</pdfrwt>
<pdfrwt beam="2">  1       -2 0.73518865E-01 0.18397527E+04</pdfrwt>
<totfact> 0.14068016E+01</totfact>
</mgrwt>
</event>
<event>
12    2  0.3518828E-008  0.1499122E+04  0.7818608E-02  0.8885037E-01
          1   -1    0    0  501    0  0.00000000000E+00  0.00000000000E+00  0.86438713220E+03  0.86438713220E+03  0.00000000000E+00 0. -1.
         -1   -1    0    0    0  501 -0.00000000000E+00 -0.00000000000E+00 -0.64998880595E+03  0.64998880595E+03  0.00000000000E+00 0.  1.
         23    2    1    2    0    0  0.10456973345E+03  0.25812577611E+03  0.44850530926E+03  0.53611775336E+03  0.93281764490E+02 0.  0.
        254    2    1    2    0    0 -0.10456973345E+03 -0.25812577611E+03 -0.23410698301E+03  0.97825818479E+03  0.90808548671E+03 0.  0.
         23    2    4    4    0    0  0.15066500524E+03 -0.37663487645E+03  0.19336546070E+03  0.45835263098E+03  0.90239453549E+02 0.  0.
         23    2    4    4    0    0 -0.25523473869E+03  0.11850910034E+03 -0.42747244371E+03  0.51990555381E+03  0.91541881422E+02 0.  0.
          1    1    3    3  502    0 -0.28979091808E+01  0.10990880632E+03  0.18625884869E+03  0.21628847010E+03  0.00000000000E+00 0. -1.
         -1    1    3    3    0  502  0.10746764263E+03  0.14821696979E+03  0.26224646057E+03  0.31982928326E+03  0.00000000000E+00 0.  1.
         11    1    5    5    0    0  0.14028574965E+03 -0.37539991140E+03  0.19790359384E+03  0.44695751195E+03  0.00000000000E+00 0. -1.
        -11    1    5    5    0    0  0.10379255591E+02 -0.12349650433E+01 -0.45381331410E+01  0.11395119029E+02  0.00000000000E+00 0.  1.
          2    1    6    6  503    0 -0.19971134200E+03  0.81406231052E+02 -0.24935330396E+03  0.32967963961E+03  0.00000000000E+00 0. -1.
         -2    1    6    6    0  503 -0.55523396695E+02  0.37102869287E+02 -0.17811913974E+03  0.19022591420E+03  0.00000000000E+00 0.  1.
<mgrwt>
<rscale>  0 0.14991224E+04</rscale>
<asrwt>0</asrwt>
<pdfrwt beam="1">  1        1 0.13298264E+00 0.14991224E+04</pdfrwt>
<pdfrwt beam="2">  1       -1 0.99998278E-01 0.14991224E+04</pdfrwt>
<totfact> 0.17966289E+01</totfact>
</mgrwt>
</event>
<event>
12    2  0.3518828E-008  0.1753985E+04  0.7818608E-02  0.8731160E-01
          1   -1    0    0  501    0  0.00000000000E+00  0.00000000000E+00  0.91814560143E+03  0.91814560143E+03  0.00000000000E+00 0. -1.
         -1   -1    0    0    0  501 -0.00000000000E+00 -0.00000000000E+00 -0.83768394940E+03  0.83768394940E+03  0.00000000000E+00 0.  1.
         23    2    1    2    0    0 -0.34856853673E+03 -0.20282444882E+03  0.53606495404E+03  0.67662914687E+03  0.88451035063E+02 0.  0.
        254    2    1    2    0    0  0.34856853673E+03  0.20282444882E+03 -0.45560330201E+03  0.10792004040E+04  0.89132562024E+03 0.  0.
         23    2    4    4    0    0  0.42997220658E+03  0.27668770171E+03 -0.65413984069E+03  0.83510709390E+03  0.89848452413E+02 0.  0.
         23    2    4    4    0    0 -0.81403669844E+02 -0.73863252883E+02  0.19853653869E+03  0.24409331007E+03  0.89902442879E+02 0.  0.
          4    1    3    3  502    0 -0.17364628755E+03 -0.11387547546E+03  0.20514977042E+03  0.29190252721E+03  0.00000000000E+00 0. -1.
         -4    1    3    3    0  502 -0.17492224919E+03 -0.88948973368E+02  0.33091518362E+03  0.38472661966E+03  0.00000000000E+00 0.  1.
         11    1    5    5    0    0  0.64342776616E+02  0.81483626480E+02 -0.15068040161E+03  0.18298676924E+03  0.00000000000E+00 0.  1.
        -11    1    5    5    0    0  0.36562942996E+03  0.19520407523E+03 -0.50345943908E+03  0.65212032466E+03  0.00000000000E+00 0. -1.
          1    1    6    6  503    0 -0.79465799892E+02 -0.21269654521E+02  0.81650439032E+02  0.11590515843E+03  0.00000000000E+00 0. -1.
         -1    1    6    6    0  503 -0.19378699525E+01 -0.52593598362E+02  0.11688609966E+03  0.12818815164E+03  0.00000000000E+00 0.  1.
<mgrwt>
<rscale>  0 0.17539850E+04</rscale>
<asrwt>0</asrwt>
<pdfrwt beam="1">  1        1 0.14125317E+00 0.17539850E+04</pdfrwt>
<pdfrwt beam="2">  1       -1 0.12887445E+00 0.17539850E+04</pdfrwt>
<totfact> 0.86375147E+00</totfact>
</mgrwt>
</event>
<event>
12    2  0.3518828E-008  0.1726824E+04  0.7818608E-02  0.8746212E-01
         -2   -1    0    0    0  501 -0.00000000000E+00  0.00000000000E+00  0.55774931226E+03  0.55774931226E+03  0.00000000000E+00 0.  1.
          2   -1    0    0  501    0  0.00000000000E+00 -0.00000000000E+00 -0.13365861249E+04  0.13365861249E+04  0.00000000000E+00 0. -1.
         23    2    1    2    0    0 -0.52002845919E+03  0.70159114295E+02 -0.60098316100E+03  0.80269145235E+03  0.88209456358E+02 0.  0.
        254    2    1    2    0    0  0.52002845919E+03 -0.70159114295E+02 -0.17785365168E+03  0.10916439849E+04  0.94058639612E+03 0.  0.
         23    2    4    4    0    0  0.33182136903E+03 -0.68857489739E+02  0.36722241243E+03  0.50806213938E+03  0.91804479439E+02 0.  0.
         23    2    4    4    0    0  0.18820709015E+03 -0.13016245551E+01 -0.54507606411E+03  0.58358184547E+03  0.89645143119E+02 0.  0.
          3    1    3    3  502    0 -0.17084432394E+03  0.63700680776E+02 -0.22324657394E+03  0.28824398091E+03  0.00000000000E+00 0. -1.
         -3    1    3    3    0  502 -0.34918413524E+03  0.64584335184E+01 -0.37773658706E+03  0.51444747144E+03  0.00000000000E+00 0.  1.
         11    1    5    5    0    0  0.22479958514E+03 -0.18378229993E+01  0.23794899745E+03  0.32734989912E+03  0.00000000000E+00 0. -1.
        -11    1    5    5    0    0  0.10702178389E+03 -0.67019666740E+02  0.12927341499E+03  0.18071224026E+03  0.00000000000E+00 0.  1.
          1    1    6    6  503    0  0.19595761995E+03 -0.94684917799E+01 -0.49976849246E+03  0.53689625367E+03  0.00000000000E+00 0. -1.
         -1    1    6    6    0  503 -0.77505297978E+01  0.81668672248E+01 -0.45307571651E+02  0.46685591796E+02  0.00000000000E+00 0.  1.
<mgrwt>
<rscale>  0 0.17268237E+04</rscale>
<asrwt>0</asrwt>
<pdfrwt beam="1">  1        2 0.20562863E+00 0.17268237E+04</pdfrwt>
<pdfrwt beam="2">  1       -2 0.85807587E-01 0.17268237E+04</pdfrwt>
<totfact> 0.17626561E+01</totfact>
</mgrwt>
</event>
<event>
12    2  0.3518828E-008  0.2413805E+04  0.7818608E-02  0.8434353E-01
         -2   -1    0    0    0  501 -0.00000000000E+00  0.00000000000E+00  0.24787144701E+04  0.24787144701E+04  0.00000000000E+00 0.  1.
          2   -1    0    0  501    0  0.00000000000E+00 -0.00000000000E+00 -0.58764860851E+03  0.58764860851E+03  0.00000000000E+00 0. -1.
         23    2    1    2    0    0  0.93596928691E+03 -0.44210372935E+03  0.72437405297E+03  0.12667967297E+04  0.92530925943E+02 0.  0.
        254    2    1    2    0    0 -0.93596928691E+03  0.44210372935E+03  0.11666918086E+04  0.17995663489E+04  0.89764973917E+03 0.  0.
         23    2    4    4    0    0 -0.82053625148E+03 -0.54482406392E+02  0.54520218975E+03  0.99067781212E+03  0.89157316721E+02 0.  0.
         23    2    4    4    0    0 -0.11543303543E+03  0.49658613574E+03  0.62148961884E+03  0.80888853676E+03  0.90159540177E+02 0.  0.
          3    1    3    3  502    0  0.17857818906E+03 -0.91576161212E+02  0.98153199253E+02  0.22340638629E+03  0.00000000000E+00 0. -1.
         -3    1    3    3    0  502  0.75739109784E+03 -0.35052756814E+03  0.62622085372E+03  0.10433903434E+04  0.00000000000E+00 0.  1.
         11    1    5    5    0    0 -0.55317566307E+02  0.15838134464E+02  0.25133812401E+02  0.62790032420E+02  0.00000000000E+00 0.  1.
        -11    1    5    5    0    0 -0.76521868517E+03 -0.70320540856E+02  0.52006837735E+03  0.92788777970E+03  0.00000000000E+00 0. -1.
          1    1    6    6  503    0 -0.11427622837E+03  0.38413180297E+03  0.43805303435E+03  0.59372279670E+03  0.00000000000E+00 0. -1.
         -1    1    6    6    0  503 -0.11568070621E+01  0.11245433278E+03  0.18343658449E+03  0.21516574005E+03  0.00000000000E+00 0.  1.
<mgrwt>
<rscale>  0 0.24138046E+04</rscale>
<asrwt>0</asrwt>
<pdfrwt beam="1">  1        2 0.90407479E-01 0.24138046E+04</pdfrwt>
<pdfrwt beam="2">  1       -2 0.38134068E+00 0.24138046E+04</pdfrwt>
<totfact> 0.44870110E-01</totfact>
</mgrwt>
</event>
<event>
12    2  0.3518828E-008  0.1590008E+04  0.7818608E-02  0.8826710E-01
         -2   -1    0    0    0  501 -0.00000000000E+00  0.00000000000E+00  0.20165023157E+03  0.20165023157E+03  0.00000000000E+00 0.  1.
          2   -1    0    0  501    0  0.00000000000E+00 -0.00000000000E+00 -0.31342939202E+04  0.31342939202E+04  0.00000000000E+00 0. -1.
         23    2    1    2    0    0  0.32774090422E+03  0.42460453390E+03 -0.79395336942E+03  0.96209761023E+03  0.86987058210E+02 0.  0.
        254    2    1    2    0    0 -0.32774090422E+03 -0.42460453390E+03 -0.21386903192E+04  0.23738465415E+04  0.87945893069E+03 0.  0.
         23    2    4    4    0    0  0.11854215737E+03 -0.26489657950E+03 -0.17641084144E+03  0.35303227741E+03  0.96377191316E+02 0.  0.
         23    2    4    4    0    0 -0.44628306159E+03 -0.15970795439E+03 -0.19622794777E+04  0.20208142641E+04  0.92056175583E+02 0.  0.
          2    1    3    3  502    0  0.25583556027E+03  0.38215395919E+03 -0.67291291683E+03  0.81504924763E+03  0.00000000000E+00 0.  1.
         -2    1    3    3    0  502  0.71905343949E+02  0.42450574714E+02 -0.12104045259E+03  0.14704836260E+03  0.00000000000E+00 0. -1.
         11    1    5    5    0    0  0.11806489141E+03 -0.16310228236E+03 -0.94745039685E+02  0.22252706721E+03  0.00000000000E+00 0.  1.
        -11    1    5    5    0    0  0.47726596850E+00 -0.10179429714E+03 -0.81665801754E+02  0.13050521020E+03  0.00000000000E+00 0. -1.
          4    1    6    6  503    0 -0.39736599433E+03 -0.13742407388E+03 -0.18367481493E+04  0.18842581760E+04  0.00000000000E+00 0. -1.
         -4    1    6    6    0  503 -0.48917067263E+02 -0.22283880518E+02 -0.12553132840E+03  0.13655608815E+03  0.00000000000E+00 0.  1.
<mgrwt>
<rscale>  0 0.15900077E+04</rscale>
<asrwt>0</asrwt>
<pdfrwt beam="1">  1        2 0.48219908E+00 0.15900077E+04</pdfrwt>
<pdfrwt beam="2">  1       -2 0.31023112E-01 0.15900077E+04</pdfrwt>
<totfact> 0.13319314E+01</totfact>
</mgrwt>
</event>
<event>
12    2  0.3518828E-008  0.1251357E+04  0.7818608E-02  0.9069055E-01
          1   -1    0    0  501    0  0.00000000000E+00  0.00000000000E+00  0.75104205440E+03  0.75104205440E+03  0.00000000000E+00 0. -1.
         -1   -1    0    0    0  501 -0.00000000000E+00 -0.00000000000E+00 -0.52124054308E+03  0.52124054308E+03  0.00000000000E+00 0.  1.
         23    2    1    2    0    0  0.19925759336E+03  0.18980545148E+03 -0.53133398415E+02  0.29500300127E+03  0.92053869044E+02 0.  0.
        254    2    1    2    0    0 -0.19925759336E+03 -0.18980545148E+03  0.28293490974E+03  0.97727959621E+03  0.89403218516E+03 0.  0.
         23    2    4    4    0    0  0.30232919345E+03  0.24276734693E+01  0.29542207056E+03  0.43143329581E+03  0.86322964223E+02 0.  0.
         23    2    4    4    0    0 -0.50158678681E+03 -0.19223312495E+03 -0.12487160823E+02  0.54584630039E+03  0.96173673314E+02 0.  0.
          2    1    3    3  502    0  0.18785105761E+03  0.14196352671E+03 -0.21311075057E+02  0.23642297833E+03  0.00000000000E+00 0. -1.
         -2    1    3    3    0  502  0.11406535750E+02  0.47841924776E+02 -0.31822323358E+02  0.58580022942E+02  0.00000000000E+00 0.  1.
         11    1    5    5    0    0  0.10086303361E+03 -0.34384680583E+02  0.13050984600E+03  0.16848880589E+03  0.00000000000E+00 0.  1.
        -11    1    5    5    0    0  0.20146615984E+03  0.36812354052E+02  0.16491222456E+03  0.26294448992E+03  0.00000000000E+00 0. -1.
          3    1    6    6  503    0 -0.45285489783E+03 -0.14165457247E+03 -0.21816091540E+02  0.47499422969E+03  0.00000000000E+00 0. -1.
         -3    1    6    6    0  503 -0.48731888978E+02 -0.50578552480E+02  0.93289307170E+01  0.70852070701E+02  0.00000000000E+00 0.  1.
<mgrwt>
<rscale>  0 0.12513570E+04</rscale>
<asrwt>0</asrwt>
<pdfrwt beam="1">  1        1 0.11554493E+00 0.12513570E+04</pdfrwt>
<pdfrwt beam="2">  1       -1 0.80190853E-01 0.12513570E+04</pdfrwt>
<totfact> 0.37417699E+01</totfact>
</mgrwt>
</event>
<event>
12    2  0.3518828E-008  0.1524357E+04  0.7818608E-02  0.8868415E-01
         -2   -1    0    0    0  501 -0.00000000000E+00  0.00000000000E+00  0.12236443142E+04  0.12236443142E+04  0.00000000000E+00 0.  1.
          2   -1    0    0  501    0  0.00000000000E+00 -0.00000000000E+00 -0.47474260094E+03  0.47474260094E+03  0.00000000000E+00 0. -1.
         23    2    1    2    0    0 -0.15591420477E+03 -0.24045224522E+03  0.68333278569E+03  0.74667181668E+03  0.91916181094E+02 0.  0.
        254    2    1    2    0    0  0.15591420477E+03  0.24045224522E+03  0.65568927595E+02  0.95171509848E+03  0.90517170909E+03 0.  0.
         23    2    4    4    0    0 -0.22179951825E+03 -0.19707077081E+02  0.33461216695E+03  0.41236496294E+03  0.92174645160E+02 0.  0.
         23    2    4    4    0    0  0.37771372302E+03  0.26015932230E+03 -0.26904323936E+03  0.53935013553E+03  0.90353608233E+02 0.  0.
          3    1    3    3  502    0 -0.95621022522E+02 -0.18494239276E+03  0.38985941671E+03  0.44196994625E+03  0.00000000000E+00 0. -1.
         -3    1    3    3    0  502 -0.60293182252E+02 -0.55509852458E+02  0.29347336898E+03  0.30470187044E+03  0.00000000000E+00 0.  1.
         11    1    5    5    0    0 -0.22451077410E+03 -0.43775480302E+01  0.32060939346E+03  0.39142640916E+03  0.00000000000E+00 0.  1.
        -11    1    5    5    0    0  0.27112558481E+01 -0.15329529050E+02  0.14002773488E+02  0.20938553783E+02  0.00000000000E+00 0. -1.
          3    1    6    6  503    0  0.56632021170E+02  0.38640987026E+02 -0.59050882828E+01  0.68812657032E+02  0.00000000000E+00 0. -1.
         -3    1    6    6    0  503  0.32108170185E+03  0.22151833527E+03 -0.26313815107E+03  0.47053747850E+03  0.00000000000E+00 0.  1.
<mgrwt>
<rscale>  0 0.15243570E+04</rscale>
<asrwt>0</asrwt>
<pdfrwt beam="1">  1        2 0.73037324E-01 0.15243570E+04</pdfrwt>
<pdfrwt beam="2">  1       -2 0.18825297E+00 0.15243570E+04</pdfrwt>
<totfact> 0.10033181E+01</totfact>
</mgrwt>
</event>
<event>
12    2  0.3518828E-008  0.1343626E+04  0.7818608E-02  0.8995667E-01
         -1   -1    0    0    0  501 -0.00000000000E+00  0.00000000000E+00  0.58437997234E+03  0.58437997234E+03  0.00000000000E+00 0.  1.
          1   -1    0    0  501    0  0.00000000000E+00 -0.00000000000E+00 -0.77232803830E+03  0.77232803830E+03  0.00000000000E+00 0. -1.
         23    2    1    2    0    0  0.10493122421E+03 -0.15913257377E+03 -0.36968976371E+03  0.42556683801E+03  0.90015967341E+02 0.  0.
        254    2    1    2    0    0 -0.10493122421E+03  0.15913257377E+03  0.18174169775E+03  0.93114117263E+03  0.89311818972E+03 0.  0.
         23    2    4    4    0    0  0.15916392279E+03  0.29375563818E+03 -0.22838238995E+03  0.41639821827E+03  0.97997096181E+02 0.  0.
         23    2    4    4    0    0 -0.26409514700E+03 -0.13462306441E+03  0.41012408770E+03  0.51474295436E+03  0.94281098872E+02 0.  0.
          2    1    3    3  502    0  0.11027238305E+03 -0.92462157891E+02 -0.25419420716E+03  0.29210262590E+03  0.00000000000E+00 0. -1.
         -2    1    3    3    0  502 -0.53411588446E+01 -0.66670415879E+02 -0.11549555655E+03  0.13346421211E+03  0.00000000000E+00 0.  1.
         11    1    5    5    0    0  0.11287392449E+03  0.13809402864E+03 -0.16203794773E+03  0.24097049629E+03  0.00000000000E+00 0. -1.
        -11    1    5    5    0    0  0.46289998306E+02  0.15566160954E+03 -0.66344442215E+02  0.17542772199E+03  0.00000000000E+00 0.  1.
          1    1    6    6  503    0 -0.24970372652E+03 -0.98460939667E+02  0.32773460905E+03  0.42362304192E+03  0.00000000000E+00 0. -1.
         -1    1    6    6    0  503 -0.14391420482E+02 -0.36162124745E+02  0.82389478649E+02  0.91119912432E+02  0.00000000000E+00 0.  1.
<mgrwt>
<rscale>  0 0.13436265E+04</rscale>
<asrwt>0</asrwt>
<pdfrwt beam="1">  1        1 0.11881970E+00 0.13436265E+04</pdfrwt>
<pdfrwt beam="2">  1       -1 0.89904611E-01 0.13436265E+04</pdfrwt>
<totfact> 0.27743619E+01</totfact>
</mgrwt>
</event>
<event>
12    2  0.3518828E-008  0.1402541E+04  0.7818608E-02  0.8951982E-01
         -1   -1    0    0    0  501 -0.00000000000E+00  0.00000000000E+00  0.23822312668E+03  0.23822312668E+03  0.00000000000E+00 0.  1.
          1   -1    0    0  501    0  0.00000000000E+00 -0.00000000000E+00 -0.20643671390E+04  0.20643671390E+04  0.00000000000E+00 0. -1.
         23    2    1    2    0    0  0.15082788972E+03  0.35621938745E+03 -0.33202297408E+03  0.51821016157E+03  0.93065632377E+02 0.  0.
        254    2    1    2    0    0 -0.15082788972E+03 -0.35621938745E+03 -0.14941210383E+04  0.17843801041E+04  0.89552966157E+03 0.  0.
         23    2    4    4    0    0 -0.43086350781E+03  0.55764698982E+02 -0.90343729130E+03  0.10067887456E+04  0.93121291854E+02 0.  0.
         23    2    4    4    0    0  0.28003561808E+03 -0.41198408643E+03 -0.59068374696E+03  0.77759135851E+03  0.87121736882E+02 0.  0.
          1    1    3    3  502    0  0.22331893032E+02  0.17497374196E+02 -0.55951772370E+02  0.62733343459E+02  0.00000000000E+00 0. -1.
         -1    1    3    3    0  502  0.12849599669E+03  0.33872201325E+03 -0.27607120171E+03  0.45547681812E+03  0.00000000000E+00 0.  1.
         11    1    5    5    0    0 -0.20772583175E+03  0.68399206683E+02 -0.39760564876E+03  0.45378268430E+03  0.00000000000E+00 0. -1.
        -11    1    5    5    0    0 -0.22313767605E+03 -0.12634507701E+02 -0.50583164255E+03  0.55300606132E+03  0.00000000000E+00 0.  1.
          1    1    6    6  503    0  0.17997347450E+03 -0.33070614242E+03 -0.42839372874E+03  0.57033165000E+03  0.00000000000E+00 0. -1.
         -1    1    6    6    0  503  0.10006214358E+03 -0.81277944010E+02 -0.16229001821E+03  0.20725970851E+03  0.00000000000E+00 0.  1.
<mgrwt>
<rscale>  0 0.14025405E+04</rscale>
<asrwt>0</asrwt>
<pdfrwt beam="1">  1        1 0.31759496E+00 0.14025405E+04</pdfrwt>
<pdfrwt beam="2">  1       -1 0.36649710E-01 0.14025405E+04</pdfrwt>
<totfact> 0.18782990E+01</totfact>
</mgrwt>
</event>
<event>
12    2  0.3518828E-008  0.1550979E+04  0.7818608E-02  0.8851243E-01
         -2   -1    0    0    0  501 -0.00000000000E+00  0.00000000000E+00  0.99978186364E+03  0.99978186364E+03  0.00000000000E+00 0. -1.
          2   -1    0    0  501    0  0.00000000000E+00 -0.00000000000E+00 -0.60151508380E+03  0.60151508380E+03  0.00000000000E+00 0.  1.
         23    2    1    2    0    0 -0.31882498579E+03 -0.17136478331E+03 -0.25259420577E+03  0.44932990328E+03  0.84132447221E+02 0.  0.
        254    2    1    2    0    0  0.31882498579E+03  0.17136478331E+03  0.65086098561E+03  0.11519670442E+04  0.87885879852E+03 0.  0.
         23    2    4    4    0    0  0.11897738437E+03 -0.22822416126E+03  0.63990518809E+03  0.69590512903E+03  0.92538711331E+02 0.  0.
         23    2    4    4    0    0  0.19984760142E+03  0.39958894457E+03  0.10955797514E+02  0.45606191513E+03  0.90895833337E+02 0.  0.
          1    1    3    3  502    0 -0.22220167501E+02 -0.41759237526E+02 -0.41202646801E+02  0.62731394580E+02  0.00000000000E+00 0. -1.
         -1    1    3    3    0  502 -0.29660481829E+03 -0.12960554578E+03 -0.21139155896E+03  0.38659850870E+03  0.00000000000E+00 0.  1.
         11    1    5    5    0    0  0.11303028494E+03 -0.23697912067E+03  0.60730849068E+03  0.66163324569E+03  0.00000000000E+00 0.  1.
        -11    1    5    5    0    0  0.59470994353E+01  0.87549594113E+01  0.32596697411E+02  0.34271883346E+02  0.00000000000E+00 0. -1.
          3    1    6    6  503    0  0.17709322173E+02  0.56449339417E+02  0.31520253834E+02  0.67034874611E+02  0.00000000000E+00 0. -1.
         -3    1    6    6    0  503  0.18213827924E+03  0.34313960515E+03 -0.20564456320E+02  0.38902704052E+03  0.00000000000E+00 0.  1.
<mgrwt>
<rscale>  0 0.15509789E+04</rscale>
<asrwt>0</asrwt>
<pdfrwt beam="1">  1        2 0.92540782E-01 0.15509789E+04</pdfrwt>
<pdfrwt beam="2">  1       -2 0.15381259E+00 0.15509789E+04</pdfrwt>
<totfact> 0.13326471E+01</totfact>
</mgrwt>
</event>
<event>
12    2  0.3518828E-008  0.1661337E+04  0.7818608E-02  0.8783728E-01
          1   -1    0    0  501    0  0.00000000000E+00  0.00000000000E+00  0.15575622710E+04  0.15575622710E+04  0.00000000000E+00 0. -1.
         -1   -1    0    0    0  501 -0.00000000000E+00 -0.00000000000E+00 -0.44300642981E+03  0.44300642981E+03  0.00000000000E+00 0.  1.
         23    2    1    2    0    0  0.51017788801E+03 -0.16349634860E+03  0.22767867345E+03  0.58935228752E+03  0.92119525887E+02 0.  0.
        254    2    1    2    0    0 -0.51017788801E+03  0.16349634860E+03  0.88687716776E+03  0.14112164133E+04  0.95810652908E+03 0.  0.
         23    2    4    4    0    0 -0.56947775467E+03 -0.12219333725E+03  0.14239806826E+03  0.60655727227E+03  0.91642730030E+02 0.  0.
         23    2    4    4    0    0  0.59299866663E+02  0.28568968585E+03  0.74447909949E+03  0.80465914103E+03  0.89956283132E+02 0.  0.
          3    1    3    3  502    0  0.23956070292E+03 -0.11082851233E+03  0.14684070001E+03  0.30205046053E+03  0.00000000000E+00 0. -1.
         -3    1    3    3    0  502  0.27061718509E+03 -0.52667836264E+02  0.80837973435E+02  0.28730182699E+03  0.00000000000E+00 0.  1.
         11    1    5    5    0    0 -0.13235196793E+02 -0.25434389822E+01  0.20733675846E+02  0.24729028086E+02  0.00000000000E+00 0.  1.
        -11    1    5    5    0    0 -0.55624255788E+03 -0.11964989827E+03  0.12166439242E+03  0.58182824418E+03  0.00000000000E+00 0. -1.
          1    1    6    6  503    0  0.72779718568E+02  0.26706633597E+03  0.71845671159E+03  0.76993594647E+03  0.00000000000E+00 0. -1.
         -1    1    6    6    0  503 -0.13479851905E+02  0.18623349878E+02  0.26022387905E+02  0.34723194558E+02  0.00000000000E+00 0.  1.
<mgrwt>
<rscale>  0 0.16613369E+04</rscale>
<asrwt>0</asrwt>
<pdfrwt beam="1">  1        1 0.23962496E+00 0.16613369E+04</pdfrwt>
<pdfrwt beam="2">  1       -1 0.68154836E-01 0.16613369E+04</pdfrwt>
<totfact> 0.12417708E+01</totfact>
</mgrwt>
</event>
<event>
12    2  0.3518828E-008  0.2194722E+04  0.7818608E-02  0.8520628E-01
          2   -1    0    0  501    0  0.00000000000E+00  0.00000000000E+00  0.11234133840E+04  0.11234133840E+04  0.00000000000E+00 0. -1.
         -2   -1    0    0    0  501 -0.00000000000E+00 -0.00000000000E+00 -0.10719123000E+04  0.10719123000E+04  0.00000000000E+00 0.  1.
         23    2    1    2    0    0  0.82929132392E-02  0.65251092816E+03 -0.62117054307E+03  0.90547030738E+03  0.90846698026E+02 0.  0.
        254    2    1    2    0    0 -0.82929132392E-02 -0.65251092816E+03  0.67267162699E+03  0.12898553766E+04  0.88626703843E+03 0.  0.
         23    2    4    4    0    0  0.18184298681E+03 -0.66175362823E+03  0.79678935853E+03  0.10558428231E+04  0.94583555641E+02 0.  0.
         23    2    4    4    0    0 -0.18185127972E+03  0.92427000748E+01 -0.12411773154E+03  0.23401255347E+03  0.78748640978E+02 0.  0.
          1    1    3    3  502    0 -0.14689817479E+02  0.12662415861E+03 -0.78787176819E+02  0.14985622280E+03  0.00000000000E+00 0. -1.
         -1    1    3    3    0  502  0.14698110392E+02  0.52588676955E+03 -0.54238336625E+03  0.75561408459E+03  0.00000000000E+00 0.  1.
         11    1    5    5    0    0 -0.60219213469E+01 -0.43539058403E+02  0.76413103105E+02  0.88152569273E+02  0.00000000000E+00 0.  1.
        -11    1    5    5    0    0  0.18786490816E+03 -0.61821456983E+03  0.72037625543E+03  0.96769025388E+03  0.00000000000E+00 0. -1.
          4    1    6    6  503    0 -0.14244956860E+03  0.37344826258E+02 -0.10931777710E+03  0.18340363146E+03  0.00000000000E+00 0. -1.
         -4    1    6    6    0  503 -0.39401711119E+02 -0.28102126183E+02 -0.14799954446E+02  0.50608922007E+02  0.00000000000E+00 0.  1.
<mgrwt>
<rscale>  0 0.21947215E+04</rscale>
<asrwt>0</asrwt>
<pdfrwt beam="1">  1        2 0.17283283E+00 0.21947215E+04</pdfrwt>
<pdfrwt beam="2">  1       -2 0.16490959E+00 0.21947215E+04</pdfrwt>
<totfact> 0.44684335E+00</totfact>
</mgrwt>
</event>
<event>
12    2  0.3518828E-008  0.1554595E+04  0.7818608E-02  0.8848938E-01
         -1   -1    0    0    0  501 -0.00000000000E+00  0.00000000000E+00  0.16863449314E+04  0.16863449314E+04  0.00000000000E+00 0.  1.
          1   -1    0    0  501    0  0.00000000000E+00 -0.00000000000E+00 -0.35828439480E+03  0.35828439480E+03  0.00000000000E+00 0. -1.
         23    2    1    2    0    0 -0.19866443041E+03 -0.82329962080E+02  0.10560954594E+04  0.10819339944E+04  0.94856576947E+02 0.  0.
        254    2    1    2    0    0  0.19866443041E+03  0.82329962080E+02  0.27196507714E+03  0.96269533179E+03  0.89809326915E+03 0.  0.
         23    2    4    4    0    0  0.35933170533E+03  0.41671081257E+02 -0.22199492138E+03  0.43356396902E+03  0.88544997881E+02 0.  0.
         23    2    4    4    0    0 -0.16066727492E+03  0.40658880822E+02  0.49395999852E+03  0.52913136277E+03  0.92284349215E+02 0.  0.
          3    1    3    3  502    0 -0.87883246901E+02 -0.12432165891E+02  0.25052630977E+03  0.26578460400E+03  0.00000000000E+00 0. -1.
         -3    1    3    3    0  502 -0.11078118350E+03 -0.69897796189E+02  0.80556914966E+03  0.81614939037E+03  0.00000000000E+00 0.  1.
         11    1    5    5    0    0  0.10058937969E+03  0.22712972959E+02 -0.20662944337E+02  0.10517157276E+03  0.00000000000E+00 0. -1.
        -11    1    5    5    0    0  0.25874232563E+03  0.18958108298E+02 -0.20133197704E+03  0.32839239626E+03  0.00000000000E+00 0.  1.
          3    1    6    6  503    0 -0.16811604244E+02 -0.16347239146E+02  0.20916544507E+02  0.31422350311E+02  0.00000000000E+00 0. -1.
         -3    1    6    6    0  503 -0.14385567068E+03  0.57006119968E+02  0.47304345401E+03  0.49770901246E+03  0.00000000000E+00 0.  1.
<mgrwt>
<rscale>  0 0.15545946E+04</rscale>
<asrwt>0</asrwt>
<pdfrwt beam="1">  1        1 0.55120677E-01 0.15545946E+04</pdfrwt>
<pdfrwt beam="2">  1       -1 0.25943768E+00 0.15545946E+04</pdfrwt>
<totfact> 0.40497700E+00</totfact>
</mgrwt>
</event>
<event>
12    2  0.3518828E-008  0.2077978E+04  0.7818608E-02  0.8571007E-01
          2   -1    0    0  501    0  0.00000000000E+00  0.00000000000E+00  0.11823705530E+04  0.11823705530E+04  0.00000000000E+00 0.  1.
         -2   -1    0    0    0  501 -0.00000000000E+00 -0.00000000000E+00 -0.91299488683E+03  0.91299488683E+03  0.00000000000E+00 0. -1.
         23    2    1    2    0    0  0.50788510917E+02 -0.39547629243E+03  0.85591553632E+03  0.94863105518E+03  0.91260631256E+02 0.  0.
        254    2    1    2    0    0 -0.50788510917E+02  0.39547629243E+03 -0.58653987011E+03  0.11467343847E+04  0.90110474369E+03 0.  0.
         23    2    4    4    0    0  0.35998399123E+03 -0.45806919149E+02 -0.25908785435E+03  0.45519771640E+03  0.91606205911E+02 0.  0.
         23    2    4    4    0    0 -0.41077250215E+03  0.44128321158E+03 -0.32745201576E+03  0.69153666829E+03  0.86794122033E+02 0.  0.
          4    1    3    3  502    0  0.29936445614E+02 -0.20299285211E+03  0.33436066020E+03  0.39230006356E+03  0.00000000000E+00 0. -1.
         -4    1    3    3    0  502  0.20852065303E+02 -0.19248344033E+03  0.52155487612E+03  0.55633099161E+03  0.00000000000E+00 0.  1.
         11    1    5    5    0    0  0.14609217587E+03  0.23017052940E+02 -0.81972189204E+02  0.16909212986E+03  0.00000000000E+00 0. -1.
        -11    1    5    5    0    0  0.21389181536E+03 -0.68823972089E+02 -0.17711566515E+03  0.28610558655E+03  0.00000000000E+00 0.  1.
          4    1    6    6  503    0 -0.91261298609E+02  0.83819612689E+02 -0.30611584691E+02  0.12763785180E+03  0.00000000000E+00 0. -1.
         -4    1    6    6    0  503 -0.31951120354E+03  0.35746359889E+03 -0.29684043107E+03  0.56389881649E+03  0.00000000000E+00 0.  1.
<mgrwt>
<rscale>  0 0.20779781E+04</rscale>
<asrwt>0</asrwt>
<pdfrwt beam="1">  1        2 0.18190316E+00 0.20779781E+04</pdfrwt>
<pdfrwt beam="2">  1       -2 0.14046075E+00 0.20779781E+04</pdfrwt>
<totfact> 0.63810702E+00</totfact>
</mgrwt>
</event>
<event>
12    2  0.3518828E-008  0.1870521E+04  0.7818608E-02  0.8669671E-01
         -1   -1    0    0    0  501 -0.00000000000E+00  0.00000000000E+00  0.60035016710E+03  0.60035016710E+03  0.00000000000E+00 0.  1.
          1   -1    0    0  501    0  0.00000000000E+00 -0.00000000000E+00 -0.14570039195E+04  0.14570039195E+04  0.00000000000E+00 0. -1.
         23    2    1    2    0    0 -0.31950069186E+03  0.14693906030E+03  0.34031624094E+03  0.49750314821E+03  0.89568181244E+02 0.  0.
        254    2    1    2    0    0  0.31950069186E+03 -0.14693906030E+03 -0.11969699933E+04  0.15598509384E+04  0.93633648091E+03 0.  0.
         23    2    4    4    0    0  0.31996030166E+03 -0.19741452542E+02 -0.13196687881E+04  0.13614180033E+04  0.95754633965E+02 0.  0.
         23    2    4    4    0    0 -0.45960980427E+00 -0.12719760776E+03  0.12269879477E+03  0.19843293505E+03  0.90228558761E+02 0.  0.
          1    1    3    3  502    0 -0.59793248809E+02  0.65863133773E+02  0.10653025084E+03  0.13878717281E+03  0.00000000000E+00 0. -1.
         -1    1    3    3    0  502 -0.25970744305E+03  0.81075926529E+02  0.23378599009E+03  0.35871597539E+03  0.00000000000E+00 0.  1.
         11    1    5    5    0    0  0.20876495116E+03  0.71540303589E+01 -0.10079963946E+04  0.10294128018E+04  0.00000000000E+00 0.  1.
        -11    1    5    5    0    0  0.11119535050E+03 -0.26895482901E+02 -0.31167239346E+03  0.33200520149E+03  0.00000000000E+00 0. -1.
          3    1    6    6  503    0  0.10696747201E+02  0.66871399932E+01 -0.45275284428E+01  0.13402863715E+02  0.00000000000E+00 0. -1.
         -3    1    6    6    0  503 -0.11156357005E+02 -0.13388474775E+03  0.12722632321E+03  0.18503007134E+03  0.00000000000E+00 0.  1.
<mgrwt>
<rscale>  0 0.18705214E+04</rscale>
<asrwt>0</asrwt>
<pdfrwt beam="1">  1        1 0.22415445E+00 0.18705214E+04</pdfrwt>
<pdfrwt beam="2">  1       -1 0.92361564E-01 0.18705214E+04</pdfrwt>
<totfact> 0.74964540E+00</totfact>
</mgrwt>
</event>
<event>
12    2  0.3518828E-008  0.1989007E+04  0.7818608E-02  0.8611777E-01
          1   -1    0    0  501    0  0.00000000000E+00  0.00000000000E+00  0.11249489772E+04  0.11249489772E+04  0.00000000000E+00 0. -1.
         -1   -1    0    0    0  501 -0.00000000000E+00 -0.00000000000E+00 -0.87918438686E+03  0.87918438686E+03  0.00000000000E+00 0.  1.
         23    2    1    2    0    0 -0.47910887809E+03 -0.62036460425E+03 -0.47595052763E+01  0.78763868587E+03  0.77165324614E+02 0.  0.
        254    2    1    2    0    0  0.47910887809E+03  0.62036460425E+03  0.25052409561E+03  0.12164946782E+04  0.89593494199E+03 0.  0.
         23    2    4    4    0    0 -0.13675775188E+03  0.23125889420E+03  0.37622149503E+03  0.47154542608E+03  0.92893038956E+02 0.  0.
         23    2    4    4    0    0  0.61586662997E+03  0.38910571005E+03 -0.12569739942E+03  0.74494925210E+03  0.91948857955E+02 0.  0.
          3    1    3    3  502    0 -0.18361143822E+03 -0.21195962820E+03 -0.35172765806E+02  0.28262549016E+03  0.00000000000E+00 0. -1.
         -3    1    3    3    0  502 -0.29549743987E+03 -0.40840497605E+03  0.30413260530E+02  0.50501319572E+03  0.00000000000E+00 0.  1.
         11    1    5    5    0    0 -0.57217877007E+02  0.33469483911E+02  0.12950140171E+03  0.14548094325E+03  0.00000000000E+00 0.  1.
        -11    1    5    5    0    0 -0.79539874872E+02  0.19778941029E+03  0.24672009332E+03  0.32606448283E+03  0.00000000000E+00 0. -1.
          2    1    6    6  503    0  0.42423708597E+03  0.29022366909E+03 -0.12634475672E+03  0.52931076010E+03  0.00000000000E+00 0.  1.
         -2    1    6    6    0  503  0.19162954400E+03  0.98882040961E+02  0.64735730082E+00  0.21563849200E+03  0.00000000000E+00 0. -1.
<mgrwt>
<rscale>  0 0.19890074E+04</rscale>
<asrwt>0</asrwt>
<pdfrwt beam="1">  1        1 0.17306907E+00 0.19890074E+04</pdfrwt>
<pdfrwt beam="2">  1       -1 0.13525914E+00 0.19890074E+04</pdfrwt>
<totfact> 0.51689172E+00</totfact>
</mgrwt>
</event>
<event>
12    2  0.3518828E-008  0.2179000E+04  0.7818608E-02  0.8527220E-01
          1   -1    0    0  501    0  0.00000000000E+00  0.00000000000E+00  0.10704175585E+04  0.10704175585E+04  0.00000000000E+00 0. -1.
         -1   -1    0    0    0  501 -0.00000000000E+00 -0.00000000000E+00 -0.11089229481E+04  0.11089229481E+04  0.00000000000E+00 0.  1.
         23    2    1    2    0    0 -0.88047640981E+03 -0.18393292639E+03 -0.54280086835E+02  0.90547441029E+03  0.88699212147E+02 0.  0.
        254    2    1    2    0    0  0.88047640981E+03  0.18393292639E+03  0.15774697235E+02  0.12738660962E+04  0.90189575917E+03 0.  0.
         23    2    4    4    0    0  0.32068368733E+03 -0.27247240475E+03  0.26342857979E+03  0.50477466830E+03  0.91233822874E+02 0.  0.
         23    2    4    4    0    0  0.55979272248E+03  0.45640533115E+03 -0.24765388256E+03  0.76909142793E+03  0.92170822514E+02 0.  0.
          4    1    3    3  502    0 -0.75236730034E+02 -0.21721742183E+02  0.19653869553E+02  0.80738307005E+02  0.00000000000E+00 0. -1.
         -4    1    3    3    0  502 -0.80523967977E+03 -0.16221118421E+03 -0.73933956388E+02  0.82473610329E+03  0.00000000000E+00 0.  1.
         11    1    5    5    0    0  0.17955952810E+03 -0.20352244056E+03  0.14247345884E+03  0.30653171845E+03  0.00000000000E+00 0. -1.
        -11    1    5    5    0    0  0.14112415922E+03 -0.68949964190E+02  0.12095512095E+03  0.19824294984E+03  0.00000000000E+00 0.  1.
          2    1    6    6  503    0  0.16372062700E+03  0.16326297437E+03 -0.41287757332E+02  0.23487000960E+03  0.00000000000E+00 0. -1.
         -2    1    6    6    0  503  0.39607209548E+03  0.29314235678E+03 -0.20636612523E+03  0.53422141833E+03  0.00000000000E+00 0.  1.
<mgrwt>
<rscale>  0 0.21790003E+04</rscale>
<asrwt>0</asrwt>
<pdfrwt beam="1">  1        1 0.16467962E+00 0.21790003E+04</pdfrwt>
<pdfrwt beam="2">  1       -1 0.17060353E+00 0.21790003E+04</pdfrwt>
<totfact> 0.29701896E+00</totfact>
</mgrwt>
</event>
<event>
12    2  0.3518828E-008  0.2282055E+04  0.7818608E-02  0.8485030E-01
          4   -1    0    0  501    0  0.00000000000E+00  0.00000000000E+00  0.53260245539E+03  0.53260245539E+03  0.00000000000E+00 0.  1.
         -4   -1    0    0    0  501 -0.00000000000E+00 -0.00000000000E+00 -0.24444953279E+04  0.24444953279E+04  0.00000000000E+00 0. -1.
         23    2    1    2    0    0 -0.66860453958E+03 -0.33868908912E+03 -0.27511055033E+02  0.75568878373E+03  0.92554579990E+02 0.  0.
        254    2    1    2    0    0  0.66860453958E+03  0.33868908912E+03 -0.18843818175E+04  0.22214089996E+04  0.90665361625E+03 0.  0.
         23    2    4    4    0    0 -0.18356876051E+03  0.52178184542E+02 -0.12821952581E+03  0.24649407634E+03  0.88876487871E+02 0.  0.
         23    2    4    4    0    0  0.85217330009E+03  0.28651090457E+03 -0.17561622917E+04  0.19749149232E+04  0.88854529750E+02 0.  0.
          3    1    3    3  502    0 -0.25637891217E+02  0.50041193198E+01 -0.14198111081E+01  0.26160247319E+02  0.00000000000E+00 0. -1.
         -3    1    3    3    0  502 -0.64296664836E+03 -0.34369320844E+03 -0.26091243925E+02  0.72952853641E+03  0.00000000000E+00 0.  1.
         11    1    5    5    0    0 -0.20882803165E+02  0.23090330773E+02  0.82029774261E+01  0.32195398458E+02  0.00000000000E+00 0. -1.
        -11    1    5    5    0    0 -0.16268595734E+03  0.29087853769E+02 -0.13642250324E+03  0.21429867788E+03  0.00000000000E+00 0.  1.
          1    1    6    6  503    0  0.26325291583E+03  0.47379202390E+02 -0.49613558119E+03  0.56364652170E+03  0.00000000000E+00 0. -1.
         -1    1    6    6    0  503  0.58892038426E+03  0.23913170218E+03 -0.12600267105E+04  0.14112684015E+04  0.00000000000E+00 0.  1.
<mgrwt>
<rscale>  0 0.22820554E+04</rscale>
<asrwt>0</asrwt>
<pdfrwt beam="1">  1        4 0.81938839E-01 0.22820554E+04</pdfrwt>
<pdfrwt beam="2">  1       -4 0.37607621E+00 0.22820554E+04</pdfrwt>
<totfact> 0.23759995E-02</totfact>
</mgrwt>
</event>
<event>
12    2  0.3518828E-008  0.2325323E+04  0.7818608E-02  0.8468003E-01
         -1   -1    0    0    0  501 -0.00000000000E+00  0.00000000000E+00  0.72015731962E+03  0.72015731962E+03  0.00000000000E+00 0.  1.
          1   -1    0    0  501    0  0.00000000000E+00 -0.00000000000E+00 -0.18770651652E+04  0.18770651652E+04  0.00000000000E+00 0. -1.
         23    2    1    2    0    0 -0.11495496611E+03 -0.67165305973E+03  0.30858184197E+03  0.75359902133E+03  0.91412553174E+02 0.  0.
        254    2    1    2    0    0  0.11495496611E+03  0.67165305973E+03 -0.14654896876E+04  0.18436234635E+04  0.88710482692E+03 0.  0.
         23    2    4    4    0    0  0.19363084734E+02  0.27051914189E+03  0.31820363255E+02  0.28788884802E+03  0.91169721492E+02 0.  0.
         23    2    4    4    0    0  0.95591881375E+02  0.40113391784E+03 -0.14973100508E+04  0.15557346155E+04  0.91250083289E+02 0.  0.
          3    1    3    3  502    0 -0.40207740000E+02 -0.25455278530E+03  0.68878560815E+02  0.26675464195E+03  0.00000000000E+00 0. -1.
         -3    1    3    3    0  502 -0.74747226109E+02 -0.41710027443E+03  0.23970328116E+03  0.48684437938E+03  0.00000000000E+00 0.  1.
         11    1    5    5    0    0 -0.10802774617E+02  0.17328807715E+03  0.57497943540E+02  0.18289743337E+03  0.00000000000E+00 0.  1.
        -11    1    5    5    0    0  0.30165859351E+02  0.97231064738E+02 -0.25677580285E+02  0.10499141465E+03  0.00000000000E+00 0. -1.
          3    1    6    6  503    0  0.27332876941E+02  0.24710408969E+03 -0.10090280717E+04  0.10392041025E+04  0.00000000000E+00 0. -1.
         -3    1    6    6    0  503  0.68259004434E+02  0.15402982814E+03 -0.48828197914E+03  0.51653051294E+03  0.00000000000E+00 0.  1.
<mgrwt>
<rscale>  0 0.23253234E+04</rscale>
<asrwt>0</asrwt>
<pdfrwt beam="1">  1        1 0.28877925E+00 0.23253234E+04</pdfrwt>
<pdfrwt beam="2">  1       -1 0.11079343E+00 0.23253234E+04</pdfrwt>
<totfact> 0.24433704E+00</totfact>
</mgrwt>
</event>
<event>
12    2  0.3518828E-008  0.4007756E+04  0.7818608E-02  0.8002984E-01
          2   -1    0    0  501    0  0.00000000000E+00  0.00000000000E+00  0.27560021325E+04  0.27560021325E+04  0.00000000000E+00 0. -1.
         -2   -1    0    0    0  501 -0.00000000000E+00 -0.00000000000E+00 -0.14570112589E+04  0.14570112589E+04  0.00000000000E+00 0.  1.
         23    2    1    2    0    0  0.94721811114E+03 -0.70712668470E+03  0.21802393537E+04  0.24817142013E+04  0.90616992060E+02 0.  0.
        254    2    1    2    0    0 -0.94721811114E+03  0.70712668470E+03 -0.88124848007E+03  0.17312991902E+04  0.90749529148E+03 0.  0.
         23    2    4    4    0    0 -0.88726986039E+03  0.48889489891E+03 -0.23810054944E+03  0.10446661641E+04  0.91484946638E+02 0.  0.
         23    2    4    4    0    0 -0.59948250754E+02  0.21823178579E+03 -0.64314793063E+03  0.68663302609E+03  0.81281896743E+02 0.  0.
          4    1    3    3  502    0  0.86884037955E+03 -0.65478938110E+03  0.20519561993E+04  0.23225324503E+04  0.00000000000E+00 0. -1.
         -4    1    3    3    0  502  0.78377731594E+02 -0.52337303599E+02  0.12828315438E+03  0.15918175101E+03  0.00000000000E+00 0.  1.
         11    1    5    5    0    0 -0.85991721907E+03  0.46719192324E+03 -0.21268600616E+03  0.10014795325E+04  0.00000000000E+00 0. -1.
        -11    1    5    5    0    0 -0.27352641318E+02  0.21702975660E+02 -0.25414543282E+02  0.43186631610E+02  0.00000000000E+00 0.  1.
          4    1    6    6  503    0 -0.34301845639E+02  0.31054643251E+02 -0.77429120735E+02  0.90201309411E+02  0.00000000000E+00 0.  1.
         -4    1    6    6    0  503 -0.25646405115E+02  0.18717714254E+03 -0.56571880990E+03  0.59643171668E+03  0.00000000000E+00 0. -1.
<mgrwt>
<rscale>  0 0.40077555E+04</rscale>
<asrwt>0</asrwt>
<pdfrwt beam="1">  1        2 0.42400033E+00 0.40077555E+04</pdfrwt>
<pdfrwt beam="2">  1       -2 0.22415558E+00 0.40077555E+04</pdfrwt>
<totfact> 0.18026461E-01</totfact>
</mgrwt>
</event>
<event>
12    2  0.3518828E-008  0.1327486E+04  0.7818608E-02  0.9008048E-01
          2   -1    0    0  501    0  0.00000000000E+00  0.00000000000E+00  0.66609631951E+03  0.66609631951E+03  0.00000000000E+00 0. -1.
         -2   -1    0    0    0  501 -0.00000000000E+00 -0.00000000000E+00 -0.66139828772E+03  0.66139828772E+03  0.00000000000E+00 0.  1.
         23    2    1    2    0    0 -0.14843383628E+03 -0.25129609381E+03 -0.17713084716E+03  0.34930107603E+03  0.73848318766E+02 0.  0.
        254    2    1    2    0    0  0.14843383628E+03  0.25129609381E+03  0.18182887896E+03  0.97819353120E+03  0.91576116577E+03 0.  0.
         23    2    4    4    0    0  0.35767475474E+03  0.20346859430E+03 -0.24693621598E+03  0.48909022346E+03  0.94345391361E+02 0.  0.
         23    2    4    4    0    0 -0.20924091846E+03  0.47827499502E+02  0.42876509494E+03  0.48910330774E+03  0.96505478259E+02 0.  0.
          2    1    3    3  502    0 -0.42119784736E+02 -0.50172031225E+02 -0.83598934756E+01  0.66039357980E+02  0.00000000000E+00 0. -1.
         -2    1    3    3    0  502 -0.10631405155E+03 -0.20112406258E+03 -0.16877095369E+03  0.28326171805E+03  0.00000000000E+00 0.  1.
         11    1    5    5    0    0  0.14602950355E+03  0.50099746137E+02 -0.13374527837E+03  0.20426061774E+03  0.00000000000E+00 0. -1.
        -11    1    5    5    0    0  0.21164525119E+03  0.15336884817E+03 -0.11319093761E+03  0.28482960572E+03  0.00000000000E+00 0.  1.
          3    1    6    6  503    0 -0.66469559862E+02  0.40673908026E+02  0.23989697147E+03  0.25223625058E+03  0.00000000000E+00 0. -1.
         -3    1    6    6    0  503 -0.14277135860E+03  0.71535914765E+01  0.18886812347E+03  0.23686705716E+03  0.00000000000E+00 0.  1.
<mgrwt>
<rscale>  0 0.13274863E+04</rscale>
<asrwt>0</asrwt>
<pdfrwt beam="1">  1        2 0.10247636E+00 0.13274863E+04</pdfrwt>
<pdfrwt beam="2">  1       -2 0.10175358E+00 0.13274863E+04</pdfrwt>
<totfact> 0.33822507E+01</totfact>
</mgrwt>
</event>
<event>
12    2  0.3518828E-008  0.1895046E+04  0.7818608E-02  0.8657326E-01
         -2   -1    0    0    0  501 -0.00000000000E+00  0.00000000000E+00  0.10349714665E+04  0.10349714665E+04  0.00000000000E+00 0.  1.
          2   -1    0    0  501    0  0.00000000000E+00 -0.00000000000E+00 -0.86746306419E+03  0.86746306419E+03  0.00000000000E+00 0. -1.
         23    2    1    2    0    0 -0.46600343506E+03  0.20349668618E+03  0.59199478766E+03  0.78631137810E+03  0.96216692551E+02 0.  0.
        254    2    1    2    0    0  0.46600343506E+03 -0.20349668618E+03 -0.42448638538E+03  0.11161231526E+04  0.89831625697E+03 0.  0.
         23    2    4    4    0    0 -0.18674594480E+03  0.77628726282E+02 -0.32358095900E+03  0.39236783783E+03  0.91365289334E+02 0.  0.
         23    2    4    4    0    0  0.65274937986E+03 -0.28112541246E+03 -0.10090542638E+03  0.72375531473E+03  0.92339591098E+02 0.  0.
          1    1    3    3  502    0 -0.65712869302E+02  0.52847647380E+02  0.58944145109E+02  0.10288570002E+03  0.00000000000E+00 0. -1.
         -1    1    3    3    0  502 -0.40029056576E+03  0.15064903880E+03  0.53305064255E+03  0.68342567808E+03  0.00000000000E+00 0.  1.
         11    1    5    5    0    0  0.77757426620E+00  0.15697806614E+02 -0.32438231240E+01  0.16048306537E+02  0.00000000000E+00 0. -1.
        -11    1    5    5    0    0 -0.18752351906E+03  0.61930919668E+02 -0.32033713588E+03  0.37631953130E+03  0.00000000000E+00 0.  1.
          1    1    6    6  503    0  0.39413515553E+02 -0.16098891128E+02 -0.29516597681E+02  0.51805685426E+02  0.00000000000E+00 0. -1.
         -1    1    6    6    0  503  0.61333586431E+03 -0.26502652133E+03 -0.71388828698E+02  0.67194962930E+03  0.00000000000E+00 0.  1.
<mgrwt>
<rscale>  0 0.18950457E+04</rscale>
<asrwt>0</asrwt>
<pdfrwt beam="1">  1        2 0.13345586E+00 0.18950457E+04</pdfrwt>
<pdfrwt beam="2">  1       -2 0.15922638E+00 0.18950457E+04</pdfrwt>
<totfact> 0.73784093E+00</totfact>
</mgrwt>
</event>
<event>
12    2  0.3518828E-008  0.2040312E+04  0.7818608E-02  0.8588002E-01
         -2   -1    0    0    0  501 -0.00000000000E+00  0.00000000000E+00  0.11403976726E+04  0.11403976726E+04  0.00000000000E+00 0. -1.
          2   -1    0    0  501    0  0.00000000000E+00 -0.00000000000E+00 -0.91259219213E+03  0.91259219213E+03  0.00000000000E+00 0.  1.
         23    2    1    2    0    0 -0.16198405645E+02 -0.16491612309E+03 -0.71311844842E+03  0.73768748976E+03  0.90472067900E+02 0.  0.
        254    2    1    2    0    0  0.16198405645E+02  0.16491612309E+03  0.94092392893E+03  0.13153023750E+04  0.90400375091E+03 0.  0.
         23    2    4    4    0    0  0.19204560091E+02 -0.14862573766E+03 -0.11623887887E+03  0.20892022678E+03  0.87622823351E+02 0.  0.
         23    2    4    4    0    0 -0.30061544458E+01  0.31354186075E+03  0.10571628078E+04  0.11063821482E+04  0.90392036736E+02 0.  0.
          1    1    3    3  502    0 -0.16278107278E+02 -0.15641737886E+02 -0.25519759899E+02  0.34071966276E+02  0.00000000000E+00 0. -1.
         -1    1    3    3    0  502  0.79701632621E-01 -0.14927438521E+03 -0.68759868852E+03  0.70361552349E+03  0.00000000000E+00 0.  1.
         11    1    5    5    0    0  0.14275607552E+02 -0.15959790097E+03 -0.10062588704E+03  0.18921113104E+03  0.00000000000E+00 0. -1.
        -11    1    5    5    0    0  0.49289525388E+01  0.10972163313E+02 -0.15612991836E+02  0.19709095742E+02  0.00000000000E+00 0.  1.
          1    1    6    6  503    0 -0.22375479548E+02  0.27009422993E+03  0.79467951393E+03  0.83962318035E+03  0.00000000000E+00 0. -1.
         -1    1    6    6    0  503  0.19369325102E+02  0.43447630826E+02  0.26248329388E+03  0.26675896788E+03  0.00000000000E+00 0.  1.
<mgrwt>
<rscale>  0 0.20403118E+04</rscale>
<asrwt>0</asrwt>
<pdfrwt beam="1">  1        2 0.14039880E+00 0.20403118E+04</pdfrwt>
<pdfrwt beam="2">  1       -2 0.17544580E+00 0.20403118E+04</pdfrwt>
<totfact> 0.51922355E+00</totfact>
</mgrwt>
</event>
<event>
12    2  0.3518828E-008  0.1168323E+04  0.7818608E-02  0.9141044E-01
         -1   -1    0    0    0  501 -0.00000000000E+00  0.00000000000E+00  0.57663611406E+03  0.57663611406E+03  0.00000000000E+00 0.  1.
          1   -1    0    0  501    0  0.00000000000E+00 -0.00000000000E+00 -0.59178537990E+03  0.59178537990E+03  0.00000000000E+00 0. -1.
         23    2    1    2    0    0  0.12212028382E+03 -0.18291225224E+03 -0.14191368260E+02  0.23852432245E+03  0.91226102224E+02 0.  0.
        254    2    1    2    0    0 -0.12212028382E+03  0.18291225224E+03 -0.95789757949E+00  0.92989717151E+03  0.90351401554E+03 0.  0.
         23    2    4    4    0    0  0.83109192395E+02  0.19813257580E+03 -0.40496666895E+03  0.46758928321E+03  0.92076486442E+02 0.  0.
         23    2    4    4    0    0 -0.20522947621E+03 -0.15220323559E+02  0.40400877137E+03  0.46230788831E+03  0.90303378071E+02 0.  0.
          3    1    3    3  502    0  0.72667779240E+02 -0.17282499938E+03 -0.14638671574E+02  0.18805152820E+03  0.00000000000E+00 0. -1.
         -3    1    3    3    0  502  0.49452504576E+02 -0.10087252854E+02  0.44730331455E+00  0.50472794249E+02  0.00000000000E+00 0.  1.
         11    1    5    5    0    0  0.50588662544E+02  0.19187238321E+03 -0.36699569008E+03  0.41720505840E+03  0.00000000000E+00 0. -1.
        -11    1    5    5    0    0  0.32520529850E+02  0.62601925889E+01 -0.37970978867E+02  0.50384224804E+02  0.00000000000E+00 0.  1.
          4    1    6    6  503    0 -0.17018530039E+03 -0.39647719702E+02  0.26962796709E+03  0.32130082288E+03  0.00000000000E+00 0.  1.
         -4    1    6    6    0  503 -0.35044175824E+02  0.24427396143E+02  0.13438080428E+03  0.14100706543E+03  0.00000000000E+00 0. -1.
<mgrwt>
<rscale>  0 0.11683233E+04</rscale>
<asrwt>0</asrwt>
<pdfrwt beam="1">  1        1 0.91043904E-01 0.11683233E+04</pdfrwt>
<pdfrwt beam="2">  1       -1 0.88713249E-01 0.11683233E+04</pdfrwt>
<totfact> 0.43237486E+01</totfact>
</mgrwt>
</event>
<event>
12    2  0.3518828E-008  0.1595492E+04  0.7818608E-02  0.8823322E-01
         -2   -1    0    0    0  501 -0.00000000000E+00  0.00000000000E+00  0.44870832763E+03  0.44870832763E+03  0.00000000000E+00 0. -1.
          2   -1    0    0  501    0  0.00000000000E+00 -0.00000000000E+00 -0.14182909307E+04  0.14182909307E+04  0.00000000000E+00 0.  1.
         23    2    1    2    0    0  0.33462532990E+03 -0.41744225961E+03 -0.40550110687E+03  0.67783119528E+03  0.93764759387E+02 0.  0.
        254    2    1    2    0    0 -0.33462532990E+03  0.41744225961E+03 -0.56408149624E+03  0.11891680631E+04  0.89983364928E+03 0.  0.
         23    2    4    4    0    0 -0.62170977703E+03  0.38471526085E+03 -0.33549170527E+03  0.80960258703E+03  0.91502927963E+02 0.  0.
         23    2    4    4    0    0  0.28708444713E+03  0.32726998757E+02 -0.22858979097E+03  0.37956547607E+03  0.91258544029E+02 0.  0.
          1    1    3    3  502    0  0.59853928020E+02 -0.95625591838E+02 -0.13353511164E+03  0.17480953222E+03  0.00000000000E+00 0. -1.
         -1    1    3    3    0  502  0.27477140188E+03 -0.32181666777E+03 -0.27196599523E+03  0.50302166306E+03  0.00000000000E+00 0.  1.
         11    1    5    5    0    0 -0.62261082188E+03  0.38707788093E+03 -0.33086291109E+03  0.80432815900E+03  0.00000000000E+00 0. -1.
        -11    1    5    5    0    0  0.90104484512E+00 -0.23626200775E+01 -0.46287941835E+01  0.52744280294E+01  0.00000000000E+00 0.  1.
          3    1    6    6  503    0  0.27929907110E+03  0.24760301131E+02 -0.18827554369E+03  0.33774061642E+03  0.00000000000E+00 0. -1.
         -3    1    6    6    0  503  0.77853760311E+01  0.79666976254E+01 -0.40314247281E+02  0.41824859651E+02  0.00000000000E+00 0.  1.
<mgrwt>
<rscale>  0 0.15954923E+04</rscale>
<asrwt>0</asrwt>
<pdfrwt beam="1">  1        2 0.21819860E+00 0.15954923E+04</pdfrwt>
<pdfrwt beam="2">  1       -2 0.69032052E-01 0.15954923E+04</pdfrwt>
<totfact> 0.25965895E+01</totfact>
</mgrwt>
</event>
<event>
12    2  0.3518828E-008  0.1418063E+04  0.7818608E-02  0.8940846E-01
          2   -1    0    0  501    0  0.00000000000E+00  0.00000000000E+00  0.16247145920E+04  0.16247145920E+04  0.00000000000E+00 0.  1.
         -2   -1    0    0    0  501 -0.00000000000E+00 -0.00000000000E+00 -0.30942418810E+03  0.30942418810E+03  0.00000000000E+00 0. -1.
         23    2    1    2    0    0  0.22755990700E+03  0.34235120929E+03  0.33151203140E+03  0.53611910186E+03  0.92388325260E+02 0.  0.
        254    2    1    2    0    0 -0.22755990700E+03 -0.34235120929E+03  0.98377837248E+03  0.13980196782E+04  0.90424071615E+03 0.  0.
         23    2    4    4    0    0  0.26745632598E+03  0.80422686895E+02  0.50962700538E+03  0.58838032210E+03  0.92038165677E+02 0.  0.
         23    2    4    4    0    0 -0.49501623297E+03 -0.42277389618E+03  0.47415136710E+03  0.80963935612E+03  0.83171689059E+02 0.  0.
          2    1    3    3  502    0  0.17755002620E+03  0.24010592008E+03  0.18768951175E+03  0.35270698530E+03  0.00000000000E+00 0. -1.
         -2    1    3    3    0  502  0.50009880801E+02  0.10224528921E+03  0.14382251964E+03  0.18341211655E+03  0.00000000000E+00 0.  1.
         11    1    5    5    0    0  0.88246905951E+02  0.70907319150E+02  0.22554677402E+03  0.25236226261E+03  0.00000000000E+00 0. -1.
        -11    1    5    5    0    0  0.17920942002E+03  0.95153677455E+01  0.28408023137E+03  0.33601805949E+03  0.00000000000E+00 0.  1.
          4    1    6    6  503    0 -0.13769136697E+03 -0.16558760382E+03  0.13883421256E+03  0.25622861990E+03  0.00000000000E+00 0. -1.
         -4    1    6    6    0  503 -0.35732486600E+03 -0.25718629236E+03  0.33531715453E+03  0.55341073623E+03  0.00000000000E+00 0.  1.
<mgrwt>
<rscale>  0 0.14180635E+04</rscale>
<asrwt>0</asrwt>
<pdfrwt beam="1">  1        2 0.24995609E+00 0.14180635E+04</pdfrwt>
<pdfrwt beam="2">  1       -2 0.47603722E-01 0.14180635E+04</pdfrwt>
<totfact> 0.43901584E+01</totfact>
</mgrwt>
</event>
<event>
12    2  0.3518828E-008  0.1782161E+04  0.7818608E-02  0.8715844E-01
         -1   -1    0    0    0  501 -0.00000000000E+00  0.00000000000E+00  0.58975277006E+03  0.58975277006E+03  0.00000000000E+00 0.  1.
          1   -1    0    0  501    0  0.00000000000E+00 -0.00000000000E+00 -0.13463686887E+04  0.13463686887E+04  0.00000000000E+00 0. -1.
         23    2    1    2    0    0 -0.46883994181E+03 -0.41468886931E+03 -0.59456046525E+02  0.63527448809E+03  0.90889517483E+02 0.  0.
        254    2    1    2    0    0  0.46883994181E+03  0.41468886931E+03 -0.69715987208E+03  0.13008469706E+04  0.90243736869E+03 0.  0.
         23    2    4    4    0    0  0.35628950196E+03  0.48059705261E+03 -0.19960224320E+02  0.60518572205E+03  0.89082048850E+02 0.  0.
         23    2    4    4    0    0  0.11255043985E+03 -0.65908183304E+02 -0.67719964776E+03  0.69566124859E+03  0.91289209247E+02 0.  0.
          2    1    3    3  502    0 -0.29276207101E+03 -0.27670340367E+03  0.36161949548E+01  0.40284920341E+03  0.00000000000E+00 0. -1.
         -2    1    3    3    0  502 -0.17607787080E+03 -0.13798546564E+03 -0.63072241480E+02  0.23242528468E+03  0.00000000000E+00 0.  1.
         11    1    5    5    0    0  0.24610697125E+02  0.12140662751E+02 -0.14790675709E+02  0.31174447757E+02  0.00000000000E+00 0.  1.
        -11    1    5    5    0    0  0.33167880483E+03  0.46845638986E+03 -0.51695486112E+01  0.57401127429E+03  0.00000000000E+00 0. -1.
          4    1    6    6  503    0  0.36950084119E+02  0.19104947283E+02 -0.12113218137E+03  0.12807541954E+03  0.00000000000E+00 0.  1.
         -4    1    6    6    0  503  0.75600355731E+02 -0.85013130587E+02 -0.55606746639E+03  0.56758582905E+03  0.00000000000E+00 0. -1.
<mgrwt>
<rscale>  0 0.17821612E+04</rscale>
<asrwt>0</asrwt>
<pdfrwt beam="1">  1        1 0.20713364E+00 0.17821612E+04</pdfrwt>
<pdfrwt beam="2">  1       -1 0.90731196E-01 0.17821612E+04</pdfrwt>
<totfact> 0.94000663E+00</totfact>
</mgrwt>
</event>
<event>
12    2  0.3518828E-008  0.1391720E+04  0.7818608E-02  0.8959834E-01
          2   -1    0    0  501    0  0.00000000000E+00  0.00000000000E+00  0.13490824576E+04  0.13490824576E+04  0.00000000000E+00 0. -1.
         -2   -1    0    0    0  501 -0.00000000000E+00 -0.00000000000E+00 -0.35892642264E+03  0.35892642264E+03  0.00000000000E+00 0.  1.
         23    2    1    2    0    0  0.30399207569E+03 -0.80394317952E+02 -0.32412832657E+01  0.32757803889E+03  0.91773837232E+02 0.  0.
        254    2    1    2    0    0 -0.30399207569E+03  0.80394317952E+02  0.99339731824E+03  0.13804308414E+04  0.90547040122E+03 0.  0.
         23    2    4    4    0    0 -0.54164416351E+03 -0.11024621310E+03  0.34299068961E+03  0.65644352718E+03  0.87993544315E+02 0.  0.
         23    2    4    4    0    0  0.23765208782E+03  0.19064053105E+03  0.65040662863E+03  0.72398731420E+03  0.91140120840E+02 0.  0.
          1    1    3    3  502    0 -0.40634104636E+01 -0.41865588773E+01 -0.83605529892E+01  0.10194970628E+02  0.00000000000E+00 0. -1.
         -1    1    3    3    0  502  0.30805548616E+03 -0.76207759074E+02  0.51192697234E+01  0.31738306826E+03  0.00000000000E+00 0.  1.
         11    1    5    5    0    0 -0.39658823031E+03 -0.11442357854E+03  0.27652036593E+03  0.49682843369E+03  0.00000000000E+00 0. -1.
        -11    1    5    5    0    0 -0.14505593320E+03  0.41773654352E+01  0.66470323680E+02  0.15961509349E+03  0.00000000000E+00 0.  1.
          4    1    6    6  503    0  0.93639224852E+02  0.11593863059E+03  0.23790334815E+03  0.28072775701E+03  0.00000000000E+00 0. -1.
         -4    1    6    6    0  503  0.14401286297E+03  0.74701900465E+02  0.41250328047E+03  0.44325955718E+03  0.00000000000E+00 0.  1.
<mgrwt>
<rscale>  0 0.13917203E+04</rscale>
<asrwt>0</asrwt>
<pdfrwt beam="1">  1        2 0.20755114E+00 0.13917203E+04</pdfrwt>
<pdfrwt beam="2">  1       -2 0.55219450E-01 0.13917203E+04</pdfrwt>
<totfact> 0.46478442E+01</totfact>
</mgrwt>
</event>
<event>
12    2  0.3518828E-008  0.1714074E+04  0.7818608E-02  0.8753378E-01
          2   -1    0    0  501    0  0.00000000000E+00  0.00000000000E+00  0.76660618017E+03  0.76660618017E+03  0.00000000000E+00 0. -1.
         -2   -1    0    0    0  501 -0.00000000000E+00 -0.00000000000E+00 -0.95813527572E+03  0.95813527572E+03  0.00000000000E+00 0.  1.
         23    2    1    2    0    0 -0.18463416448E+03  0.25224389474E+03 -0.59172195492E+03  0.67530910219E+03  0.90502786877E+02 0.  0.
        254    2    1    2    0    0  0.18463416448E+03 -0.25224389474E+03  0.40019285938E+03  0.10494323537E+04  0.91838836185E+03 0.  0.
         23    2    4    4    0    0  0.57139386170E+02  0.99329274917E+02 -0.25223379124E+03  0.29189065747E+03  0.91907867838E+02 0.  0.
         23    2    4    4    0    0  0.12749477831E+03 -0.35157316966E+03  0.65242665061E+03  0.75754169624E+03  0.91379839046E+02 0.  0.
          2    1    3    3  502    0 -0.14998529966E+02  0.84255993981E+02 -0.18173938989E+03  0.20088114462E+03  0.00000000000E+00 0. -1.
         -2    1    3    3    0  502 -0.16963563451E+03  0.16798790076E+03 -0.40998256503E+03  0.47442795757E+03  0.00000000000E+00 0.  1.
         11    1    5    5    0    0  0.48510087550E+02  0.23437022012E+01 -0.68779381399E+02  0.84198128482E+02  0.00000000000E+00 0. -1.
        -11    1    5    5    0    0  0.86292986199E+01  0.96985572716E+02 -0.18345440984E+03  0.20769252899E+03  0.00000000000E+00 0.  1.
          4    1    6    6  503    0  0.16246792048E+01 -0.57276710189E+02  0.16264900672E+03  0.17244697880E+03  0.00000000000E+00 0. -1.
         -4    1    6    6    0  503  0.12587009910E+03 -0.29429645947E+03  0.48977764390E+03  0.58509471743E+03  0.00000000000E+00 0.  1.
<mgrwt>
<rscale>  0 0.17140740E+04</rscale>
<asrwt>0</asrwt>
<pdfrwt beam="1">  1        2 0.11793941E+00 0.17140740E+04</pdfrwt>
<pdfrwt beam="2">  1       -2 0.14740543E+00 0.17140740E+04</pdfrwt>
<totfact> 0.10864633E+01</totfact>
</mgrwt>
</event>
<event>
12    2  0.3518828E-008  0.1761131E+04  0.7818608E-02  0.8727247E-01
          2   -1    0    0  501    0  0.00000000000E+00  0.00000000000E+00  0.16224320117E+04  0.16224320117E+04  0.00000000000E+00 0. -1.
         -2   -1    0    0    0  501 -0.00000000000E+00 -0.00000000000E+00 -0.47792176153E+03  0.47792176153E+03  0.00000000000E+00 0.  1.
         23    2    1    2    0    0  0.57280644708E+03 -0.28197296598E+03  0.51819606153E+03  0.82715547668E+03  0.89683025488E+02 0.  0.
        254    2    1    2    0    0 -0.57280644708E+03  0.28197296598E+03  0.62631418861E+03  0.12731982965E+04  0.90617242290E+03 0.  0.
         23    2    4    4    0    0 -0.30145988719E+03 -0.21935413901E+03  0.57766454175E+03  0.69371037922E+03  0.92430869065E+02 0.  0.
         23    2    4    4    0    0 -0.27134655989E+03  0.50132710499E+03  0.48649646856E+02  0.57948791729E+03  0.92095799999E+02 0.  0.
          2    1    3    3  502    0  0.39710772639E+02 -0.35059815286E+02  0.19211881607E+02  0.56349201470E+02  0.00000000000E+00 0. -1.
         -2    1    3    3    0  502  0.53309567444E+03 -0.24691315069E+03  0.49898417992E+03  0.77080627521E+03  0.00000000000E+00 0.  1.
         11    1    5    5    0    0 -0.26852790889E+03 -0.21136299329E+03  0.55856702413E+03  0.65481193729E+03  0.00000000000E+00 0. -1.
        -11    1    5    5    0    0 -0.32931978301E+02 -0.79911457289E+01  0.19097517625E+02  0.38898441927E+02  0.00000000000E+00 0.  1.
          1    1    6    6  503    0 -0.20331596815E+03  0.30796730587E+03  0.93227545597E+00  0.36902860801E+03  0.00000000000E+00 0. -1.
         -1    1    6    6    0  503 -0.68030591741E+02  0.19335979913E+03  0.47717371400E+02  0.21045930928E+03  0.00000000000E+00 0.  1.
<mgrwt>
<rscale>  0 0.17611310E+04</rscale>
<asrwt>0</asrwt>
<pdfrwt beam="1">  1        2 0.24960492E+00 0.17611310E+04</pdfrwt>
<pdfrwt beam="2">  1       -2 0.73526425E-01 0.17611310E+04</pdfrwt>
<totfact> 0.17117714E+01</totfact>
</mgrwt>
</event>
<event>
12    2  0.3518828E-008  0.2002026E+04  0.7818608E-02  0.8605674E-01
          1   -1    0    0  501    0  0.00000000000E+00  0.00000000000E+00  0.81971706007E+03  0.81971706007E+03  0.00000000000E+00 0. -1.
         -1   -1    0    0    0  501 -0.00000000000E+00 -0.00000000000E+00 -0.12224059183E+04  0.12224059183E+04  0.00000000000E+00 0.  1.
         23    2    1    2    0    0 -0.23824808821E+03  0.64642528037E+03 -0.55478904974E+03  0.88920949985E+03  0.90966204086E+02 0.  0.
        254    2    1    2    0    0  0.23824808821E+03 -0.64642528037E+03  0.15210019147E+03  0.11529134786E+04  0.91183728052E+03 0.  0.
         23    2    4    4    0    0  0.39821757847E+03 -0.36396234746E+03 -0.27201208265E+03  0.61118357970E+03  0.92244050268E+02 0.  0.
         23    2    4    4    0    0 -0.15996949027E+03 -0.28246293291E+03  0.42411227412E+03  0.54172989886E+03  0.90689117160E+02 0.  0.
          1    1    3    3  502    0 -0.10271026603E+03  0.27001840516E+03 -0.29071949171E+03  0.40985016864E+03  0.00000000000E+00 0. -1.
         -1    1    3    3    0  502 -0.13553782218E+03  0.37640687521E+03 -0.26406955803E+03  0.47935933121E+03  0.00000000000E+00 0.  1.
         11    1    5    5    0    0  0.19951432658E+03 -0.13536341110E+03 -0.15418472347E+03  0.28618551418E+03  0.00000000000E+00 0. -1.
        -11    1    5    5    0    0  0.19870325189E+03 -0.22859893636E+03 -0.11782735918E+03  0.32499806552E+03  0.00000000000E+00 0.  1.
          4    1    6    6  503    0 -0.72470573986E+02 -0.18712923797E+03  0.20239694318E+03  0.28501554064E+03  0.00000000000E+00 0. -1.
         -4    1    6    6    0  503 -0.87498916282E+02 -0.95333694941E+02  0.22171533094E+03  0.25671435822E+03  0.00000000000E+00 0.  1.
<mgrwt>
<rscale>  0 0.20020260E+04</rscale>
<asrwt>0</asrwt>
<pdfrwt beam="1">  1        1 0.12611032E+00 0.20020260E+04</pdfrwt>
<pdfrwt beam="2">  1       -1 0.18806245E+00 0.20020260E+04</pdfrwt>
<totfact> 0.35943898E+00</totfact>
</mgrwt>
</event>
<event>
12    2  0.3518828E-008  0.2207876E+04  0.7818608E-02  0.8515157E-01
          2   -1    0    0  501    0  0.00000000000E+00  0.00000000000E+00  0.19061696614E+04  0.19061696614E+04  0.00000000000E+00 0.  1.
         -2   -1    0    0    0  501 -0.00000000000E+00 -0.00000000000E+00 -0.63933391510E+03  0.63933391510E+03  0.00000000000E+00 0. -1.
         23    2    1    2    0    0 -0.14679840185E+02  0.44375700305E+02  0.15900202661E+04  0.15933263917E+04  0.91322743404E+02 0.  0.
        254    2    1    2    0    0  0.14679840185E+02 -0.44375700305E+02 -0.32318451982E+03  0.95217718475E+03  0.89443191849E+03 0.  0.
         23    2    4    4    0    0  0.14077745113E+03  0.60299098136E+02  0.27393915033E+03  0.32627636123E+03  0.89215098678E+02 0.  0.
         23    2    4    4    0    0 -0.12609761095E+03 -0.10467479844E+03 -0.59712367015E+03  0.62590082352E+03  0.91311239764E+02 0.  0.
          4    1    3    3  502    0  0.31562526848E+02 -0.70134778167E+01  0.62279216562E+03  0.62363087122E+03  0.00000000000E+00 0. -1.
         -4    1    3    3    0  502 -0.46242367033E+02  0.51389178121E+02  0.96722810049E+03  0.96969552052E+03  0.00000000000E+00 0.  1.
         11    1    5    5    0    0  0.15031387512E+03  0.42554003168E+02  0.23125360166E+03  0.27907585442E+03  0.00000000000E+00 0. -1.
        -11    1    5    5    0    0 -0.95364239912E+01  0.17745094968E+02  0.42685548673E+02  0.47200506813E+02  0.00000000000E+00 0.  1.
          3    1    6    6  503    0 -0.89018286753E+02 -0.95976095473E+02 -0.54972821316E+03  0.56509890694E+03  0.00000000000E+00 0. -1.
         -3    1    6    6    0  503 -0.37079324193E+02 -0.86987029678E+01 -0.47395456988E+02  0.60801916574E+02  0.00000000000E+00 0.  1.
<mgrwt>
<rscale>  0 0.22078758E+04</rscale>
<asrwt>0</asrwt>
<pdfrwt beam="1">  1        2 0.29325687E+00 0.22078758E+04</pdfrwt>
<pdfrwt beam="2">  1       -2 0.98359064E-01 0.22078758E+04</pdfrwt>
<totfact> 0.59108996E+00</totfact>
</mgrwt>
</event>
<event>
12    2  0.3518828E-008  0.3037329E+04  0.7818608E-02  0.8233151E-01
         -1   -1    0    0    0  501 -0.00000000000E+00  0.00000000000E+00  0.74454982285E+03  0.74454982285E+03  0.00000000000E+00 0.  1.
          1   -1    0    0  501    0  0.00000000000E+00 -0.00000000000E+00 -0.30976324912E+04  0.30976324912E+04  0.00000000000E+00 0. -1.
         23    2    1    2    0    0  0.91306943735E+03  0.61952427669E+03 -0.21350293664E+04  0.24049933575E+04  0.90202699997E+02 0.  0.
        254    2    1    2    0    0 -0.91306943735E+03 -0.61952427669E+03 -0.21805330190E+03  0.14371889566E+04  0.89468359077E+03 0.  0.
         23    2    4    4    0    0 -0.36779156494E+03 -0.74541975530E+03 -0.18827186448E+02  0.83630966829E+03  0.90211703720E+02 0.  0.
         23    2    4    4    0    0 -0.54527787241E+03  0.12589547861E+03 -0.19922611545E+03  0.60087928828E+03  0.90483392573E+02 0.  0.
          3    1    3    3  502    0  0.53978472883E+03  0.38500779269E+03 -0.11912694686E+04  0.13633493685E+04  0.00000000000E+00 0. -1.
         -3    1    3    3    0  502  0.37328470852E+03  0.23451648400E+03 -0.94375989783E+03  0.10416439889E+04  0.00000000000E+00 0.  1.
         11    1    5    5    0    0 -0.14246210643E+03 -0.21624986119E+03 -0.32569069728E+02  0.26099846463E+03  0.00000000000E+00 0. -1.
        -11    1    5    5    0    0 -0.22532945851E+03 -0.52916989411E+03  0.13741883279E+02  0.57531120366E+03  0.00000000000E+00 0.  1.
          1    1    6    6  503    0  0.28018727087E+01 -0.32679914125E+00  0.20877711597E+01  0.35094268435E+01  0.00000000000E+00 0. -1.
         -1    1    6    6    0  503 -0.54807974512E+03  0.12622227775E+03 -0.20131388661E+03  0.59736986144E+03  0.00000000000E+00 0.  1.
<mgrwt>
<rscale>  0 0.30373289E+04</rscale>
<asrwt>0</asrwt>
<pdfrwt beam="1">  1        1 0.47655886E+00 0.30373289E+04</pdfrwt>
<pdfrwt beam="2">  1       -1 0.11454612E+00 0.30373289E+04</pdfrwt>
<totfact> 0.29762336E-01</totfact>
</mgrwt>
</event>
<event>
12    2  0.3518828E-008  0.1968194E+04  0.7818608E-02  0.8621637E-01
         -1   -1    0    0    0  501 -0.00000000000E+00  0.00000000000E+00  0.16395728012E+04  0.16395728012E+04  0.00000000000E+00 0.  1.
          1   -1    0    0  501    0  0.00000000000E+00 -0.00000000000E+00 -0.59067049635E+03  0.59067049635E+03  0.00000000000E+00 0. -1.
         23    2    1    2    0    0  0.31449424704E+03  0.71284002543E+03  0.36565361999E+03  0.86581617053E+03  0.94273740118E+02 0.  0.
        254    2    1    2    0    0 -0.31449424704E+03 -0.71284002543E+03  0.68324868483E+03  0.13644271270E+04  0.88757258083E+03 0.  0.
         23    2    4    4    0    0 -0.32714184770E+02 -0.39747103526E+03 -0.14140233257E+03  0.43324737441E+03  0.93033467206E+02 0.  0.
         23    2    4    4    0    0 -0.28178006227E+03 -0.31536899016E+03  0.82465101741E+03  0.93117975257E+03  0.90492141316E+02 0.  0.
          1    1    3    3  502    0  0.43753458994E+02  0.19644637780E+03  0.10732966868E+03  0.22809033803E+03  0.00000000000E+00 0. -1.
         -1    1    3    3    0  502  0.27074078805E+03  0.51639364763E+03  0.25832395131E+03  0.63772583251E+03  0.00000000000E+00 0.  1.
         11    1    5    5    0    0  0.18283693131E+02 -0.28648571926E+03 -0.91408224655E+02  0.30127035086E+03  0.00000000000E+00 0.  1.
        -11    1    5    5    0    0 -0.50997877901E+02 -0.11098531600E+03 -0.49994107916E+02  0.13197702355E+03  0.00000000000E+00 0. -1.
          3    1    6    6  503    0 -0.19658129610E+02 -0.45408722879E+02  0.52028076065E+02  0.71800521393E+02  0.00000000000E+00 0. -1.
         -3    1    6    6    0  503 -0.26212193266E+03 -0.26996026729E+03  0.77262294134E+03  0.85937923118E+03  0.00000000000E+00 0.  1.
<mgrwt>
<rscale>  0 0.19681944E+04</rscale>
<asrwt>0</asrwt>
<pdfrwt beam="1">  1        1 0.90872384E-01 0.19681944E+04</pdfrwt>
<pdfrwt beam="2">  1       -1 0.25224197E+00 0.19681944E+04</pdfrwt>
<totfact> 0.21966652E+00</totfact>
</mgrwt>
</event>
<event>
12    2  0.3518828E-008  0.1403089E+04  0.7818608E-02  0.8951586E-01
          1   -1    0    0  501    0  0.00000000000E+00  0.00000000000E+00  0.20116922926E+04  0.20116922926E+04  0.00000000000E+00 0. -1.
         -1   -1    0    0    0  501 -0.00000000000E+00 -0.00000000000E+00 -0.24465199073E+03  0.24465199073E+03  0.00000000000E+00 0.  1.
         23    2    1    2    0    0  0.12119727165E+03  0.23302347164E+03  0.10099898795E+04  0.10474088927E+04  0.89426589966E+02 0.  0.
        254    2    1    2    0    0 -0.12119727165E+03 -0.23302347164E+03  0.75705042243E+03  0.12089353906E+04  0.90521307965E+03 0.  0.
         23    2    4    4    0    0  0.27607839674E+03  0.16614911408E+02  0.66045708267E+03  0.72146106156E+03  0.88358185069E+02 0.  0.
         23    2    4    4    0    0 -0.39727566839E+03 -0.24963838305E+03  0.96593339763E+02  0.48747432905E+03  0.90297670005E+02 0.  0.
          2    1    3    3  502    0  0.83824359075E+02  0.21005575218E+03  0.73712019915E+03  0.77103575156E+03  0.00000000000E+00 0. -1.
         -2    1    3    3    0  502  0.37372912575E+02  0.22967719466E+02  0.27286968030E+03  0.27637314117E+03  0.00000000000E+00 0.  1.
         11    1    5    5    0    0  0.49059829683E+02  0.17846096558E+02  0.60063861608E+02  0.79580258370E+02  0.00000000000E+00 0. -1.
        -11    1    5    5    0    0  0.22701856706E+03 -0.12311851504E+01  0.60039322106E+03  0.64188080319E+03  0.00000000000E+00 0.  1.
          4    1    6    6  503    0 -0.90941397152E+02 -0.52758791750E+02  0.61101855836E+02  0.12160289721E+03  0.00000000000E+00 0. -1.
         -4    1    6    6    0  503 -0.30633427124E+03 -0.19687959130E+03  0.35491483927E+02  0.36587143184E+03  0.00000000000E+00 0.  1.
<mgrwt>
<rscale>  0 0.14030888E+04</rscale>
<asrwt>0</asrwt>
<pdfrwt beam="1">  1        1 0.30949111E+00 0.14030888E+04</pdfrwt>
<pdfrwt beam="2">  1       -1 0.37638769E-01 0.14030888E+04</pdfrwt>
<totfact> 0.19430857E+01</totfact>
</mgrwt>
</event>
<event>
12    2  0.3518828E-008  0.1035101E+04  0.7818608E-02  0.9270863E-01
         -4   -1    0    0    0  501 -0.00000000000E+00  0.00000000000E+00  0.37067726257E+03  0.37067726257E+03  0.00000000000E+00 0.  1.
          4   -1    0    0  501    0  0.00000000000E+00 -0.00000000000E+00 -0.72261929265E+03  0.72261929265E+03  0.00000000000E+00 0. -1.
         23    2    1    2    0    0 -0.95241653166E+02  0.11050478563E+02 -0.54599706338E+02  0.14306443938E+03  0.91067119799E+02 0.  0.
        254    2    1    2    0    0  0.95241653166E+02 -0.11050478563E+02 -0.29734232374E+03  0.95023211584E+03  0.89740488684E+03 0.  0.
         23    2    4    4    0    0  0.44692575115E+02 -0.19548184735E+03 -0.56732391794E+03  0.60840541923E+03  0.89945246475E+02 0.  0.
         23    2    4    4    0    0  0.50549078050E+02  0.18443136878E+03  0.26998159420E+03  0.34182669662E+03  0.85937711338E+02 0.  0.
          1    1    3    3  502    0 -0.23712634921E+02 -0.28226328042E+02 -0.48932145961E+02  0.61264749718E+02  0.00000000000E+00 0. -1.
         -1    1    3    3    0  502 -0.71529018245E+02  0.39276806605E+02 -0.56675603776E+01  0.81799689662E+02  0.00000000000E+00 0.  1.
         11    1    5    5    0    0  0.47491047985E+01 -0.10401017910E+03 -0.40220406975E+03  0.41546213435E+03  0.00000000000E+00 0.  1.
        -11    1    5    5    0    0  0.39943470317E+02 -0.91471668252E+02 -0.16511984819E+03  0.19294328488E+03  0.00000000000E+00 0. -1.
          3    1    6    6  503    0  0.69444051663E+02  0.10610141341E+03  0.13995892142E+03  0.18886102278E+03  0.00000000000E+00 0. -1.
         -3    1    6    6    0  503 -0.18894973612E+02  0.78329955370E+02  0.13002267278E+03  0.15296567384E+03  0.00000000000E+00 0.  1.
<mgrwt>
<rscale>  0 0.10351010E+04</rscale>
<asrwt>0</asrwt>
<pdfrwt beam="1">  1        4 0.11117220E+00 0.10351010E+04</pdfrwt>
<pdfrwt beam="2">  1       -4 0.57027272E-01 0.10351010E+04</pdfrwt>
<totfact> 0.37027816E+00</totfact>
</mgrwt>
</event>
<event>
12    2  0.3518828E-008  0.2706663E+04  0.7818608E-02  0.8332846E-01
          2   -1    0    0  501    0  0.00000000000E+00  0.00000000000E+00  0.13867817577E+04  0.13867817577E+04  0.00000000000E+00 0. -1.
         -2   -1    0    0    0  501 -0.00000000000E+00 -0.00000000000E+00 -0.13206877376E+04  0.13206877376E+04  0.00000000000E+00 0.  1.
         23    2    1    2    0    0  0.67356307361E+03 -0.60005424660E+03 -0.76308544662E+03  0.11850780044E+04  0.91422998007E+02 0.  0.
        254    2    1    2    0    0 -0.67356307361E+03  0.60005424660E+03  0.82917946673E+03  0.15223914909E+04  0.90354023190E+03 0.  0.
         23    2    4    4    0    0 -0.15521294097E+03  0.60425876617E+03  0.76619586695E+03  0.99234834728E+03  0.92083778608E+02 0.  0.
         23    2    4    4    0    0 -0.51835013264E+03 -0.42045195656E+01  0.62983599782E+02  0.53004314367E+03  0.90962972194E+02 0.  0.
          1    1    3    3  502    0  0.33268755767E+03 -0.23593160818E+03 -0.35057481854E+03  0.53781729069E+03  0.00000000000E+00 0. -1.
         -1    1    3    3    0  502  0.34087551594E+03 -0.36412263842E+03 -0.41251062808E+03  0.64726071367E+03  0.00000000000E+00 0.  1.
         11    1    5    5    0    0  0.43234919014E+01 -0.11520510647E+01  0.41916141934E+01  0.61310222168E+01  0.00000000000E+00 0. -1.
        -11    1    5    5    0    0 -0.15953643287E+03  0.60541081723E+03  0.76200425275E+03  0.98621732506E+03  0.00000000000E+00 0.  1.
          3    1    6    6  503    0 -0.27148732395E+03  0.38454954066E+02  0.53331665504E+02  0.27933567101E+03  0.00000000000E+00 0. -1.
         -3    1    6    6    0  503 -0.24686280870E+03 -0.42659473631E+02  0.96519342776E+01  0.25070747265E+03  0.00000000000E+00 0.  1.
<mgrwt>
<rscale>  0 0.27066626E+04</rscale>
<asrwt>0</asrwt>
<pdfrwt beam="1">  1        2 0.21335104E+00 0.27066626E+04</pdfrwt>
<pdfrwt beam="2">  1       -2 0.20318273E+00 0.27066626E+04</pdfrwt>
<totfact> 0.16369024E+00</totfact>
</mgrwt>
</event>
<event>
12    2  0.3518828E-008  0.1482125E+04  0.7818608E-02  0.8896427E-01
         -1   -1    0    0    0  501 -0.00000000000E+00  0.00000000000E+00  0.60201196571E+03  0.60201196571E+03  0.00000000000E+00 0.  1.
          1   -1    0    0  501    0  0.00000000000E+00 -0.00000000000E+00 -0.91223085781E+03  0.91223085781E+03  0.00000000000E+00 0. -1.
         23    2    1    2    0    0  0.33090564951E+03 -0.21853674612E+02  0.20011313950E+03  0.39766081096E+03  0.90070638907E+02 0.  0.
        254    2    1    2    0    0 -0.33090564951E+03  0.21853674612E+02 -0.51033203160E+03  0.11165820126E+04  0.93613058722E+03 0.  0.
         23    2    4    4    0    0 -0.12798878361E+03 -0.33390004494E+03  0.94164355917E+02  0.38073237750E+03  0.90663380780E+02 0.  0.
         23    2    4    4    0    0 -0.20291686590E+03  0.35575371955E+03 -0.60449638752E+03  0.73584963506E+03  0.91229597438E+02 0.  0.
          4    1    3    3  502    0 -0.12341261013E+01 -0.10584236547E+02  0.22614053279E+01  0.10893258675E+02  0.00000000000E+00 0. -1.
         -4    1    3    3    0  502  0.33213977562E+03 -0.11269438065E+02  0.19785173418E+03  0.38676755228E+03  0.00000000000E+00 0.  1.
         11    1    5    5    0    0 -0.62915186829E+01 -0.13359057294E+03  0.22322178732E+02  0.13558873127E+03  0.00000000000E+00 0.  1.
        -11    1    5    5    0    0 -0.12169726493E+03 -0.20030947200E+03  0.71842177185E+02  0.24514364623E+03  0.00000000000E+00 0. -1.
          3    1    6    6  503    0 -0.10870057993E+03  0.12050369245E+03 -0.28601497347E+03  0.32884878138E+03  0.00000000000E+00 0.  1.
         -3    1    6    6    0  503 -0.94216285974E+02  0.23525002710E+03 -0.31848141405E+03  0.40700085367E+03  0.00000000000E+00 0. -1.
<mgrwt>
<rscale>  0 0.14821254E+04</rscale>
<asrwt>0</asrwt>
<pdfrwt beam="1">  1        1 0.14034321E+00 0.14821254E+04</pdfrwt>
<pdfrwt beam="2">  1       -1 0.92617226E-01 0.14821254E+04</pdfrwt>
<totfact> 0.19531058E+01</totfact>
</mgrwt>
</event>
<event>
12    2  0.3518828E-008  0.2019396E+04  0.7818608E-02  0.8597606E-01
          2   -1    0    0  501    0  0.00000000000E+00  0.00000000000E+00  0.10110348062E+04  0.10110348062E+04  0.00000000000E+00 0.  1.
         -2   -1    0    0    0  501 -0.00000000000E+00 -0.00000000000E+00 -0.10083628539E+04  0.10083628539E+04  0.00000000000E+00 0. -1.
         23    2    1    2    0    0  0.24332999827E+03 -0.11719730587E+03 -0.74352501237E+03  0.79757269829E+03  0.10172545642E+03 0.  0.
        254    2    1    2    0    0 -0.24332999827E+03  0.11719730587E+03  0.74619696475E+03  0.12218249618E+04  0.92903263157E+03 0.  0.
         23    2    4    4    0    0 -0.29965229152E+03 -0.30557693454E+03  0.11108078380E+03  0.45147064996E+03  0.91203336046E+02 0.  0.
         23    2    4    4    0    0  0.56322293249E+02  0.42277424041E+03  0.63511618095E+03  0.77035431185E+03  0.90349008878E+02 0.  0.
          2    1    3    3  502    0  0.24286868805E+03 -0.10999645228E+03 -0.63359361754E+03  0.68740475074E+03  0.00000000000E+00 0. -1.
         -2    1    3    3    0  502  0.46131021941E+00 -0.72008535835E+01 -0.10993139483E+03  0.11016794755E+03  0.00000000000E+00 0.  1.
         11    1    5    5    0    0 -0.75698648640E+02 -0.12515209176E+03  0.98959144249E+01  0.14659897885E+03  0.00000000000E+00 0. -1.
        -11    1    5    5    0    0 -0.22395364288E+03 -0.18042484278E+03  0.10118486937E+03  0.30487167110E+03  0.00000000000E+00 0.  1.
          4    1    6    6  503    0 -0.11942553857E+02  0.18960615697E+03  0.23419791524E+03  0.30156555316E+03  0.00000000000E+00 0. -1.
         -4    1    6    6    0  503  0.68264847106E+02  0.23316808344E+03  0.40091826571E+03  0.46878875868E+03  0.00000000000E+00 0.  1.
<mgrwt>
<rscale>  0 0.20193959E+04</rscale>
<asrwt>0</asrwt>
<pdfrwt beam="1">  1        2 0.15554382E+00 0.20193959E+04</pdfrwt>
<pdfrwt beam="2">  1       -2 0.15513275E+00 0.20193959E+04</pdfrwt>
<totfact> 0.62952119E+00</totfact>
</mgrwt>
</event>
<event>
12    2  0.3518828E-008  0.1422104E+04  0.7818608E-02  0.8937972E-01
          1   -1    0    0  501    0  0.00000000000E+00  0.00000000000E+00  0.11540819032E+04  0.11540819032E+04  0.00000000000E+00 0.  1.
         -1   -1    0    0    0  501 -0.00000000000E+00 -0.00000000000E+00 -0.43809297480E+03  0.43809297480E+03  0.00000000000E+00 0. -1.
         23    2    1    2    0    0  0.38243169918E+03 -0.11316983886E+03  0.69547600235E+02  0.41461405354E+03  0.89479202748E+02 0.  0.
        254    2    1    2    0    0 -0.38243169918E+03  0.11316983886E+03  0.64644132814E+03  0.11775608244E+04  0.89983425561E+03 0.  0.
         23    2    4    4    0    0 -0.12067495762E+03  0.38390432330E+03  0.67287543738E+03  0.78954406549E+03  0.93131639478E+02 0.  0.
         23    2    4    4    0    0 -0.26175674156E+03 -0.27073448444E+03 -0.26434109243E+02  0.38801675895E+03  0.89691082504E+02 0.  0.
          1    1    3    3  502    0  0.37993981022E+03 -0.10602517057E+03  0.55074520809E+02  0.39828231071E+03  0.00000000000E+00 0. -1.
         -1    1    3    3    0  502  0.24918889629E+01 -0.71446682945E+01  0.14473079426E+02  0.16331742825E+02  0.00000000000E+00 0.  1.
         11    1    5    5    0    0 -0.55156523601E+02  0.29916783099E+03  0.52809300904E+03  0.60944717522E+03  0.00000000000E+00 0. -1.
        -11    1    5    5    0    0 -0.65518434023E+02  0.84736492315E+02  0.14478242835E+03  0.18009689027E+03  0.00000000000E+00 0.  1.
          4    1    6    6  503    0 -0.26693076503E+03 -0.25017115431E+03 -0.23268578846E+02  0.36657750413E+03  0.00000000000E+00 0. -1.
         -4    1    6    6    0  503  0.51740234736E+01 -0.20563330124E+02 -0.31655303968E+01  0.21439254824E+02  0.00000000000E+00 0.  1.
<mgrwt>
<rscale>  0 0.14221043E+04</rscale>
<asrwt>0</asrwt>
<pdfrwt beam="1">  1        1 0.17755106E+00 0.14221043E+04</pdfrwt>
<pdfrwt beam="2">  1       -1 0.67398920E-01 0.14221043E+04</pdfrwt>
<totfact> 0.25070466E+01</totfact>
</mgrwt>
</event>
<event>
12    2  0.3518828E-008  0.1772471E+04  0.7818608E-02  0.8721078E-01
          1   -1    0    0  501    0  0.00000000000E+00  0.00000000000E+00  0.11086640079E+04  0.11086640079E+04  0.00000000000E+00 0. -1.
         -1   -1    0    0    0  501 -0.00000000000E+00 -0.00000000000E+00 -0.70843218350E+03  0.70843218350E+03  0.00000000000E+00 0.  1.
         23    2    1    2    0    0  0.60567892234E+03  0.68334478999E+02 -0.82362213496E+02  0.62485801275E+03  0.11021544309E+03 0.  0.
        254    2    1    2    0    0 -0.60567892234E+03 -0.68334478999E+02  0.48259403791E+03  0.11922381787E+04  0.90389065228E+03 0.  0.
         23    2    4    4    0    0 -0.73474038921E+03 -0.20535204640E+03  0.57821879047E+03  0.96154389487E+03  0.90646509097E+02 0.  0.
         23    2    4    4    0    0  0.12906146687E+03  0.13701756740E+03 -0.95624752567E+02  0.23069428380E+03  0.92978939923E+02 0.  0.
          2    1    3    3  502    0  0.47293152524E+03  0.18294679318E+02 -0.32178369191E+02  0.47437787712E+03  0.00000000000E+00 0. -1.
         -2    1    3    3    0  502  0.13274739710E+03  0.50039799681E+02 -0.50183844304E+02  0.15048013562E+03  0.00000000000E+00 0.  1.
         11    1    5    5    0    0 -0.14492854870E+03 -0.63952245641E+01  0.93210194038E+02  0.17243353328E+03  0.00000000000E+00 0. -1.
        -11    1    5    5    0    0 -0.58981184050E+03 -0.19895682183E+03  0.48500859643E+03  0.78911036159E+03  0.00000000000E+00 0.  1.
          1    1    6    6  503    0 -0.11549377229E+02 -0.21047095286E+01 -0.22273540354E+01  0.11949017641E+02  0.00000000000E+00 0. -1.
         -1    1    6    6    0  503  0.14061084410E+03  0.13912227692E+03 -0.93397398531E+02  0.21874526616E+03  0.00000000000E+00 0.  1.
<mgrwt>
<rscale>  0 0.17724709E+04</rscale>
<asrwt>0</asrwt>
<pdfrwt beam="1">  1        1 0.17056369E+00 0.17724709E+04</pdfrwt>
<pdfrwt beam="2">  1       -1 0.10898957E+00 0.17724709E+04</pdfrwt>
<totfact> 0.92157139E+00</totfact>
</mgrwt>
</event>
<event>
12    2  0.3518828E-008  0.2631824E+04  0.7818608E-02  0.8357471E-01
          2   -1    0    0  501    0  0.00000000000E+00  0.00000000000E+00  0.13345471703E+04  0.13345471703E+04  0.00000000000E+00 0. -1.
         -2   -1    0    0    0  501 -0.00000000000E+00 -0.00000000000E+00 -0.12975372084E+04  0.12975372084E+04  0.00000000000E+00 0.  1.
         23    2    1    2    0    0 -0.11273847119E+04  0.16472139760E+02  0.28673930160E+03  0.11669751115E+04  0.91344751835E+02 0.  0.
        254    2    1    2    0    0  0.11273847119E+04 -0.16472139760E+02 -0.24972933972E+03  0.14651092673E+04  0.90161677114E+03 0.  0.
         23    2    4    4    0    0  0.11401719383E+04 -0.47995437227E+01  0.57578656325E+02  0.11451936229E+04  0.90211128988E+02 0.  0.
         23    2    4    4    0    0 -0.12787226392E+02 -0.11672596038E+02 -0.30730799604E+03  0.31991564440E+03  0.87224150564E+02 0.  0.
          3    1    3    3  502    0 -0.21522043536E+03  0.19462588576E+02  0.22287359863E+02  0.21724491838E+03  0.00000000000E+00 0. -1.
         -3    1    3    3    0  502 -0.91216427652E+03 -0.29904488151E+01  0.26445194174E+03  0.94973019307E+03  0.00000000000E+00 0.  1.
         11    1    5    5    0    0  0.52433312008E+02 -0.55100453808E+01  0.21264233559E+02  0.56848750532E+02  0.00000000000E+00 0. -1.
        -11    1    5    5    0    0  0.10877386263E+04  0.71050165804E+00  0.36314422766E+02  0.10883448724E+04  0.00000000000E+00 0.  1.
          2    1    6    6  503    0  0.10212920569E+02 -0.17510363720E+02 -0.11797935288E+02  0.23454378296E+02  0.00000000000E+00 0. -1.
         -2    1    6    6    0  503 -0.23000146961E+02  0.58377676824E+01 -0.29551006076E+03  0.29646126610E+03  0.00000000000E+00 0.  1.
<mgrwt>
<rscale>  0 0.26318242E+04</rscale>
<asrwt>0</asrwt>
<pdfrwt beam="1">  1        2 0.20531495E+00 0.26318242E+04</pdfrwt>
<pdfrwt beam="2">  1       -2 0.19962111E+00 0.26318242E+04</pdfrwt>
<totfact> 0.18627892E+00</totfact>
</mgrwt>
</event>
<event>
12    2  0.3518828E-008  0.2096570E+04  0.7818608E-02  0.8562756E-01
          1   -1    0    0  501    0  0.00000000000E+00  0.00000000000E+00  0.19858246241E+04  0.19858246241E+04  0.00000000000E+00 0. -1.
         -1   -1    0    0    0  501 -0.00000000000E+00 -0.00000000000E+00 -0.55337310669E+03  0.55337310669E+03  0.00000000000E+00 0.  1.
         23    2    1    2    0    0 -0.39662978983E+03 -0.74522562837E+03  0.71803905758E+03  0.11120799344E+04  0.92006874795E+02 0.  0.
        254    2    1    2    0    0  0.39662978983E+03  0.74522562837E+03  0.71441245988E+03  0.14271177964E+04  0.90199978637E+03 0.  0.
         23    2    4    4    0    0  0.37838014496E+03  0.65374205535E+03  0.91319262250E+03  0.11880394637E+04  0.83467314042E+02 0.  0.
         23    2    4    4    0    0  0.18249644877E+02  0.91483573023E+02 -0.19878016262E+03  0.23907833269E+03  0.94565334252E+02 0.  0.
          3    1    3    3  502    0 -0.22357344420E+03 -0.49198129424E+03  0.42021717413E+03  0.68455325014E+03  0.00000000000E+00 0. -1.
         -3    1    3    3    0  502 -0.17305634563E+03 -0.25324433413E+03  0.29782188344E+03  0.42752668430E+03  0.00000000000E+00 0.  1.
         11    1    5    5    0    0  0.17335284709E+03  0.32259748666E+03  0.50535879064E+03  0.62410564432E+03  0.00000000000E+00 0. -1.
        -11    1    5    5    0    0  0.20502729787E+03  0.33114456869E+03  0.40783383185E+03  0.56393381938E+03  0.00000000000E+00 0.  1.
          1    1    6    6  503    0  0.56946311286E+02  0.52889311400E+02 -0.10677162422E+03  0.13206188462E+03  0.00000000000E+00 0. -1.
         -1    1    6    6    0  503 -0.38696666409E+02  0.38594261623E+02 -0.92008538396E+02  0.10701644808E+03  0.00000000000E+00 0.  1.
<mgrwt>
<rscale>  0 0.20965705E+04</rscale>
<asrwt>0</asrwt>
<pdfrwt beam="1">  1        1 0.30551148E+00 0.20965705E+04</pdfrwt>
<pdfrwt beam="2">  1       -1 0.85134325E-01 0.20965705E+04</pdfrwt>
<totfact> 0.38237553E+00</totfact>
</mgrwt>
</event>
<event>
12    2  0.3518828E-008  0.1204537E+04  0.7818608E-02  0.9108895E-01
          2   -1    0    0  501    0  0.00000000000E+00  0.00000000000E+00  0.24811424145E+03  0.24811424145E+03  0.00000000000E+00 0. -1.
         -2   -1    0    0    0  501 -0.00000000000E+00 -0.00000000000E+00 -0.14619363948E+04  0.14619363948E+04  0.00000000000E+00 0.  1.
         23    2    1    2    0    0 -0.24021932561E+03 -0.13875937078E+02 -0.17681973708E+03  0.31222003446E+03  0.91204520016E+02 0.  0.
        254    2    1    2    0    0  0.24021932561E+03  0.13875937078E+02 -0.10370024163E+04  0.13978306018E+04  0.90590204433E+03 0.  0.
         23    2    4    4    0    0  0.39356901208E+02  0.29117318451E+03 -0.66325138822E+01  0.30792701467E+03  0.91892693253E+02 0.  0.
         23    2    4    4    0    0  0.20086242440E+03 -0.27729724743E+03 -0.10303699024E+04  0.10899035871E+04  0.94806204997E+02 0.  0.
          1    1    3    3  502    0 -0.19109680447E+03  0.11304952672E+02 -0.95487531185E+02  0.21392442414E+03  0.00000000000E+00 0. -1.
         -1    1    3    3    0  502 -0.49122521137E+02 -0.25180889749E+02 -0.81332205894E+02  0.98295610314E+02  0.00000000000E+00 0.  1.
         11    1    5    5    0    0  0.58704021361E+02  0.27626051069E+03  0.67627045268E+00  0.28242961819E+03  0.00000000000E+00 0. -1.
        -11    1    5    5    0    0 -0.19347120154E+02  0.14912673820E+02 -0.73087843349E+01  0.25497396478E+02  0.00000000000E+00 0.  1.
          4    1    6    6  503    0  0.60107461269E+02 -0.12663742880E+03 -0.30260493334E+03  0.33349616333E+03  0.00000000000E+00 0. -1.
         -4    1    6    6    0  503  0.14075496313E+03 -0.15065981863E+03 -0.72776496904E+03  0.75640742378E+03  0.00000000000E+00 0.  1.
<mgrwt>
<rscale>  0 0.12045368E+04</rscale>
<asrwt>0</asrwt>
<pdfrwt beam="1">  1        2 0.38171423E-01 0.12045368E+04</pdfrwt>
<pdfrwt beam="2">  1       -2 0.22491329E+00 0.12045368E+04</pdfrwt>
<totfact> 0.12330674E+01</totfact>
</mgrwt>
</event>
<event>
12    2  0.3518828E-008  0.3008431E+04  0.7818608E-02  0.8241327E-01
         -2   -1    0    0    0  501 -0.00000000000E+00  0.00000000000E+00  0.99034241000E+03  0.99034241000E+03  0.00000000000E+00 0.  1.
          2   -1    0    0  501    0  0.00000000000E+00 -0.00000000000E+00 -0.22847300043E+04  0.22847300043E+04  0.00000000000E+00 0. -1.
         23    2    1    2    0    0  0.69325113720E+03 -0.85281698945E+02 -0.18712487861E+04  0.19994886453E+04  0.92264379497E+02 0.  0.
        254    2    1    2    0    0 -0.69325113720E+03  0.85281698945E+02  0.57686119190E+03  0.12755837689E+04  0.89803953668E+03 0.  0.
         23    2    4    4    0    0 -0.84275924214E+03 -0.37674675570E+02  0.62961061651E+03  0.10566487231E+04  0.91839393383E+02 0.  0.
         23    2    4    4    0    0  0.14950810493E+03  0.12295637452E+03 -0.52749424615E+02  0.21893504585E+03  0.87630525669E+02 0.  0.
          3    1    3    3  502    0  0.69102982186E+03 -0.92296173742E+02 -0.18501071385E+04  0.19771032402E+04  0.00000000000E+00 0. -1.
         -3    1    3    3    0  502  0.22213153454E+01  0.70144747970E+01 -0.21141647628E+02  0.22385405133E+02  0.00000000000E+00 0.  1.
         11    1    5    5    0    0 -0.58859334370E+02  0.20549218015E+02  0.52106279554E+02  0.81251190591E+02  0.00000000000E+00 0.  1.
        -11    1    5    5    0    0 -0.78389990777E+03 -0.58223893586E+02  0.57750433696E+03  0.97539753249E+03  0.00000000000E+00 0. -1.
          1    1    6    6  503    0  0.14870987274E+03  0.10058591521E+03 -0.67857310391E+02  0.19192906805E+03  0.00000000000E+00 0. -1.
         -1    1    6    6    0  503  0.79823219205E+00  0.22370459307E+02  0.15107885776E+02  0.27005977799E+02  0.00000000000E+00 0.  1.
<mgrwt>
<rscale>  0 0.30084315E+04</rscale>
<asrwt>0</asrwt>
<pdfrwt beam="1">  1        2 0.35149692E+00 0.30084315E+04</pdfrwt>
<pdfrwt beam="2">  1       -2 0.15236037E+00 0.30084315E+04</pdfrwt>
<totfact> 0.11370756E+00</totfact>
</mgrwt>
</event>
<event>
12    2  0.3518828E-008  0.1742799E+04  0.7818608E-02  0.8737324E-01
         -2   -1    0    0    0  501 -0.00000000000E+00  0.00000000000E+00  0.58117810442E+03  0.58117810442E+03  0.00000000000E+00 0.  1.
          2   -1    0    0  501    0  0.00000000000E+00 -0.00000000000E+00 -0.13065474440E+04  0.13065474440E+04  0.00000000000E+00 0. -1.
         23    2    1    2    0    0  0.20078265552E+03 -0.23241658468E+02 -0.91591924959E+03  0.94237231151E+03  0.91124378116E+02 0.  0.
        254    2    1    2    0    0 -0.20078265552E+03  0.23241658468E+02  0.19054991001E+03  0.94535323691E+03  0.90362028800E+03 0.  0.
         23    2    4    4    0    0 -0.15032669271E+03  0.28980130358E+03  0.44770602090E+03  0.56026871079E+03  0.82930314374E+02 0.  0.
         23    2    4    4    0    0 -0.50455962816E+02 -0.26655964512E+03 -0.25715611089E+03  0.38508452612E+03  0.92525554836E+02 0.  0.
          1    1    3    3  502    0  0.20091907209E+03 -0.34056690807E+02 -0.90205980347E+03  0.92479198783E+03  0.00000000000E+00 0. -1.
         -1    1    3    3    0  502 -0.13641656895E+00  0.10815032338E+02 -0.13859446116E+02  0.17580323677E+02  0.00000000000E+00 0.  1.
         11    1    5    5    0    0 -0.10562318836E+03  0.25439089041E+03  0.33291423550E+03  0.43209127652E+03  0.00000000000E+00 0. -1.
        -11    1    5    5    0    0 -0.44703504347E+02  0.35410413173E+02  0.11479178540E+03  0.12817743427E+03  0.00000000000E+00 0.  1.
          3    1    6    6  503    0 -0.72118089744E+02 -0.24722184812E+03 -0.22841884621E+03  0.34423078067E+03  0.00000000000E+00 0. -1.
         -3    1    6    6    0  503  0.21662126928E+02 -0.19337796996E+02 -0.28737264680E+02  0.40853745447E+02  0.00000000000E+00 0.  1.
<mgrwt>
<rscale>  0 0.17427986E+04</rscale>
<asrwt>0</asrwt>
<pdfrwt beam="1">  1        2 0.20100730E+00 0.17427986E+04</pdfrwt>
<pdfrwt beam="2">  1       -2 0.89412017E-01 0.17427986E+04</pdfrwt>
<totfact> 0.16675537E+01</totfact>
</mgrwt>
</event>
<event>
12    2  0.3518828E-008  0.2149526E+04  0.7818608E-02  0.8539735E-01
         -1   -1    0    0    0  501 -0.00000000000E+00  0.00000000000E+00  0.93713237136E+03  0.93713237136E+03  0.00000000000E+00 0.  1.
          1   -1    0    0  501    0  0.00000000000E+00 -0.00000000000E+00 -0.12326069420E+04  0.12326069420E+04  0.00000000000E+00 0. -1.
         23    2    1    2    0    0  0.68169845036E+03 -0.58232498003E+03 -0.20093426165E+03  0.92339933882E+03  0.92068462801E+02 0.  0.
        254    2    1    2    0    0 -0.68169845036E+03  0.58232498003E+03 -0.94540308963E+02  0.12463399745E+04  0.86058718470E+03 0.  0.
         23    2    4    4    0    0 -0.74459080423E+03  0.70800670250E+03 -0.19220880328E+03  0.10493872961E+04  0.92631077830E+02 0.  0.
         23    2    4    4    0    0  0.62892353880E+02 -0.12568172247E+03  0.97668494317E+02  0.19695267843E+03  0.97467323849E+02 0.  0.
          1    1    3    3  502    0  0.67297805943E+03 -0.57454586106E+03 -0.18561603906E+03  0.90413258369E+03  0.00000000000E+00 0.  1.
         -1    1    3    3    0  502  0.87203909265E+01 -0.77791189697E+01 -0.15318222591E+02  0.19266755129E+02  0.00000000000E+00 0. -1.
         11    1    5    5    0    0 -0.28589089398E+02  0.10578741824E+02  0.41063806942E+01  0.30758871461E+02  0.00000000000E+00 0.  1.
        -11    1    5    5    0    0 -0.71600171484E+03  0.69742796068E+03 -0.19631518397E+03  0.10186284246E+04  0.00000000000E+00 0. -1.
          3    1    6    6  503    0  0.30877695867E+02 -0.48248475061E+02  0.97592652309E+02  0.11316215459E+03  0.00000000000E+00 0. -1.
         -3    1    6    6    0  503  0.32014658012E+02 -0.77433247414E+02  0.75842007577E-01  0.83790523836E+02  0.00000000000E+00 0.  1.
<mgrwt>
<rscale>  0 0.21495263E+04</rscale>
<asrwt>0</asrwt>
<pdfrwt beam="1">  1        1 0.18963184E+00 0.21495263E+04</pdfrwt>
<pdfrwt beam="2">  1       -1 0.14417421E+00 0.21495263E+04</pdfrwt>
<totfact> 0.35939422E+00</totfact>
</mgrwt>
</event>
<event>
12    2  0.3518828E-008  0.1513501E+04  0.7818608E-02  0.8875524E-01
         -2   -1    0    0    0  501 -0.00000000000E+00  0.00000000000E+00  0.19148717265E+03  0.19148717265E+03  0.00000000000E+00 0.  1.
          2   -1    0    0  501    0  0.00000000000E+00 -0.00000000000E+00 -0.29906521384E+04  0.29906521384E+04  0.00000000000E+00 0. -1.
         23    2    1    2    0    0  0.95057463081E+01 -0.46750472899E+03 -0.11820609476E+04  0.12736578404E+04  0.79279125591E+02 0.  0.
        254    2    1    2    0    0 -0.95057463081E+01  0.46750472899E+03 -0.16171040182E+04  0.19084814707E+04  0.89923583527E+03 0.  0.
         23    2    4    4    0    0 -0.18945549975E+03  0.42707036356E+02 -0.13516680104E+04  0.13685061703E+04  0.89919133879E+02 0.  0.
         23    2    4    4    0    0  0.17994975344E+03  0.42479769263E+03 -0.26543600781E+03  0.53997530034E+03  0.91005809168E+02 0.  0.
          4    1    3    3  502    0  0.98116701615E+01 -0.31051194318E+03 -0.88013283178E+03  0.93335295431E+03  0.00000000000E+00 0. -1.
         -4    1    3    3    0  502 -0.30592385345E+00 -0.15699278581E+03 -0.30192811584E+03  0.34030488612E+03  0.00000000000E+00 0.  1.
         11    1    5    5    0    0 -0.17790951282E+03  0.22855752348E+02 -0.99061283185E+03  0.10067213928E+04  0.00000000000E+00 0. -1.
        -11    1    5    5    0    0 -0.11545986924E+02  0.19851284007E+02 -0.36105517852E+03  0.36178477749E+03  0.00000000000E+00 0.  1.
          3    1    6    6  503    0  0.85407317336E+02  0.12690148490E+03 -0.12405194619E+03  0.19694487066E+03  0.00000000000E+00 0.  1.
         -3    1    6    6    0  503  0.94542436103E+02  0.29789620773E+03 -0.14138406162E+03  0.34303042968E+03  0.00000000000E+00 0. -1.
<mgrwt>
<rscale>  0 0.15135013E+04</rscale>
<asrwt>0</asrwt>
<pdfrwt beam="1">  1        2 0.46010033E+00 0.15135013E+04</pdfrwt>
<pdfrwt beam="2">  1       -2 0.29459565E-01 0.15135013E+04</pdfrwt>
<totfact> 0.18197506E+01</totfact>
</mgrwt>
</event>
<event>
12    2  0.3518828E-008  0.1187616E+04  0.7818608E-02  0.9123765E-01
          2   -1    0    0  501    0  0.00000000000E+00  0.00000000000E+00  0.14816787734E+04  0.14816787734E+04  0.00000000000E+00 0. -1.
         -2   -1    0    0    0  501 -0.00000000000E+00 -0.00000000000E+00 -0.23797882418E+03  0.23797882418E+03  0.00000000000E+00 0.  1.
         23    2    1    2    0    0  0.22963626451E+03  0.50403025129E+02  0.17066448927E+03  0.30464734094E+03  0.91707990503E+02 0.  0.
        254    2    1    2    0    0 -0.22963626451E+03 -0.50403025129E+02  0.10730354599E+04  0.14150102566E+04  0.89195047460E+03 0.  0.
         23    2    4    4    0    0  0.30276046039E+03  0.49940177697E+02  0.64119004537E+03  0.71665511515E+03  0.91169962508E+02 0.  0.
         23    2    4    4    0    0 -0.53239672490E+03 -0.10034320283E+03  0.43184541455E+03  0.69835514146E+03  0.87717788962E+02 0.  0.
          2    1    3    3  502    0  0.26025464244E+02  0.15990541813E+02  0.66901801623E+02  0.73545042505E+02  0.00000000000E+00 0. -1.
         -2    1    3    3    0  502  0.20361080027E+03  0.34412483316E+02  0.10376268764E+03  0.23110229843E+03  0.00000000000E+00 0.  1.
         11    1    5    5    0    0  0.68406723162E+02  0.58443494245E+01  0.71783475003E+02  0.99330274728E+02  0.00000000000E+00 0. -1.
        -11    1    5    5    0    0  0.23435373722E+03  0.44095828273E+02  0.56940657037E+03  0.61732484042E+03  0.00000000000E+00 0.  1.
          1    1    6    6  503    0 -0.36031653504E+03 -0.84621093134E+02  0.34040173805E+03  0.50285393316E+03  0.00000000000E+00 0. -1.
         -1    1    6    6    0  503 -0.17208018986E+03 -0.15722109693E+02  0.91443676494E+02  0.19550120830E+03  0.00000000000E+00 0.  1.
<mgrwt>
<rscale>  0 0.11876164E+04</rscale>
<asrwt>0</asrwt>
<pdfrwt beam="1">  1        2 0.22795057E+00 0.11876164E+04</pdfrwt>
<pdfrwt beam="2">  1       -2 0.36612128E-01 0.11876164E+04</pdfrwt>
<totfact> 0.90138620E+01</totfact>
</mgrwt>
</event>
<event>
12    2  0.3518828E-008  0.1658325E+04  0.7818608E-02  0.8785497E-01
         -2   -1    0    0    0  501 -0.00000000000E+00  0.00000000000E+00  0.88774022630E+03  0.88774022630E+03  0.00000000000E+00 0.  1.
          2   -1    0    0  501    0  0.00000000000E+00 -0.00000000000E+00 -0.77445016677E+03  0.77445016677E+03  0.00000000000E+00 0. -1.
         23    2    1    2    0    0 -0.11852907467E+03 -0.49397157437E+03  0.32189786911E+03  0.60728824361E+03  0.84402102259E+02 0.  0.
        254    2    1    2    0    0  0.11852907467E+03  0.49397157437E+03 -0.20860780958E+03  0.10549021495E+04  0.90069099524E+03 0.  0.
         23    2    4    4    0    0  0.16633222949E+03  0.53138096948E+03  0.22541846350E+03  0.60738232829E+03  0.89820174446E+02 0.  0.
         23    2    4    4    0    0 -0.47803154823E+02 -0.37409395114E+02 -0.43402627308E+03  0.44751982117E+03  0.90612251727E+02 0.  0.
          1    1    3    3  502    0 -0.14100963282E+02 -0.11475729103E+03  0.11410452797E+03  0.16244357886E+03  0.00000000000E+00 0. -1.
         -1    1    3    3    0  502 -0.10442811139E+03 -0.37921428334E+03  0.20779334114E+03  0.44484466475E+03  0.00000000000E+00 0.  1.
         11    1    5    5    0    0  0.13336215510E+03  0.42366107314E+03  0.21723138536E+03  0.49443264869E+03  0.00000000000E+00 0. -1.
        -11    1    5    5    0    0  0.32970074389E+02  0.10771989634E+03  0.81870781459E+01  0.11294967960E+03  0.00000000000E+00 0.  1.
          3    1    6    6  503    0 -0.22927157511E+02 -0.40967391167E+02 -0.41024288678E+03  0.41292034080E+03  0.00000000000E+00 0. -1.
         -3    1    6    6    0  503 -0.24875997312E+02  0.35579960533E+01 -0.23783386298E+02  0.34599480371E+02  0.00000000000E+00 0.  1.
<mgrwt>
<rscale>  0 0.16583251E+04</rscale>
<asrwt>0</asrwt>
<pdfrwt beam="1">  1        2 0.11914618E+00 0.16583251E+04</pdfrwt>
<pdfrwt beam="2">  1       -2 0.13657542E+00 0.16583251E+04</pdfrwt>
<totfact> 0.13142449E+01</totfact>
</mgrwt>
</event>
<event>
12    2  0.3518828E-008  0.1819631E+04  0.7818608E-02  0.8695929E-01
         -2   -1    0    0    0  501 -0.00000000000E+00  0.00000000000E+00  0.66525992462E+03  0.66525992462E+03  0.00000000000E+00 0.  1.
          2   -1    0    0  501    0  0.00000000000E+00 -0.00000000000E+00 -0.12442724032E+04  0.12442724032E+04  0.00000000000E+00 0. -1.
         23    2    1    2    0    0  0.53981069998E+03  0.21988243282E+03  0.15955416324E+03  0.61085943140E+03  0.89150646954E+02 0.  0.
        254    2    1    2    0    0 -0.53981069998E+03 -0.21988243282E+03 -0.73856664186E+03  0.12986728965E+04  0.89516854918E+03 0.  0.
         23    2    4    4    0    0  0.12206237853E+03  0.21965371237E+03 -0.20960361543E+03  0.33988007212E+03  0.91857553935E+02 0.  0.
         23    2    4    4    0    0 -0.66187307851E+03 -0.43953614519E+03 -0.52896302643E+03  0.95879282433E+03  0.90630026314E+02 0.  0.
          4    1    3    3  502    0  0.42948850774E+03  0.20988155007E+03  0.11655591035E+03  0.49203244159E+03  0.00000000000E+00 0. -1.
         -4    1    3    3    0  502  0.11032219224E+03  0.10000882750E+02  0.42998252893E+02  0.11882698981E+03  0.00000000000E+00 0.  1.
         11    1    5    5    0    0  0.10183113977E+03  0.20640731492E+03 -0.21516070090E+03  0.31506775127E+03  0.00000000000E+00 0.  1.
        -11    1    5    5    0    0  0.20231238761E+02  0.13246397457E+02  0.55570854701E+01  0.24812320857E+02  0.00000000000E+00 0. -1.
          2    1    6    6  503    0 -0.20462112550E+03 -0.14773164569E+03 -0.21836211139E+03  0.33373111307E+03  0.00000000000E+00 0. -1.
         -2    1    6    6    0  503 -0.45725195301E+03 -0.29180449950E+03 -0.31060091504E+03  0.62506171126E+03  0.00000000000E+00 0.  1.
<mgrwt>
<rscale>  0 0.18196314E+04</rscale>
<asrwt>0</asrwt>
<pdfrwt beam="1">  1        2 0.19142652E+00 0.18196314E+04</pdfrwt>
<pdfrwt beam="2">  1       -2 0.10234768E+00 0.18196314E+04</pdfrwt>
<totfact> 0.13134676E+01</totfact>
</mgrwt>
</event>
<event>
12    2  0.3518828E-008  0.1635598E+04  0.7818608E-02  0.8798973E-01
         -2   -1    0    0    0  501 -0.00000000000E+00  0.00000000000E+00  0.92836731963E+03  0.92836731963E+03  0.00000000000E+00 0. -1.
          2   -1    0    0  501    0  0.00000000000E+00 -0.00000000000E+00 -0.72039908585E+03  0.72039908585E+03  0.00000000000E+00 0.  1.
         23    2    1    2    0    0 -0.40355413112E+03  0.38770300314E+03  0.10068253055E+03  0.57569907631E+03  0.90127127544E+02 0.  0.
        254    2    1    2    0    0  0.40355413112E+03 -0.38770300314E+03  0.10728570323E+03  0.10730673292E+04  0.90928197794E+03 0.  0.
         23    2    4    4    0    0 -0.20045772412E+03 -0.32422729427E+03 -0.13331518475E+03  0.41401734523E+03  0.91273140383E+02 0.  0.
         23    2    4    4    0    0  0.60401185525E+03 -0.63475708868E+02  0.24060088798E+03  0.65904998393E+03  0.87169989855E+02 0.  0.
          1    1    3    3  502    0 -0.24797196414E+03  0.28774356319E+03  0.90557022146E+02  0.39049587375E+03  0.00000000000E+00 0. -1.
         -1    1    3    3    0  502 -0.15558216699E+03  0.99959439950E+02  0.10125508399E+02  0.18520320256E+03  0.00000000000E+00 0.  1.
         11    1    5    5    0    0 -0.90557988135E+02 -0.13184064771E+03 -0.10336319604E+03  0.19043806316E+03  0.00000000000E+00 0. -1.
        -11    1    5    5    0    0 -0.10989973599E+03 -0.19238664656E+03 -0.29951988716E+02  0.22357928207E+03  0.00000000000E+00 0.  1.
          1    1    6    6  503    0  0.14724835726E+03 -0.18561372280E+02  0.10026485043E+03  0.17910791018E+03  0.00000000000E+00 0. -1.
         -1    1    6    6    0  503  0.45676349799E+03 -0.44914336588E+02  0.14033603755E+03  0.47994207375E+03  0.00000000000E+00 0.  1.
<mgrwt>
<rscale>  0 0.16355977E+04</rscale>
<asrwt>0</asrwt>
<pdfrwt beam="1">  1        2 0.11083063E+00 0.16355977E+04</pdfrwt>
<pdfrwt beam="2">  1       -2 0.14282574E+00 0.16355977E+04</pdfrwt>
<totfact> 0.12872188E+01</totfact>
</mgrwt>
</event>
<event>
12    2  0.3518828E-008  0.2111071E+04  0.7818608E-02  0.8556382E-01
         -2   -1    0    0    0  501 -0.00000000000E+00  0.00000000000E+00  0.65085787004E+03  0.65085787004E+03  0.00000000000E+00 0.  1.
          2   -1    0    0  501    0  0.00000000000E+00 -0.00000000000E+00 -0.17118256315E+04  0.17118256315E+04  0.00000000000E+00 0. -1.
         23    2    1    2    0    0 -0.33589662781E+03  0.73248009690E+03 -0.79366081102E+03  0.11346957307E+04  0.91012534488E+02 0.  0.
        254    2    1    2    0    0  0.33589662781E+03 -0.73248009690E+03 -0.26730695042E+03  0.12279877708E+04  0.88721323399E+03 0.  0.
         23    2    4    4    0    0 -0.45930119018E+01 -0.15351474064E+03 -0.48406671132E+03  0.51614050396E+03  0.92155127232E+02 0.  0.
         23    2    4    4    0    0  0.34048963971E+03 -0.57896535627E+03  0.21675976090E+03  0.71184726684E+03  0.92777469555E+02 0.  0.
          4    1    3    3  502    0 -0.20480254922E+03  0.51752191706E+03 -0.50346208264E+03  0.75049789304E+03  0.00000000000E+00 0. -1.
         -4    1    3    3    0  502 -0.13109407860E+03  0.21495817984E+03 -0.29019872838E+03  0.38419783768E+03  0.00000000000E+00 0.  1.
         11    1    5    5    0    0 -0.46893516555E+02 -0.97679935128E+02 -0.31598503986E+03  0.33404627978E+03  0.00000000000E+00 0. -1.
        -11    1    5    5    0    0  0.42300504653E+02 -0.55834805507E+02 -0.16808167146E+03  0.18209422418E+03  0.00000000000E+00 0.  1.
          3    1    6    6  503    0  0.33840010911E+03 -0.53877646566E+03  0.21494786493E+03  0.67156332422E+03  0.00000000000E+00 0. -1.
         -3    1    6    6    0  503  0.20895305995E+01 -0.40188890606E+02  0.18118959679E+01  0.40283942623E+02  0.00000000000E+00 0.  1.
<mgrwt>
<rscale>  0 0.21110710E+04</rscale>
<asrwt>0</asrwt>
<pdfrwt beam="1">  1        2 0.26335779E+00 0.21110710E+04</pdfrwt>
<pdfrwt beam="2">  1       -2 0.10013198E+00 0.21110710E+04</pdfrwt>
<totfact> 0.73235482E+00</totfact>
</mgrwt>
</event>
<event>
12    2  0.3518828E-008  0.2870428E+04  0.7818608E-02  0.8281731E-01
         -1   -1    0    0    0  501 -0.00000000000E+00  0.00000000000E+00  0.22698767395E+04  0.22698767395E+04  0.00000000000E+00 0.  1.
          1   -1    0    0  501    0  0.00000000000E+00 -0.00000000000E+00 -0.90746742067E+03  0.90746742067E+03  0.00000000000E+00 0. -1.
         23    2    1    2    0    0 -0.92907821616E+03 -0.75960265930E+03  0.84994438675E+02  0.12065600621E+04  0.91545600912E+02 0.  0.
        254    2    1    2    0    0  0.92907821616E+03  0.75960265930E+03  0.12774148801E+04  0.19707840981E+04  0.90112077628E+03 0.  0.
         23    2    4    4    0    0  0.84232824537E+02  0.61561906582E+03  0.42236809608E+03  0.75673260839E+03  0.90373829642E+02 0.  0.
         23    2    4    4    0    0  0.84484539163E+03  0.14398359348E+03  0.85504678406E+03  0.12140514897E+04  0.91219546796E+02 0.  0.
          3    1    3    3  502    0 -0.91990730172E+03 -0.76126263356E+03  0.86235781078E+02  0.11971578221E+04  0.00000000000E+00 0. -1.
         -3    1    3    3    0  502 -0.91709144412E+01  0.16599742602E+01 -0.12413424038E+01  0.94022400095E+01  0.00000000000E+00 0.  1.
         11    1    5    5    0    0  0.63129818636E+02  0.54799009818E+03  0.33953846943E+03  0.64773829123E+03  0.00000000000E+00 0.  1.
        -11    1    5    5    0    0  0.21103005900E+02  0.67628967645E+02  0.82829626651E+02  0.10899431716E+03  0.00000000000E+00 0. -1.
          4    1    6    6  503    0  0.31009515557E+02  0.15113892662E+02  0.15857153175E+02  0.37966684254E+02  0.00000000000E+00 0. -1.
         -4    1    6    6    0  503  0.81383587607E+03  0.12886970082E+03  0.83918963088E+03  0.11760848054E+04  0.00000000000E+00 0.  1.
<mgrwt>
<rscale>  0 0.28704280E+04</rscale>
<asrwt>0</asrwt>
<pdfrwt beam="1">  1        1 0.13961037E+00 0.28704280E+04</pdfrwt>
<pdfrwt beam="2">  1       -1 0.34921180E+00 0.28704280E+04</pdfrwt>
<totfact> 0.24275523E-01</totfact>
</mgrwt>
</event>
<event>
12    2  0.3518828E-008  0.1535706E+04  0.7818608E-02  0.8861050E-01
         -1   -1    0    0    0  501 -0.00000000000E+00  0.00000000000E+00  0.67515556135E+03  0.67515556135E+03  0.00000000000E+00 0.  1.
          1   -1    0    0  501    0  0.00000000000E+00 -0.00000000000E+00 -0.87327805273E+03  0.87327805273E+03  0.00000000000E+00 0. -1.
         23    2    1    2    0    0  0.25345267445E+03  0.39927577758E+03  0.93053458485E+02  0.49167209775E+03  0.97072657431E+02 0.  0.
        254    2    1    2    0    0 -0.25345267445E+03 -0.39927577758E+03 -0.29117594987E+03  0.10567615163E+04  0.89905620730E+03 0.  0.
         23    2    4    4    0    0 -0.92326048378E+02  0.46748653361E+02  0.27857670304E+03  0.30995457149E+03  0.88075655606E+02 0.  0.
         23    2    4    4    0    0 -0.16112662607E+03 -0.44602443094E+03 -0.56975265291E+03  0.74680694485E+03  0.90570109643E+02 0.  0.
          1    1    3    3  502    0  0.87578646032E+02  0.69922025277E+02  0.31791586545E+01  0.11211251451E+03  0.00000000000E+00 0. -1.
         -1    1    3    3    0  502  0.16587402842E+03  0.32935375230E+03  0.89874299831E+02  0.37955958324E+03  0.00000000000E+00 0.  1.
         11    1    5    5    0    0 -0.10459127522E+02 -0.13935108920E+02  0.51707344190E+01  0.18174628017E+02  0.00000000000E+00 0.  1.
        -11    1    5    5    0    0 -0.81866920855E+02  0.60683762281E+02  0.27340596862E+03  0.29177994347E+03  0.00000000000E+00 0. -1.
          3    1    6    6  503    0 -0.16903723085E+03 -0.43767052470E+03 -0.56487377629E+03  0.73431019109E+03  0.00000000000E+00 0. -1.
         -3    1    6    6    0  503  0.79106047798E+01 -0.83539062432E+01 -0.48788766180E+01  0.12496753761E+02  0.00000000000E+00 0.  1.
<mgrwt>
<rscale>  0 0.15357064E+04</rscale>
<asrwt>0</asrwt>
<pdfrwt beam="1">  1        1 0.13435047E+00 0.15357064E+04</pdfrwt>
<pdfrwt beam="2">  1       -1 0.10387009E+00 0.15357064E+04</pdfrwt>
<totfact> 0.16129528E+01</totfact>
</mgrwt>
</event>
<event>
12    2  0.3518828E-008  0.1842931E+04  0.7818608E-02  0.8683797E-01
         -1   -1    0    0    0  501 -0.00000000000E+00  0.00000000000E+00  0.48597866361E+03  0.48597866361E+03  0.00000000000E+00 0.  1.
          1   -1    0    0  501    0  0.00000000000E+00 -0.00000000000E+00 -0.17471936303E+04  0.17471936303E+04  0.00000000000E+00 0. -1.
         23    2    1    2    0    0 -0.58521682631E+03 -0.29843816945E+03 -0.77798089536E+03  0.10220696302E+04  0.88475875986E+02 0.  0.
        254    2    1    2    0    0  0.58521682631E+03  0.29843816945E+03 -0.48323407134E+03  0.12111026637E+04  0.89538283411E+03 0.  0.
         23    2    4    4    0    0 -0.79947662341E+02  0.51701026502E+02  0.18831097176E+03  0.22988264998E+03  0.91216148890E+02 0.  0.
         23    2    4    4    0    0  0.66516448865E+03  0.24673714295E+03 -0.67154504310E+03  0.98122001376E+03  0.92178933683E+02 0.  0.
          1    1    3    3  502    0 -0.97752610150E+02 -0.63393675618E+02 -0.19063716424E+03  0.22342081212E+03  0.00000000000E+00 0. -1.
         -1    1    3    3    0  502 -0.48746421616E+03 -0.23504449384E+03 -0.58734373112E+03  0.79864881807E+03  0.00000000000E+00 0.  1.
         11    1    5    5    0    0 -0.44613683307E+02  0.51614359150E+02  0.43703947469E+02  0.81021341837E+02  0.00000000000E+00 0.  1.
        -11    1    5    5    0    0 -0.35333979034E+02  0.86667352178E-01  0.14460702429E+03  0.14886130814E+03  0.00000000000E+00 0. -1.
          2    1    6    6  503    0  0.60725590829E+03  0.20690808811E+03 -0.63210791390E+03  0.90062817517E+03  0.00000000000E+00 0. -1.
         -2    1    6    6    0  503  0.57908580358E+02  0.39829054844E+02 -0.39437129199E+02  0.80591838597E+02  0.00000000000E+00 0.  1.
<mgrwt>
<rscale>  0 0.18429312E+04</rscale>
<asrwt>0</asrwt>
<pdfrwt beam="1">  1        1 0.26879902E+00 0.18429312E+04</pdfrwt>
<pdfrwt beam="2">  1       -1 0.74765949E-01 0.18429312E+04</pdfrwt>
<totfact> 0.74871777E+00</totfact>
</mgrwt>
</event>
<event>
12    2  0.3518828E-008  0.1455391E+04  0.7818608E-02  0.8914671E-01
         -2   -1    0    0    0  501 -0.00000000000E+00  0.00000000000E+00  0.22783725248E+03  0.22783725248E+03  0.00000000000E+00 0.  1.
          2   -1    0    0  501    0  0.00000000000E+00 -0.00000000000E+00 -0.23242076701E+04  0.23242076701E+04  0.00000000000E+00 0. -1.
         23    2    1    2    0    0  0.28688964222E+03 -0.25805202039E+03 -0.26477279407E+03  0.47675995907E+03  0.91098375696E+02 0.  0.
        254    2    1    2    0    0 -0.28688964222E+03  0.25805202039E+03 -0.18315976236E+04  0.20752849635E+04  0.89619267633E+03 0.  0.
         23    2    4    4    0    0 -0.23907913683E+03  0.56452382271E+03 -0.14397577146E+04  0.15675473920E+04  0.91959606108E+02 0.  0.
         23    2    4    4    0    0 -0.47810505385E+02 -0.30647180232E+03 -0.39183990895E+03  0.50773757156E+03  0.89711299678E+02 0.  0.
          2    1    3    3  502    0  0.62661892388E+01 -0.41202778720E+02 -0.23805466518E+02  0.47996190869E+02  0.00000000000E+00 0. -1.
         -2    1    3    3    0  502  0.28062345298E+03 -0.21684924167E+03 -0.24096732755E+03  0.42876376820E+03  0.00000000000E+00 0.  1.
         11    1    5    5    0    0 -0.42401788388E+02  0.21234587756E+03 -0.49898518014E+03  0.54394383292E+03  0.00000000000E+00 0.  1.
        -11    1    5    5    0    0 -0.19667734844E+03  0.35217794515E+03 -0.94077253450E+03  0.10236035591E+04  0.00000000000E+00 0. -1.
          1    1    6    6  503    0 -0.96524614459E+00 -0.10161592327E+02 -0.58090727804E+02  0.58980694430E+02  0.00000000000E+00 0. -1.
         -1    1    6    6    0  503 -0.46845259241E+02 -0.29631020999E+03 -0.33374918115E+03  0.44875687713E+03  0.00000000000E+00 0.  1.
<mgrwt>
<rscale>  0 0.14553915E+04</rscale>
<asrwt>0</asrwt>
<pdfrwt beam="1">  1        2 0.35757042E+00 0.14553915E+04</pdfrwt>
<pdfrwt beam="2">  1       -2 0.35051885E-01 0.14553915E+04</pdfrwt>
<totfact> 0.32589547E+01</totfact>
</mgrwt>
</event>
<event>
12    2  0.3518828E-008  0.1666389E+04  0.7818608E-02  0.8780770E-01
         -1   -1    0    0    0  501 -0.00000000000E+00  0.00000000000E+00  0.61797272485E+03  0.61797272485E+03  0.00000000000E+00 0.  1.
          1   -1    0    0  501    0  0.00000000000E+00 -0.00000000000E+00 -0.11233717636E+04  0.11233717636E+04  0.00000000000E+00 0. -1.
         23    2    1    2    0    0 -0.11581329969E+02 -0.29603830956E+03  0.35000415668E+03  0.46770335213E+03  0.92036449131E+02 0.  0.
        254    2    1    2    0    0  0.11581329969E+02  0.29603830956E+03 -0.85540319539E+03  0.12736411363E+04  0.89592092812E+03 0.  0.
         23    2    4    4    0    0  0.15581764572E+03 -0.19472335180E+03  0.93201235107E+01  0.26478230534E+03  0.88467406818E+02 0.  0.
         23    2    4    4    0    0 -0.14423631575E+03  0.49076166135E+03 -0.86472331890E+03  0.10088588309E+04  0.91643873166E+02 0.  0.
          4    1    3    3  502    0 -0.46001212018E+02 -0.10196110644E+03  0.10680343352E+03  0.15465817840E+03  0.00000000000E+00 0. -1.
         -4    1    3    3    0  502  0.34419882049E+02 -0.19407720311E+03  0.24320072316E+03  0.31304517373E+03  0.00000000000E+00 0.  1.
         11    1    5    5    0    0  0.14851287149E+03 -0.19090404985E+03  0.28850935740E+02  0.24358326244E+03  0.00000000000E+00 0. -1.
        -11    1    5    5    0    0  0.73047742281E+01 -0.38193019509E+01 -0.19530812229E+02  0.21199042909E+02  0.00000000000E+00 0.  1.
          2    1    6    6  503    0 -0.15022856816E+03  0.47463028771E+03 -0.80318385130E+03  0.94495864020E+03  0.00000000000E+00 0. -1.
         -2    1    6    6    0  503  0.59922524061E+01  0.16131373646E+02 -0.61539467604E+02  0.63900190748E+02  0.00000000000E+00 0.  1.
<mgrwt>
<rscale>  0 0.16663890E+04</rscale>
<asrwt>0</asrwt>
<pdfrwt beam="1">  1        1 0.17282642E+00 0.16663890E+04</pdfrwt>
<pdfrwt beam="2">  1       -1 0.95072729E-01 0.16663890E+04</pdfrwt>
<totfact> 0.12422446E+01</totfact>
</mgrwt>
</event>
<event>
12    2  0.3518828E-008  0.2269550E+04  0.7818608E-02  0.8490025E-01
         -2   -1    0    0    0  501 -0.00000000000E+00  0.00000000000E+00  0.62893568856E+03  0.62893568856E+03  0.00000000000E+00 0.  1.
          2   -1    0    0  501    0  0.00000000000E+00 -0.00000000000E+00 -0.20474504255E+04  0.20474504255E+04  0.00000000000E+00 0. -1.
         23    2    1    2    0    0 -0.14262212435E+03  0.91431306163E+02  0.50902158508E+03  0.54368301464E+03  0.88246768901E+02 0.  0.
        254    2    1    2    0    0  0.14262212435E+03 -0.91431306163E+02 -0.19275363221E+04  0.21327030995E+04  0.89684195012E+03 0.  0.
         23    2    4    4    0    0 -0.10265514599E+03  0.27690980502E+03 -0.14195460864E+04  0.14529338608E+04  0.93212623199E+02 0.  0.
         23    2    4    4    0    0  0.24527727035E+03 -0.36834111119E+03 -0.50799023563E+03  0.67976923871E+03  0.90531899671E+02 0.  0.
          3    1    3    3  502    0 -0.12166822779E+02  0.52780287956E+02  0.16821460661E+03  0.17671995996E+03  0.00000000000E+00 0. -1.
         -3    1    3    3    0  502 -0.13045530157E+03  0.38651018207E+02  0.34080697848E+03  0.36696305467E+03  0.00000000000E+00 0.  1.
         11    1    5    5    0    0 -0.95753656066E+01  0.42622221235E+02 -0.41273074985E+03  0.41503615896E+03  0.00000000000E+00 0.  1.
        -11    1    5    5    0    0 -0.93079780385E+02  0.23428758379E+03 -0.10068153366E+04  0.10378977018E+04  0.00000000000E+00 0. -1.
          3    1    6    6  503    0  0.56396109526E+02 -0.67201770932E+02 -0.15911489105E+03  0.18169795744E+03  0.00000000000E+00 0. -1.
         -3    1    6    6    0  503  0.18888116082E+03 -0.30113934025E+03 -0.34887534458E+03  0.49807128126E+03  0.00000000000E+00 0.  1.
<mgrwt>
<rscale>  0 0.22695503E+04</rscale>
<asrwt>0</asrwt>
<pdfrwt beam="1">  1        2 0.31499237E+00 0.22695503E+04</pdfrwt>
<pdfrwt beam="2">  1       -2 0.96759337E-01 0.22695503E+04</pdfrwt>
<totfact> 0.51005461E+00</totfact>
</mgrwt>
</event>
<event>
12    2  0.3518828E-008  0.2254844E+04  0.7818608E-02  0.8495941E-01
         -1   -1    0    0    0  501 -0.00000000000E+00  0.00000000000E+00  0.50667618631E+03  0.50667618631E+03  0.00000000000E+00 0.  1.
          1   -1    0    0  501    0  0.00000000000E+00 -0.00000000000E+00 -0.25086635987E+04  0.25086635987E+04  0.00000000000E+00 0. -1.
         23    2    1    2    0    0 -0.61340675825E+03 -0.60945914994E+03 -0.13355448796E+04  0.15936244798E+04  0.90832542979E+02 0.  0.
        254    2    1    2    0    0  0.61340675825E+03  0.60945914994E+03 -0.66644253280E+03  0.14217153052E+04  0.91072523457E+03 0.  0.
         23    2    4    4    0    0  0.75583871487E+03  0.34246218409E+03 -0.19992842620E+03  0.85831404599E+03  0.90327822548E+02 0.  0.
         23    2    4    4    0    0 -0.14243195661E+03  0.26699696585E+03 -0.46651410659E+03  0.56340125916E+03  0.90616362403E+02 0.  0.
          3    1    3    3  502    0 -0.61056620748E+03 -0.60260395344E+03 -0.13015650651E+04  0.15588438784E+04  0.00000000000E+00 0. -1.
         -3    1    3    3    0  502 -0.28405507716E+01 -0.68551964999E+01 -0.33979814424E+02  0.34780601433E+02  0.00000000000E+00 0.  1.
         11    1    5    5    0    0  0.13248196011E+03  0.81476976597E+02 -0.68113961733E+02  0.16979245936E+03  0.00000000000E+00 0. -1.
        -11    1    5    5    0    0  0.62335675475E+03  0.26098520749E+03 -0.13181446447E+03  0.68852158664E+03  0.00000000000E+00 0.  1.
          4    1    6    6  503    0 -0.82759323442E+02  0.64980862711E+02 -0.15230021653E+03  0.18511340872E+03  0.00000000000E+00 0. -1.
         -4    1    6    6    0  503 -0.59672633173E+02  0.20201610314E+03 -0.31421389006E+03  0.37828785044E+03  0.00000000000E+00 0.  1.
<mgrwt>
<rscale>  0 0.22548438E+04</rscale>
<asrwt>0</asrwt>
<pdfrwt beam="1">  1        1 0.38594824E+00 0.22548438E+04</pdfrwt>
<pdfrwt beam="2">  1       -1 0.77950183E-01 0.22548438E+04</pdfrwt>
<totfact> 0.19983580E+00</totfact>
</mgrwt>
</event>
<event>
12    2  0.3518828E-008  0.1604293E+04  0.7818608E-02  0.8817915E-01
          1   -1    0    0  501    0  0.00000000000E+00  0.00000000000E+00  0.26750233847E+04  0.26750233847E+04  0.00000000000E+00 0. -1.
         -1   -1    0    0    0  501 -0.00000000000E+00 -0.00000000000E+00 -0.24053588659E+03  0.24053588659E+03  0.00000000000E+00 0.  1.
         23    2    1    2    0    0  0.23407311109E+02 -0.11714223952E+03 -0.12368018084E+03  0.19504779714E+03  0.92068721850E+02 0.  0.
        254    2    1    2    0    0 -0.23407311109E+02  0.11714223952E+03  0.25581676789E+04  0.27205114741E+04  0.91798180859E+03 0.  0.
         23    2    4    4    0    0 -0.25565072155E+03  0.43993809544E+03  0.13765290870E+04  0.14703645423E+04  0.90756490981E+02 0.  0.
         23    2    4    4    0    0  0.23224341044E+03 -0.32279585592E+03  0.11816385919E+04  0.12501469318E+04  0.91996863835E+02 0.  0.
          2    1    3    3  502    0 -0.49499855477E+01  0.14927682934E+02 -0.12104944491E+02  0.19846101779E+02  0.00000000000E+00 0. -1.
         -2    1    3    3    0  502  0.28357296656E+02 -0.13206992245E+03 -0.11157523635E+03  0.17520169536E+03  0.00000000000E+00 0.  1.
         11    1    5    5    0    0 -0.28609143198E+02  0.29610965985E+02  0.19239966435E+03  0.19675599920E+03  0.00000000000E+00 0.  1.
        -11    1    5    5    0    0 -0.22704157835E+03  0.41032712945E+03  0.11841294227E+04  0.12736085431E+04  0.00000000000E+00 0. -1.
          3    1    6    6  503    0  0.89880221410E+02 -0.18434423390E+03  0.50768100430E+03  0.54754109700E+03  0.00000000000E+00 0. -1.
         -3    1    6    6    0  503  0.14236318903E+03 -0.13845162201E+03  0.67395758756E+03  0.70260583477E+03  0.00000000000E+00 0.  1.
<mgrwt>
<rscale>  0 0.16042931E+04</rscale>
<asrwt>0</asrwt>
<pdfrwt beam="1">  1        1 0.41154204E+00 0.16042931E+04</pdfrwt>
<pdfrwt beam="2">  1       -1 0.37005523E-01 0.16042931E+04</pdfrwt>
<totfact> 0.68998585E+00</totfact>
</mgrwt>
</event>
<event>
12    2  0.3518828E-008  0.2197164E+04  0.7818608E-02  0.8519609E-01
          1   -1    0    0  501    0  0.00000000000E+00  0.00000000000E+00  0.80555411066E+03  0.80555411066E+03  0.00000000000E+00 0. -1.
         -1   -1    0    0    0  501 -0.00000000000E+00 -0.00000000000E+00 -0.14982014500E+04  0.14982014500E+04  0.00000000000E+00 0.  1.
         23    2    1    2    0    0 -0.11781209964E+03  0.80325831882E+03  0.14504921092E+03  0.82939393121E+03  0.88042046584E+02 0.  0.
        254    2    1    2    0    0  0.11781209964E+03 -0.80325831882E+03 -0.83769655026E+03  0.14743616295E+04  0.90161138333E+03 0.  0.
         23    2    4    4    0    0  0.29489400640E+03 -0.46273523973E+03 -0.92172322115E+01  0.55666880778E+03  0.93321096649E+02 0.  0.
         23    2    4    4    0    0 -0.17708190676E+03 -0.34052307909E+03 -0.82847931805E+03  0.91769282169E+03  0.92022635524E+02 0.  0.
          3    1    3    3  502    0 -0.70920799189E+02  0.50432890556E+03  0.13392137310E+03  0.52660453750E+03  0.00000000000E+00 0. -1.
         -3    1    3    3    0  502 -0.46891300446E+02  0.29892941326E+03  0.11127837814E+02  0.30278939371E+03  0.00000000000E+00 0.  1.
         11    1    5    5    0    0  0.26659428654E+02 -0.11137274396E+03  0.30418092036E+00  0.11451945581E+03  0.00000000000E+00 0. -1.
        -11    1    5    5    0    0  0.26823457775E+03 -0.35136249577E+03 -0.95214131318E+01  0.44214935196E+03  0.00000000000E+00 0.  1.
          3    1    6    6  503    0 -0.17198221184E+02 -0.18091105993E+02 -0.12532938980E+03  0.12779093424E+03  0.00000000000E+00 0. -1.
         -3    1    6    6    0  503 -0.15988368558E+03 -0.32243197309E+03 -0.70314992826E+03  0.78990188745E+03  0.00000000000E+00 0.  1.
<mgrwt>
<rscale>  0 0.21971639E+04</rscale>
<asrwt>0</asrwt>
<pdfrwt beam="1">  1        1 0.12393140E+00 0.21971639E+04</pdfrwt>
<pdfrwt beam="2">  1       -1 0.23049253E+00 0.21971639E+04</pdfrwt>
<totfact> 0.18678212E+00</totfact>
</mgrwt>
</event>
<event>
12    2  0.3518828E-008  0.1812706E+04  0.7818608E-02  0.8699571E-01
         -1   -1    0    0    0  501 -0.00000000000E+00  0.00000000000E+00  0.10917024183E+04  0.10917024183E+04  0.00000000000E+00 0.  1.
          1   -1    0    0  501    0  0.00000000000E+00 -0.00000000000E+00 -0.75247255500E+03  0.75247255500E+03  0.00000000000E+00 0. -1.
         23    2    1    2    0    0  0.57049314126E+03 -0.22356942478E+03  0.43853582981E+03  0.75901039465E+03  0.91309327237E+02 0.  0.
        254    2    1    2    0    0 -0.57049314126E+03  0.22356942478E+03 -0.99305966519E+02  0.10851645786E+04  0.89009818326E+03 0.  0.
         23    2    4    4    0    0 -0.78035248610E+03  0.23661143157E+03  0.35807345817E+02  0.82137823305E+03  0.91897027185E+02 0.  0.
         23    2    4    4    0    0  0.20985934484E+03 -0.13042006791E+02 -0.13511331234E+03  0.26378634560E+03  0.84359886158E+02 0.  0.
          4    1    3    3  502    0  0.38291974371E+03 -0.16996993469E+03  0.25086997945E+03  0.48831655247E+03  0.00000000000E+00 0.  1.
         -4    1    3    3    0  502  0.18757339755E+03 -0.53599490083E+02  0.18766585036E+03  0.27069384218E+03  0.00000000000E+00 0. -1.
         11    1    5    5    0    0 -0.61895525448E+03  0.15295651240E+03  0.91117608283E+01  0.63763965209E+03  0.00000000000E+00 0. -1.
        -11    1    5    5    0    0 -0.16139723162E+03  0.83654919166E+02  0.26695584988E+02  0.18373858096E+03  0.00000000000E+00 0.  1.
          1    1    6    6  503    0  0.16335705540E+03 -0.42876782330E+02 -0.84464277317E+02  0.18883368385E+03  0.00000000000E+00 0. -1.
         -1    1    6    6    0  503  0.46502289441E+02  0.29834775538E+02 -0.50649035019E+02  0.74952661747E+02  0.00000000000E+00 0.  1.
<mgrwt>
<rscale>  0 0.18127064E+04</rscale>
<asrwt>0</asrwt>
<pdfrwt beam="1">  1        1 0.11576501E+00 0.18127064E+04</pdfrwt>
<pdfrwt beam="2">  1       -1 0.16795422E+00 0.18127064E+04</pdfrwt>
<totfact> 0.58513511E+00</totfact>
</mgrwt>
</event>
<event>
12    2  0.3518828E-008  0.1813995E+04  0.7818608E-02  0.8698892E-01
         -2   -1    0    0    0  501 -0.00000000000E+00  0.00000000000E+00  0.67500307683E+03  0.67500307683E+03  0.00000000000E+00 0. -1.
          2   -1    0    0  501    0  0.00000000000E+00 -0.00000000000E+00 -0.12187266137E+04  0.12187266137E+04  0.00000000000E+00 0.  1.
         23    2    1    2    0    0  0.47617791240E+03  0.46478479820E+03 -0.63699577626E+02  0.67449820052E+03  0.90110340315E+02 0.  0.
        254    2    1    2    0    0 -0.47617791240E+03 -0.46478479820E+03 -0.48002395925E+03  0.12192314900E+04  0.90184927339E+03 0.  0.
         23    2    4    4    0    0 -0.52607430429E+03  0.90264338306E+02 -0.13244260816E+03  0.55625091203E+03  0.83499750166E+02 0.  0.
         23    2    4    4    0    0  0.49896391892E+02 -0.55504913650E+03 -0.34758135109E+03  0.66298057799E+03  0.90339677376E+02 0.  0.
          2    1    3    3  502    0  0.22480632734E+03  0.26714085006E+03 -0.62698799850E+02  0.35472983817E+03  0.00000000000E+00 0. -1.
         -2    1    3    3    0  502  0.25137158506E+03  0.19764394813E+03 -0.10007777759E+01  0.31976836236E+03  0.00000000000E+00 0.  1.
         11    1    5    5    0    0 -0.34706864331E+03  0.26440682976E+02 -0.10914176767E+03  0.36478442721E+03  0.00000000000E+00 0. -1.
        -11    1    5    5    0    0 -0.17900566098E+03  0.63823655330E+02 -0.23300840486E+02  0.19146648482E+03  0.00000000000E+00 0.  1.
          3    1    6    6  503    0  0.65108835400E+02 -0.23025597577E+03 -0.14037039307E+03  0.27741813581E+03  0.00000000000E+00 0. -1.
         -3    1    6    6    0  503 -0.15212443508E+02 -0.32479316073E+03 -0.20721095802E+03  0.38556244218E+03  0.00000000000E+00 0.  1.
<mgrwt>
<rscale>  0 0.18139947E+04</rscale>
<asrwt>0</asrwt>
<pdfrwt beam="1">  1        2 0.18749640E+00 0.18139947E+04</pdfrwt>
<pdfrwt beam="2">  1       -2 0.10384663E+00 0.18139947E+04</pdfrwt>
<totfact> 0.13142067E+01</totfact>
</mgrwt>
</event>
<event>
12    2  0.3518828E-008  0.1651623E+04  0.7818608E-02  0.8789447E-01
          1   -1    0    0  501    0  0.00000000000E+00  0.00000000000E+00  0.90551105223E+03  0.90551105223E+03  0.00000000000E+00 0. -1.
         -1   -1    0    0    0  501 -0.00000000000E+00 -0.00000000000E+00 -0.75312636554E+03  0.75312636554E+03  0.00000000000E+00 0.  1.
         23    2    1    2    0    0 -0.54850043709E+03 -0.16472561338E+03  0.62218599384E+02  0.58327949667E+03  0.91414221764E+02 0.  0.
        254    2    1    2    0    0  0.54850043709E+03  0.16472561338E+03  0.90166087300E+02  0.10753579211E+04  0.90569171244E+03 0.  0.
         23    2    4    4    0    0  0.87605465935E+02  0.18595186754E+02 -0.37775700410E+03  0.39763246598E+03  0.85969327218E+02 0.  0.
         23    2    4    4    0    0  0.46089497115E+03  0.14613042662E+03  0.46792309140E+03  0.67772545512E+03  0.81126426235E+02 0.  0.
          1    1    3    3  502    0 -0.45320749024E+03 -0.12199915207E+03  0.17478338270E+02  0.46966617360E+03  0.00000000000E+00 0. -1.
         -1    1    3    3    0  502 -0.95292946846E+02 -0.42726461310E+02  0.44740261114E+02  0.11361332307E+03  0.00000000000E+00 0.  1.
         11    1    5    5    0    0  0.50584360561E+02  0.11848861592E+02 -0.67886501881E+02  0.85485379990E+02  0.00000000000E+00 0. -1.
        -11    1    5    5    0    0  0.37021105374E+02  0.67463251612E+01 -0.30987050222E+03  0.31214708599E+03  0.00000000000E+00 0.  1.
          2    1    6    6  503    0  0.19461995041E+03  0.27980506823E+02  0.22139012001E+03  0.29609697584E+03  0.00000000000E+00 0. -1.
         -2    1    6    6    0  503  0.26627502074E+03  0.11814991980E+03  0.24653297139E+03  0.38162847929E+03  0.00000000000E+00 0.  1.
<mgrwt>
<rscale>  0 0.16516225E+04</rscale>
<asrwt>0</asrwt>
<pdfrwt beam="1">  1        1 0.13930939E+00 0.16516225E+04</pdfrwt>
<pdfrwt beam="2">  1       -1 0.11586560E+00 0.16516225E+04</pdfrwt>
<totfact> 0.11601902E+01</totfact>
</mgrwt>
</event>
<event>
12    2  0.3518828E-008  0.1774686E+04  0.7818608E-02  0.8719878E-01
         -2   -1    0    0    0  501 -0.00000000000E+00  0.00000000000E+00  0.51571041016E+03  0.51571041016E+03  0.00000000000E+00 0.  1.
          2   -1    0    0  501    0  0.00000000000E+00 -0.00000000000E+00 -0.15267832097E+04  0.15267832097E+04  0.00000000000E+00 0. -1.
         23    2    1    2    0    0  0.15739407891E+03  0.19815660933E+02  0.35733432175E+03  0.40156576352E+03  0.91660724614E+02 0.  0.
        254    2    1    2    0    0 -0.15739407891E+03 -0.19815660933E+02 -0.13684071212E+04  0.16409278563E+04  0.89159442778E+03 0.  0.
         23    2    4    4    0    0 -0.11047345931E+03 -0.14366981344E+03 -0.14432255469E+04  0.14572929886E+04  0.89204680908E+02 0.  0.
         23    2    4    4    0    0 -0.46920619605E+02  0.12385415251E+03  0.74818425628E+02  0.18363486767E+03  0.10287162957E+03 0.  0.
          1    1    3    3  502    0  0.60375975967E+01 -0.21291432523E+02  0.21224396932E+02  0.30663540382E+02  0.00000000000E+00 0. -1.
         -1    1    3    3    0  502  0.15135648131E+03  0.41107093455E+02  0.33610992481E+03  0.37090222314E+03  0.00000000000E+00 0.  1.
         11    1    5    5    0    0 -0.49012003133E+01 -0.70057181552E+02 -0.39482887293E+03  0.40102602079E+03  0.00000000000E+00 0. -1.
        -11    1    5    5    0    0 -0.10557225899E+03 -0.73612631889E+02 -0.10483966739E+04  0.10562669679E+04  0.00000000000E+00 0.  1.
          1    1    6    6  503    0  0.51713576432E+01 -0.12894262656E+02 -0.74462597076E+01  0.15762351758E+02  0.00000000000E+00 0. -1.
         -1    1    6    6    0  503 -0.52091977248E+02  0.13674841516E+03  0.82264685335E+02  0.16787251591E+03  0.00000000000E+00 0.  1.
<mgrwt>
<rscale>  0 0.17746864E+04</rscale>
<asrwt>0</asrwt>
<pdfrwt beam="1">  1        2 0.23488972E+00 0.17746864E+04</pdfrwt>
<pdfrwt beam="2">  1       -2 0.79340064E-01 0.17746864E+04</pdfrwt>
<totfact> 0.16331823E+01</totfact>
</mgrwt>
</event>
<event>
12    2  0.3518828E-008  0.1866094E+04  0.7818608E-02  0.8671920E-01
          1   -1    0    0  501    0  0.00000000000E+00  0.00000000000E+00  0.67792108488E+03  0.67792108488E+03  0.00000000000E+00 0. -1.
         -1   -1    0    0    0  501 -0.00000000000E+00 -0.00000000000E+00 -0.12841859433E+04  0.12841859433E+04  0.00000000000E+00 0.  1.
         23    2    1    2    0    0  0.61280156394E+03  0.33266222937E+03 -0.10051362728E+03  0.71023212135E+03  0.90203998266E+02 0.  0.
        254    2    1    2    0    0 -0.61280156394E+03 -0.33266222937E+03 -0.50575123110E+03  0.12518749068E+04  0.90841431013E+03 0.  0.
         23    2    4    4    0    0  0.62396828007E+02 -0.35015359034E+03  0.51947594487E+02  0.37108360495E+03  0.92214902866E+02 0.  0.
         23    2    4    4    0    0 -0.67519839195E+03  0.17491360976E+02 -0.55769882559E+03  0.88079130184E+03  0.92555502963E+02 0.  0.
          1    1    3    3  502    0  0.60904761139E+03  0.33738591429E+03 -0.96319318191E+02  0.70288381625E+03  0.00000000000E+00 0. -1.
         -1    1    3    3    0  502  0.37539525591E+01 -0.47236849189E+01 -0.41943090879E+01  0.73483050940E+01  0.00000000000E+00 0.  1.
         11    1    5    5    0    0  0.36288234878E+02 -0.56898020241E+02 -0.15046607996E+02  0.69142035768E+02  0.00000000000E+00 0.  1.
        -11    1    5    5    0    0  0.26108593130E+02 -0.29325557010E+03  0.66994202483E+02  0.30194156918E+03  0.00000000000E+00 0. -1.
          2    1    6    6  503    0 -0.46570759064E+03  0.31858441568E+02 -0.43224075751E+03  0.63618440152E+03  0.00000000000E+00 0. -1.
         -2    1    6    6    0  503 -0.20949080132E+03 -0.14367080593E+02 -0.12545806807E+03  0.24460690032E+03  0.00000000000E+00 0.  1.
<mgrwt>
<rscale>  0 0.18660940E+04</rscale>
<asrwt>0</asrwt>
<pdfrwt beam="1">  1        1 0.10429555E+00 0.18660940E+04</pdfrwt>
<pdfrwt beam="2">  1       -1 0.19756706E+00 0.18660940E+04</pdfrwt>
<totfact> 0.41978279E+00</totfact>
</mgrwt>
</event>
<event>
12    2  0.3518828E-008  0.1413450E+04  0.7818608E-02  0.8944140E-01
          2   -1    0    0  501    0  0.00000000000E+00  0.00000000000E+00  0.78165144957E+03  0.78165144957E+03  0.00000000000E+00 0. -1.
         -2   -1    0    0    0  501 -0.00000000000E+00 -0.00000000000E+00 -0.63898080977E+03  0.63898080977E+03  0.00000000000E+00 0.  1.
         23    2    1    2    0    0  0.26347383604E+03  0.15962546362E+03  0.31677516041E+03  0.45097626885E+03  0.90190586541E+02 0.  0.
        254    2    1    2    0    0 -0.26347383604E+03 -0.15962546362E+03 -0.17410452061E+03  0.96965599049E+03  0.90278547003E+03 0.  0.
         23    2    4    4    0    0  0.31374812076E+03  0.16303691588E+02  0.23232929279E+02  0.32804196381E+03  0.91477141272E+02 0.  0.
         23    2    4    4    0    0 -0.57722195680E+03 -0.17592915520E+03 -0.19733744989E+03  0.64161402668E+03  0.92683520883E+02 0.  0.
          3    1    3    3  502    0  0.26812429072E+03  0.16255770174E+03  0.31642639566E+03  0.44546751345E+03  0.00000000000E+00 0. -1.
         -3    1    3    3    0  502 -0.46504546815E+01 -0.29322381242E+01  0.34876474592E+00  0.55087553958E+01  0.00000000000E+00 0.  1.
         11    1    5    5    0    0  0.15751339472E+03 -0.34997720990E+02  0.26780032167E+02  0.16356185409E+03  0.00000000000E+00 0. -1.
        -11    1    5    5    0    0  0.15623472604E+03  0.51301412578E+02 -0.35471028872E+01  0.16448010971E+03  0.00000000000E+00 0.  1.
          3    1    6    6  503    0 -0.30081925284E+03 -0.53081541967E+02 -0.12857521076E+03  0.33142338149E+03  0.00000000000E+00 0. -1.
         -3    1    6    6    0  503 -0.27640270396E+03 -0.12284761324E+03 -0.68762239133E+02  0.31019064519E+03  0.00000000000E+00 0.  1.
<mgrwt>
<rscale>  0 0.14134501E+04</rscale>
<asrwt>0</asrwt>
<pdfrwt beam="1">  1        2 0.12025407E+00 0.14134501E+04</pdfrwt>
<pdfrwt beam="2">  1       -2 0.98304740E-01 0.14134501E+04</pdfrwt>
<totfact> 0.29715757E+01</totfact>
</mgrwt>
</event>
<event>
12    2  0.3518828E-008  0.1848562E+04  0.7818608E-02  0.8680893E-01
          2   -1    0    0  501    0  0.00000000000E+00  0.00000000000E+00  0.16667701670E+04  0.16667701670E+04  0.00000000000E+00 0.  1.
         -2   -1    0    0    0  501 -0.00000000000E+00 -0.00000000000E+00 -0.51254521053E+03  0.51254521053E+03  0.00000000000E+00 0. -1.
         23    2    1    2    0    0 -0.47261903087E+03  0.48389706356E+03  0.24657055524E+03  0.72595482344E+03  0.93210785283E+02 0.  0.
        254    2    1    2    0    0  0.47261903087E+03 -0.48389706356E+03  0.90765440122E+03  0.14533605541E+04  0.91153456965E+03 0.  0.
         23    2    4    4    0    0 -0.18007199352E+03 -0.42696960767E+03  0.34766818839E+03  0.58621649140E+03  0.89708621894E+02 0.  0.
         23    2    4    4    0    0  0.65269102439E+03 -0.56927455886E+02  0.55998621282E+03  0.86714406269E+03  0.95435624111E+02 0.  0.
          4    1    3    3  502    0 -0.11935116288E+03  0.14986437968E+03  0.30810387127E+02  0.19404461428E+03  0.00000000000E+00 0. -1.
         -4    1    3    3    0  502 -0.35326786799E+03  0.33403268388E+03  0.21576016812E+03  0.53191020915E+03  0.00000000000E+00 0.  1.
         11    1    5    5    0    0  0.10129604498E+02 -0.16436304522E+02  0.18032224912E+02  0.26418215854E+02  0.00000000000E+00 0.  1.
        -11    1    5    5    0    0 -0.19020159802E+03 -0.41053330315E+03  0.32963596348E+03  0.55979827554E+03  0.00000000000E+00 0. -1.
          3    1    6    6  503    0  0.49382449944E+03 -0.64431806908E+02  0.37643265111E+03  0.62427208396E+03  0.00000000000E+00 0. -1.
         -3    1    6    6    0  503  0.15886652495E+03  0.75043510226E+01  0.18355356172E+03  0.24287197873E+03  0.00000000000E+00 0.  1.
<mgrwt>
<rscale>  0 0.18485617E+04</rscale>
<asrwt>0</asrwt>
<pdfrwt beam="1">  1        2 0.25642618E+00 0.18485617E+04</pdfrwt>
<pdfrwt beam="2">  1       -2 0.78853110E-01 0.18485617E+04</pdfrwt>
<totfact> 0.13741407E+01</totfact>
</mgrwt>
</event>
<event>
12    2  0.3518828E-008  0.1519765E+04  0.7818608E-02  0.8871415E-01
         -1   -1    0    0    0  501 -0.00000000000E+00  0.00000000000E+00  0.16741679660E+04  0.16741679660E+04  0.00000000000E+00 0.  1.
          1   -1    0    0  501    0  0.00000000000E+00 -0.00000000000E+00 -0.34490050792E+03  0.34490050792E+03  0.00000000000E+00 0. -1.
         23    2    1    2    0    0 -0.22362462427E+03 -0.65854874543E+01 -0.13902757293E+03  0.27971264652E+03  0.94123096861E+02 0.  0.
        254    2    1    2    0    0  0.22362462427E+03  0.65854874543E+01  0.14682950310E+04  0.17393558274E+04  0.90521657904E+03 0.  0.
         23    2    4    4    0    0 -0.29841533396E+03 -0.97429722374E+02  0.27140607907E+03  0.42610490254E+03  0.96746399777E+02 0.  0.
         23    2    4    4    0    0  0.52203995823E+03  0.10401520983E+03  0.11968889519E+04  0.13132509248E+04  0.93487680888E+02 0.  0.
          4    1    3    3  502    0 -0.10769189020E+03  0.27834458469E+02 -0.10760741419E+03  0.15476322522E+03  0.00000000000E+00 0. -1.
         -4    1    3    3    0  502 -0.11593273407E+03 -0.34419945923E+02 -0.31420158738E+02  0.12494942129E+03  0.00000000000E+00 0.  1.
         11    1    5    5    0    0 -0.23969106626E+03 -0.46304493425E+02  0.23941168231E+03  0.34192669826E+03  0.00000000000E+00 0. -1.
        -11    1    5    5    0    0 -0.58724267703E+02 -0.51125228950E+02  0.31994396757E+02  0.84178204282E+02  0.00000000000E+00 0.  1.
          3    1    6    6  503    0  0.32259616117E+02  0.26430970008E+02  0.61637321170E+02  0.74420685085E+02  0.00000000000E+00 0. -1.
         -3    1    6    6    0  503  0.48978034212E+03  0.77584239821E+02  0.11352516307E+04  0.12388302397E+04  0.00000000000E+00 0.  1.
<mgrwt>
<rscale>  0 0.15197650E+04</rscale>
<asrwt>0</asrwt>
<pdfrwt beam="1">  1        1 0.53061618E-01 0.15197650E+04</pdfrwt>
<pdfrwt beam="2">  1       -1 0.25756430E+00 0.15197650E+04</pdfrwt>
<totfact> 0.43920924E+00</totfact>
</mgrwt>
</event>
<event>
12    2  0.3518828E-008  0.1220302E+04  0.7818608E-02  0.9095270E-01
         -1   -1    0    0    0  501 -0.00000000000E+00  0.00000000000E+00  0.34346335134E+03  0.34346335134E+03  0.00000000000E+00 0. -1.
          1   -1    0    0  501    0  0.00000000000E+00 -0.00000000000E+00 -0.10839116873E+04  0.10839116873E+04  0.00000000000E+00 0.  1.
         23    2    1    2    0    0 -0.21462077517E+03  0.18966306443E+03 -0.12997006533E+03  0.32796144440E+03  0.92910365336E+02 0.  0.
        254    2    1    2    0    0  0.21462077517E+03 -0.18966306443E+03 -0.61047827062E+03  0.10994135942E+04  0.86832734447E+03 0.  0.
         23    2    4    4    0    0 -0.26700831696E+03  0.16311417277E+02  0.78692720466E+01  0.28390197404E+03  0.94757067076E+02 0.  0.
         23    2    4    4    0    0  0.48162909213E+03 -0.20597448170E+03 -0.61834754267E+03  0.81551162020E+03  0.91178120532E+02 0.  0.
          1    1    3    3  502    0 -0.34353407181E+02  0.44632606686E+02  0.10498592910E+02  0.57292640170E+02  0.00000000000E+00 0. -1.
         -1    1    3    3    0  502 -0.18026736799E+03  0.14503045774E+03 -0.14046865824E+03  0.27066880423E+03  0.00000000000E+00 0.  1.
         11    1    5    5    0    0 -0.37894431306E+02  0.37972645420E+02  0.24739334855E+01  0.53703166304E+02  0.00000000000E+00 0. -1.
        -11    1    5    5    0    0 -0.22911388565E+03 -0.21661228143E+02  0.53953385611E+01  0.23019880773E+03  0.00000000000E+00 0.  1.
          1    1    6    6  503    0  0.37367647586E+03 -0.19493759873E+03 -0.46408466223E+03  0.62690457784E+03  0.00000000000E+00 0. -1.
         -1    1    6    6    0  503  0.10795261627E+03 -0.11036882979E+02 -0.15426288044E+03  0.18860704236E+03  0.00000000000E+00 0.  1.
<mgrwt>
<rscale>  0 0.12203015E+04</rscale>
<asrwt>0</asrwt>
<pdfrwt beam="1">  1        1 0.16675564E+00 0.12203015E+04</pdfrwt>
<pdfrwt beam="2">  1       -1 0.52840515E-01 0.12203015E+04</pdfrwt>
<totfact> 0.46515246E+01</totfact>
</mgrwt>
</event>
<event>
12    2  0.3518828E-008  0.1352165E+04  0.7818608E-02  0.8989191E-01
          2   -1    0    0  501    0  0.00000000000E+00  0.00000000000E+00  0.39434956275E+03  0.39434956275E+03  0.00000000000E+00 0. -1.
         -2   -1    0    0    0  501 -0.00000000000E+00 -0.00000000000E+00 -0.11590917718E+04  0.11590917718E+04  0.00000000000E+00 0.  1.
         23    2    1    2    0    0 -0.82190051567E+02  0.29332074452E+03  0.22861808866E+02  0.31801362516E+03  0.88417983124E+02 0.  0.
        254    2    1    2    0    0  0.82190051567E+02 -0.29332074452E+03 -0.78760401787E+03  0.12354277093E+04  0.90175898794E+03 0.  0.
         23    2    4    4    0    0 -0.20227331365E+03 -0.44487581544E+03 -0.15643937512E+03  0.52077942405E+03  0.88932254254E+02 0.  0.
         23    2    4    4    0    0  0.28446336521E+03  0.15155507092E+03 -0.63116464274E+03  0.71464828530E+03  0.92005542029E+02 0.  0.
          1    1    3    3  502    0 -0.71449599575E+02  0.21936051318E+03  0.54181356511E+02  0.23698037770E+03  0.00000000000E+00 0. -1.
         -1    1    3    3    0  502 -0.10740451992E+02  0.73960231338E+02 -0.31319547645E+02  0.81033247456E+02  0.00000000000E+00 0.  1.
         11    1    5    5    0    0 -0.67705223348E+02 -0.68469541594E+02 -0.19579077236E+02  0.98261974640E+02  0.00000000000E+00 0. -1.
        -11    1    5    5    0    0 -0.13456809030E+03 -0.37640627385E+03 -0.13686029789E+03  0.42251744941E+03  0.00000000000E+00 0.  1.
          3    1    6    6  503    0  0.19418764665E+02  0.45271612132E+02 -0.10526293087E+03  0.11621915462E+03  0.00000000000E+00 0. -1.
         -3    1    6    6    0  503  0.26504460055E+03  0.10628345879E+03 -0.52590171188E+03  0.59842913068E+03  0.00000000000E+00 0.  1.
<mgrwt>
<rscale>  0 0.13521647E+04</rscale>
<asrwt>0</asrwt>
<pdfrwt beam="1">  1        2 0.60669163E-01 0.13521647E+04</pdfrwt>
<pdfrwt beam="2">  1       -2 0.17832181E+00 0.13521647E+04</pdfrwt>
<totfact> 0.14681255E+01</totfact>
</mgrwt>
</event>
<event>
12    2  0.3518828E-008  0.1792670E+04  0.7818608E-02  0.8710207E-01
          2   -1    0    0  501    0  0.00000000000E+00  0.00000000000E+00  0.25413330951E+04  0.25413330951E+04  0.00000000000E+00 0. -1.
         -2   -1    0    0    0  501 -0.00000000000E+00 -0.00000000000E+00 -0.31613962906E+03  0.31613962906E+03  0.00000000000E+00 0.  1.
         23    2    1    2    0    0  0.20478448519E+03  0.18408450531E+03 -0.14751287915E+03  0.32587737447E+03  0.92802064660E+02 0.  0.
        254    2    1    2    0    0 -0.20478448519E+03 -0.18408450531E+03  0.23727063452E+04  0.25315953497E+04  0.83869888735E+03 0.  0.
         23    2    4    4    0    0 -0.39436300982E+03 -0.40274966787E+03  0.13791595983E+04  0.14926847308E+04  0.91088032071E+02 0.  0.
         23    2    4    4    0    0  0.18957852463E+03  0.21866516257E+03  0.99354674691E+03  0.10389106189E+04  0.91900301494E+02 0.  0.
          4    1    3    3  502    0  0.81891810503E+02  0.64493066287E+02 -0.75154180186E+01  0.10450887874E+03  0.00000000000E+00 0. -1.
         -4    1    3    3    0  502  0.12289267469E+03  0.11959143902E+03 -0.13999746114E+03  0.22136849573E+03  0.00000000000E+00 0.  1.
         11    1    5    5    0    0 -0.31942527749E+03 -0.37109435304E+03  0.11839775157E+04  0.12812284279E+04  0.00000000000E+00 0. -1.
        -11    1    5    5    0    0 -0.74937732333E+02 -0.31655314832E+02  0.19518208257E+03  0.21145630291E+03  0.00000000000E+00 0.  1.
          1    1    6    6  503    0  0.17050659410E+03  0.22100604911E+03  0.86466300922E+03  0.90860238382E+03  0.00000000000E+00 0. -1.
         -1    1    6    6    0  503  0.19071930533E+02 -0.23408865453E+01  0.12888373769E+03  0.13030823506E+03  0.00000000000E+00 0.  1.
<mgrwt>
<rscale>  0 0.17926696E+04</rscale>
<asrwt>0</asrwt>
<pdfrwt beam="1">  1        2 0.39097431E+00 0.17926696E+04</pdfrwt>
<pdfrwt beam="2">  1       -2 0.48636868E-01 0.17926696E+04</pdfrwt>
<totfact> 0.12473155E+01</totfact>
</mgrwt>
</event>
<event>
12    2  0.3518828E-008  0.1823461E+04  0.7818608E-02  0.8693922E-01
         -3   -1    0    0    0  501 -0.00000000000E+00  0.00000000000E+00  0.41709362028E+03  0.41709362028E+03  0.00000000000E+00 0.  1.
          3   -1    0    0  501    0  0.00000000000E+00 -0.00000000000E+00 -0.19929633407E+04  0.19929633407E+04  0.00000000000E+00 0. -1.
         23    2    1    2    0    0  0.47664953791E+03 -0.31514955403E+03 -0.99989153585E+02  0.58735127037E+03  0.92030758860E+02 0.  0.
        254    2    1    2    0    0 -0.47664953791E+03  0.31514955403E+03 -0.14758805669E+04  0.18227056906E+04  0.90416733165E+03 0.  0.
         23    2    4    4    0    0 -0.65403646761E+03  0.36921004927E+03 -0.73959220228E+03  0.10580812705E+04  0.91976017382E+02 0.  0.
         23    2    4    4    0    0  0.17738692970E+03 -0.54060495246E+02 -0.73628836457E+03  0.76462442016E+03  0.90229086960E+02 0.  0.
          3    1    3    3  502    0  0.12264187496E+01 -0.16749437352E+02  0.17837607024E+01  0.16888740534E+02  0.00000000000E+00 0. -1.
         -3    1    3    3    0  502  0.47542311916E+03 -0.29840011667E+03 -0.10177291429E+03  0.57046252984E+03  0.00000000000E+00 0.  1.
         11    1    5    5    0    0 -0.12567738924E+03  0.42137554308E+02 -0.97604960527E+02  0.16461199218E+03  0.00000000000E+00 0. -1.
        -11    1    5    5    0    0 -0.52835907838E+03  0.32707249496E+03 -0.64198724176E+03  0.89346927829E+03  0.00000000000E+00 0.  1.
          2    1    6    6  503    0  0.12261152798E+03 -0.29456079236E+02 -0.63045960604E+03  0.64294678025E+03  0.00000000000E+00 0.  1.
         -2    1    6    6    0  503  0.54775401717E+02 -0.24604416010E+02 -0.10582875853E+03  0.12167763990E+03  0.00000000000E+00 0. -1.
<mgrwt>
<rscale>  0 0.18234608E+04</rscale>
<asrwt>0</asrwt>
<pdfrwt beam="1">  1        3 0.30660975E+00 0.18234608E+04</pdfrwt>
<pdfrwt beam="2">  1       -3 0.64168249E-01 0.18234608E+04</pdfrwt>
<totfact> 0.20683513E-01</totfact>
</mgrwt>
</event>
<event>
12    2  0.3518828E-008  0.1443995E+04  0.7818608E-02  0.8922574E-01
          2   -1    0    0  501    0  0.00000000000E+00  0.00000000000E+00  0.79658413540E+03  0.79658413540E+03  0.00000000000E+00 0. -1.
         -2   -1    0    0    0  501 -0.00000000000E+00 -0.00000000000E+00 -0.65439444166E+03  0.65439444166E+03  0.00000000000E+00 0.  1.
         23    2    1    2    0    0  0.34491350278E+03  0.12357305085E+03 -0.17978547510E+03  0.41859505365E+03  0.93077272159E+02 0.  0.
        254    2    1    2    0    0 -0.34491350278E+03 -0.12357305085E+03  0.32197516884E+03  0.10323835234E+04  0.90989675610E+03 0.  0.
         23    2    4    4    0    0  0.16353267338E+03 -0.18638147253E+03 -0.17083587301E+03  0.31527291350E+03  0.93440493970E+02 0.  0.
         23    2    4    4    0    0 -0.50844617616E+03  0.62808421687E+02  0.49281104185E+03  0.71711060990E+03  0.94458943348E+02 0.  0.
          1    1    3    3  502    0  0.64289664297E+02  0.10750066034E+02  0.29057844514E+01  0.65246980301E+02  0.00000000000E+00 0. -1.
         -1    1    3    3    0  502  0.28062383848E+03  0.11282298481E+03 -0.18269125955E+03  0.35334807335E+03  0.00000000000E+00 0.  1.
         11    1    5    5    0    0  0.87494395994E+02 -0.33506707568E+02 -0.50973001040E+02  0.10665934379E+03  0.00000000000E+00 0. -1.
        -11    1    5    5    0    0  0.76038277389E+02 -0.15287476497E+03 -0.11986287197E+03  0.20861356971E+03  0.00000000000E+00 0.  1.
          2    1    6    6  503    0 -0.16857940631E+03 -0.68745975342E+00  0.11009530232E+03  0.20134662755E+03  0.00000000000E+00 0. -1.
         -2    1    6    6    0  503 -0.33986676985E+03  0.63495881440E+02  0.38271573953E+03  0.51576398235E+03  0.00000000000E+00 0.  1.
<mgrwt>
<rscale>  0 0.14439948E+04</rscale>
<asrwt>0</asrwt>
<pdfrwt beam="1">  1        2 0.12255141E+00 0.14439948E+04</pdfrwt>
<pdfrwt beam="2">  1       -2 0.10067607E+00 0.14439948E+04</pdfrwt>
<totfact> 0.27327413E+01</totfact>
</mgrwt>
</event>
<event>
12    2  0.3518828E-008  0.1629252E+04  0.7818608E-02  0.8802776E-01
         -1   -1    0    0    0  501 -0.00000000000E+00  0.00000000000E+00  0.40626151986E+03  0.40626151986E+03  0.00000000000E+00 0.  1.
          1   -1    0    0  501    0  0.00000000000E+00 -0.00000000000E+00 -0.16334692895E+04  0.16334692895E+04  0.00000000000E+00 0. -1.
         23    2    1    2    0    0  0.17975667171E+03  0.22659612211E+03 -0.10381427294E+04  0.10809744979E+04  0.84304655251E+02 0.  0.
        254    2    1    2    0    0 -0.17975667171E+03 -0.22659612211E+03 -0.18906504025E+03  0.95875631148E+03  0.89432086623E+03 0.  0.
         23    2    4    4    0    0 -0.35663049087E+03  0.17397609013E+03  0.10875203838E+03  0.42141954308E+03  0.91183542819E+02 0.  0.
         23    2    4    4    0    0  0.17687381916E+03 -0.40057221224E+03 -0.29781707864E+03  0.53733676840E+03  0.91067805673E+02 0.  0.
          3    1    3    3  502    0  0.17886829629E+03  0.19494601957E+03 -0.97608742644E+03  0.10113083022E+04  0.00000000000E+00 0. -1.
         -3    1    3    3    0  502  0.88837541604E+00  0.31650102543E+02 -0.62055302985E+02  0.69666195751E+02  0.00000000000E+00 0.  1.
         11    1    5    5    0    0 -0.10068738778E+03  0.86133208376E+02  0.63988232464E+02  0.14714405709E+03  0.00000000000E+00 0.  1.
        -11    1    5    5    0    0 -0.25594310309E+03  0.87842881752E+02  0.44763805920E+02  0.27427548598E+03  0.00000000000E+00 0. -1.
          1    1    6    6  503    0  0.17889453215E+03 -0.36823376336E+03 -0.29541584724E+03  0.50484639338E+03  0.00000000000E+00 0. -1.
         -1    1    6    6    0  503 -0.20207129938E+01 -0.32338448876E+02 -0.24012313995E+01  0.32490375020E+02  0.00000000000E+00 0.  1.
<mgrwt>
<rscale>  0 0.16292522E+04</rscale>
<asrwt>0</asrwt>
<pdfrwt beam="1">  1        1 0.25130297E+00 0.16292522E+04</pdfrwt>
<pdfrwt beam="2">  1       -1 0.62501772E-01 0.16292522E+04</pdfrwt>
<totfact> 0.13153709E+01</totfact>
</mgrwt>
</event>
<event>
12    2  0.3907082E-008  0.2633465E+04  0.7818608E-02  0.8356922E-01
          1   -1    0    0  501    0  0.00000000000E+00  0.00000000000E+00  0.15815322312E+04  0.15815322312E+04  0.00000000000E+00 0. -1.
         -1   -1    0    0    0  501 -0.00000000000E+00 -0.00000000000E+00 -0.10962690203E+04  0.10962690203E+04  0.00000000000E+00 0.  1.
         23    2    1    2    0    0  0.70795356988E+03  0.85579831593E+01  0.11503514358E+04  0.13538418261E+04  0.91146957517E+02 0.  0.
        254    2    1    2    0    0 -0.70795356988E+03 -0.85579831593E+01 -0.66508822497E+03  0.13239594254E+04  0.89958585863E+03 0.  0.
         23    2    4    4    0    0  0.97806661937E+02  0.14645489840E+03  0.77682218612E+02  0.21350509262E+03  0.92383532634E+02 0.  0.
         23    2    4    4    0    0 -0.80576023182E+03 -0.15501288156E+03 -0.74277044358E+03  0.11104543328E+04  0.90124074467E+02 0.  0.
          3    1    3    3  502    0  0.70942162373E+03  0.47644254678E+01  0.11400235641E+04  0.13427417721E+04  0.00000000000E+00 0. -1.
         -3    1    3    3    0  502 -0.14680538514E+01  0.37935576915E+01  0.10327871778E+02  0.11100053943E+02  0.00000000000E+00 0.  1.
         11    1    5    5    0    0  0.67664371045E+02  0.13029373116E+03  0.95298353734E+02  0.17503342456E+03  0.00000000000E+00 0. -1.
        -11    1    5    5    0    0  0.30142290893E+02  0.16161167239E+02 -0.17616135122E+02  0.38471668061E+02  0.00000000000E+00 0.  1.
          2    1    6    6  503    0 -0.47821825092E+03 -0.10279535733E+03 -0.49960133371E+03  0.69918600791E+03  0.00000000000E+00 0. -1.
         -2    1    6    6    0  503 -0.32754198090E+03 -0.52217524234E+02 -0.24316910987E+03  0.41126832492E+03  0.00000000000E+00 0.  1.
<mgrwt>
<rscale>  0 0.26334652E+04</rscale>
<asrwt>0</asrwt>
<pdfrwt beam="1">  1        1 0.24331265E+00 0.26334652E+04</pdfrwt>
<pdfrwt beam="2">  1       -1 0.16865677E+00 0.26334652E+04</pdfrwt>
<totfact> 0.12702964E+00</totfact>
</mgrwt>
</event>
<event>
12    2  0.3518828E-008  0.2934917E+04  0.7818608E-02  0.8262564E-01
         -2   -1    0    0    0  501 -0.00000000000E+00  0.00000000000E+00  0.90724343436E+03  0.90724343436E+03  0.00000000000E+00 0.  1.
          2   -1    0    0  501    0  0.00000000000E+00 -0.00000000000E+00 -0.23736009872E+04  0.23736009872E+04  0.00000000000E+00 0. -1.
         23    2    1    2    0    0  0.72426387410E+03  0.11071215546E+04 -0.77613020170E+03  0.15369013467E+04  0.97012182768E+02 0.  0.
        254    2    1    2    0    0 -0.72426387410E+03 -0.11071215546E+04 -0.69022735116E+03  0.17439430749E+04  0.90257817178E+03 0.  0.
         23    2    4    4    0    0 -0.11611324240E+03 -0.23033299653E+03  0.20936064345E+03  0.34518571764E+03  0.93732205179E+02 0.  0.
         23    2    4    4    0    0 -0.60815063170E+03 -0.87678855804E+03 -0.89958799461E+03  0.13987573572E+04  0.93049545910E+02 0.  0.
          1    1    3    3  502    0  0.68939914318E+03  0.10060672243E+04 -0.71099869366E+03  0.14117229122E+04  0.00000000000E+00 0. -1.
         -1    1    3    3    0  502  0.34864730929E+02  0.10105433027E+03 -0.65131508042E+02  0.12517843452E+03  0.00000000000E+00 0.  1.
         11    1    5    5    0    0  0.17357174336E+01 -0.38887224574E+02  0.14199503737E+01  0.38951831910E+02  0.00000000000E+00 0. -1.
        -11    1    5    5    0    0 -0.11784895984E+03 -0.19144577195E+03  0.20794069308E+03  0.30623388573E+03  0.00000000000E+00 0.  1.
          1    1    6    6  503    0 -0.17755010482E+03 -0.25130737477E+03 -0.31581678148E+03  0.44093046594E+03  0.00000000000E+00 0. -1.
         -1    1    6    6    0  503 -0.43060052689E+03 -0.62548118327E+03 -0.58377121313E+03  0.95782689128E+03  0.00000000000E+00 0.  1.
<mgrwt>
<rscale>  0 0.29349166E+04</rscale>
<asrwt>0</asrwt>
<pdfrwt beam="1">  1        2 0.36516938E+00 0.29349166E+04</pdfrwt>
<pdfrwt beam="2">  1       -2 0.13957591E+00 0.29349166E+04</pdfrwt>
<totfact> 0.12822296E+00</totfact>
</mgrwt>
</event>
<event>
12    2  0.3518828E-008  0.1581962E+04  0.7818608E-02  0.8831706E-01
          2   -1    0    0  501    0  0.00000000000E+00  0.00000000000E+00  0.19546348334E+04  0.19546348334E+04  0.00000000000E+00 0.  1.
         -2   -1    0    0    0  501 -0.00000000000E+00 -0.00000000000E+00 -0.32008601196E+03  0.32008601196E+03  0.00000000000E+00 0. -1.
         23    2    1    2    0    0  0.31502065544E+03 -0.13947292181E+03 -0.19054600199E+02  0.35684601885E+03  0.91023590954E+02 0.  0.
        254    2    1    2    0    0 -0.31502065544E+03  0.13947292181E+03  0.16536034216E+04  0.19178748265E+04  0.90837704992E+03 0.  0.
         23    2    4    4    0    0  0.29475653844E+03  0.16310756533E+03  0.70736001550E+03  0.78870211818E+03  0.90594397650E+02 0.  0.
         23    2    4    4    0    0 -0.60977719388E+03 -0.23634643523E+02  0.94624340613E+03  0.11291727083E+04  0.85250214069E+02 0.  0.
          4    1    3    3  502    0  0.29679367459E+03 -0.10532282369E+03 -0.30705231558E+02  0.31642091225E+03  0.00000000000E+00 0. -1.
         -4    1    3    3    0  502  0.18226980853E+02 -0.34150098121E+02  0.11650631359E+02  0.40425106602E+02  0.00000000000E+00 0.  1.
         11    1    5    5    0    0  0.12995507384E+03  0.88993566440E+02  0.23444680268E+03  0.28244199293E+03  0.00000000000E+00 0.  1.
        -11    1    5    5    0    0  0.16480146460E+03  0.74113998892E+02  0.47291321281E+03  0.50626012525E+03  0.00000000000E+00 0. -1.
          2    1    6    6  503    0 -0.54456353038E+03 -0.16185447189E+02  0.88588532490E+03  0.10400020270E+04  0.00000000000E+00 0.  1.
         -2    1    6    6    0  503 -0.65213663501E+02 -0.74491963336E+01  0.60358081230E+02  0.89170681297E+02  0.00000000000E+00 0. -1.
<mgrwt>
<rscale>  0 0.15819624E+04</rscale>
<asrwt>0</asrwt>
<pdfrwt beam="1">  1        2 0.30071305E+00 0.15819624E+04</pdfrwt>
<pdfrwt beam="2">  1       -2 0.49244003E-01 0.15819624E+04</pdfrwt>
<totfact> 0.26547309E+01</totfact>
</mgrwt>
</event>
<event>
12    2  0.3518828E-008  0.2904586E+04  0.7818608E-02  0.8271514E-01
          2   -1    0    0  501    0  0.00000000000E+00  0.00000000000E+00  0.99425087073E+03  0.99425087073E+03  0.00000000000E+00 0. -1.
         -2   -1    0    0    0  501 -0.00000000000E+00 -0.00000000000E+00 -0.21213510325E+04  0.21213510325E+04  0.00000000000E+00 0.  1.
         23    2    1    2    0    0 -0.65760304876E+03  0.17873191549E+03 -0.17026462777E+04  0.18377039009E+04  0.11732183537E+03 0.  0.
        254    2    1    2    0    0  0.65760304876E+03 -0.17873191549E+03  0.57554611588E+03  0.12778980024E+04  0.91508639244E+03 0.  0.
         23    2    4    4    0    0  0.84071070306E+03  0.29448729920E+02  0.38171777916E+03  0.92772130048E+03  0.85420340055E+02 0.  0.
         23    2    4    4    0    0 -0.18310765430E+03 -0.20818064541E+03  0.19382833672E+03  0.35017670191E+03  0.90480408132E+02 0.  0.
          1    1    3    3  502    0 -0.33066026732E+03  0.10448727623E+03 -0.71399687834E+03  0.79375395782E+03  0.00000000000E+00 0. -1.
         -1    1    3    3    0  502 -0.32694278145E+03  0.74244639259E+02 -0.98864939934E+03  0.10439499431E+04  0.00000000000E+00 0.  1.
         11    1    5    5    0    0  0.34034332765E+03 -0.12784331486E+00  0.19877697922E+03  0.39413942265E+03  0.00000000000E+00 0.  1.
        -11    1    5    5    0    0  0.50036737541E+03  0.29576573234E+02  0.18294079994E+03  0.53358187783E+03  0.00000000000E+00 0. -1.
          4    1    6    6  503    0 -0.73610734145E+02 -0.13057329775E+03  0.14148176706E+03  0.20611893818E+03  0.00000000000E+00 0. -1.
         -4    1    6    6    0  503 -0.10949692015E+03 -0.77607347659E+02  0.52346569661E+02  0.14405776372E+03  0.00000000000E+00 0.  1.
<mgrwt>
<rscale>  0 0.29045861E+04</rscale>
<asrwt>0</asrwt>
<pdfrwt beam="1">  1        2 0.15296167E+00 0.29045861E+04</pdfrwt>
<pdfrwt beam="2">  1       -2 0.32636169E+00 0.29045861E+04</pdfrwt>
<totfact> 0.47923326E-01</totfact>
</mgrwt>
</event>
<event>
12    2  0.3518828E-008  0.1671597E+04  0.7818608E-02  0.8777731E-01
         -1   -1    0    0    0  501 -0.00000000000E+00  0.00000000000E+00  0.97760693826E+03  0.97760693826E+03  0.00000000000E+00 0.  1.
          1   -1    0    0  501    0  0.00000000000E+00 -0.00000000000E+00 -0.71456037296E+03  0.71456037296E+03  0.00000000000E+00 0. -1.
         23    2    1    2    0    0 -0.10597991665E+01  0.34505128242E+03 -0.37357646623E+03  0.51653533354E+03  0.90486816740E+02 0.  0.
        254    2    1    2    0    0  0.10597991665E+01 -0.34505128242E+03  0.63662303152E+03  0.11756319777E+04  0.92615341709E+03 0.  0.
         23    2    4    4    0    0  0.16942927078E+03 -0.18493281585E+01 -0.18384602261E+03  0.26584798790E+03  0.90366447476E+02 0.  0.
         23    2    4    4    0    0 -0.16836947161E+03 -0.34320195426E+03  0.82046905414E+03  0.90978398977E+03  0.91660126911E+02 0.  0.
          1    1    3    3  502    0  0.91288434434E+01  0.33236929910E+03 -0.32357531877E+03  0.46395438750E+03  0.00000000000E+00 0. -1.
         -1    1    3    3    0  502 -0.10188642610E+02  0.12681983324E+02 -0.50001147465E+02  0.52580946046E+02  0.00000000000E+00 0.  1.
         11    1    5    5    0    0  0.31593048490E+02 -0.32096344201E+02 -0.19080887523E+02  0.48911923829E+02  0.00000000000E+00 0.  1.
        -11    1    5    5    0    0  0.13783622229E+03  0.30247016042E+02 -0.16476513509E+03  0.21693606407E+03  0.00000000000E+00 0. -1.
          1    1    6    6  503    0 -0.16647908366E+03 -0.29052463809E+03  0.64741176619E+03  0.72887711285E+03  0.00000000000E+00 0. -1.
         -1    1    6    6    0  503 -0.18903879536E+01 -0.52677316166E+02  0.17305728795E+03  0.18090687692E+03  0.00000000000E+00 0.  1.
<mgrwt>
<rscale>  0 0.16715971E+04</rscale>
<asrwt>0</asrwt>
<pdfrwt beam="1">  1        1 0.10993237E+00 0.16715971E+04</pdfrwt>
<pdfrwt beam="2">  1       -1 0.15040107E+00 0.16715971E+04</pdfrwt>
<totfact> 0.87235099E+00</totfact>
</mgrwt>
</event>
<event>
12    2  0.3518828E-008  0.1506164E+04  0.7818608E-02  0.8880364E-01
         -2   -1    0    0    0  501 -0.00000000000E+00  0.00000000000E+00  0.12516953905E+04  0.12516953905E+04  0.00000000000E+00 0. -1.
          2   -1    0    0  501    0  0.00000000000E+00 -0.00000000000E+00 -0.45309125737E+03  0.45309125737E+03  0.00000000000E+00 0.  1.
         23    2    1    2    0    0  0.16367208956E+03  0.13596037997E+03  0.73793692703E+03  0.77343649795E+03  0.91538681782E+02 0.  0.
        254    2    1    2    0    0 -0.16367208956E+03 -0.13596037997E+03  0.60667206077E+02  0.93135014991E+03  0.90468713598E+03 0.  0.
         23    2    4    4    0    0  0.30323650098E+03  0.17419699092E+03  0.39151371944E+02  0.36288554078E+03  0.88634748339E+02 0.  0.
         23    2    4    4    0    0 -0.46690859054E+03 -0.31015737089E+03  0.21515834132E+02  0.56846460912E+03  0.92129550454E+02 0.  0.
          4    1    3    3  502    0  0.15027701000E+03  0.14380845859E+03  0.60841473297E+03  0.64298720033E+03  0.00000000000E+00 0. -1.
         -4    1    3    3    0  502  0.13395079559E+02 -0.78480786191E+01  0.12952219406E+03  0.13044929762E+03  0.00000000000E+00 0.  1.
         11    1    5    5    0    0  0.24112283048E+03  0.14032535641E+03 -0.58377722220E+01  0.27904391162E+03  0.00000000000E+00 0.  1.
        -11    1    5    5    0    0  0.62113670504E+02  0.33871634507E+02  0.44989144166E+02  0.83841629162E+02  0.00000000000E+00 0. -1.
          1    1    6    6  503    0 -0.82882702352E+02 -0.22654968832E+02  0.22188251058E+02  0.88741807773E+02  0.00000000000E+00 0. -1.
         -1    1    6    6    0  503 -0.38402588819E+03 -0.28750240206E+03 -0.67241692515E+00  0.47972280135E+03  0.00000000000E+00 0.  1.
<mgrwt>
<rscale>  0 0.15061637E+04</rscale>
<asrwt>0</asrwt>
<pdfrwt beam="1">  1        2 0.69706348E-01 0.15061637E+04</pdfrwt>
<pdfrwt beam="2">  1       -2 0.19256852E+00 0.15061637E+04</pdfrwt>
<totfact> 0.99173636E+00</totfact>
</mgrwt>
</event>
<event>
12    2  0.3518828E-008  0.1613006E+04  0.7818608E-02  0.8812598E-01
          2   -1    0    0  501    0  0.00000000000E+00  0.00000000000E+00  0.73711659487E+03  0.73711659487E+03  0.00000000000E+00 0. -1.
         -2   -1    0    0    0  501 -0.00000000000E+00 -0.00000000000E+00 -0.88242084378E+03  0.88242084378E+03  0.00000000000E+00 0.  1.
         23    2    1    2    0    0  0.51085852259E+03  0.42378463366E+01  0.14918548485E+03  0.53987821693E+03  0.90652031296E+02 0.  0.
        254    2    1    2    0    0 -0.51085852259E+03 -0.42378463366E+01 -0.29448973376E+03  0.10796592217E+04  0.90440336262E+03 0.  0.
         23    2    4    4    0    0  0.27503829586E+02 -0.47357782874E+02 -0.48695714201E+03  0.49908715697E+03  0.94665262125E+02 0.  0.
         23    2    4    4    0    0 -0.53836235218E+03  0.43119936537E+02  0.19246740826E+03  0.58057206475E+03  0.91251673737E+02 0.  0.
          4    1    3    3  502    0  0.36677476565E+03  0.43752772867E+02  0.10198910946E+03  0.38319683232E+03  0.00000000000E+00 0. -1.
         -4    1    3    3    0  502  0.14408375694E+03 -0.39514926531E+02  0.47196375386E+02  0.15668138461E+03  0.00000000000E+00 0.  1.
         11    1    5    5    0    0 -0.35078216750E+02 -0.14191770893E+02 -0.14367842981E+03  0.14857785449E+03  0.00000000000E+00 0.  1.
        -11    1    5    5    0    0  0.62582046336E+02 -0.33166011981E+02 -0.34327871220E+03  0.35050930248E+03  0.00000000000E+00 0. -1.
          1    1    6    6  503    0 -0.48961513534E+03  0.42175392914E+02  0.14463524265E+03  0.51227053198E+03  0.00000000000E+00 0. -1.
         -1    1    6    6    0  503 -0.48747216840E+02  0.94454362298E+00  0.47832165606E+02  0.68301532771E+02  0.00000000000E+00 0.  1.
<mgrwt>
<rscale>  0 0.16130059E+04</rscale>
<asrwt>0</asrwt>
<pdfrwt beam="1">  1        2 0.11340255E+00 0.16130059E+04</pdfrwt>
<pdfrwt beam="2">  1       -2 0.13575705E+00 0.16130059E+04</pdfrwt>
<totfact> 0.14283514E+01</totfact>
</mgrwt>
</event>
<event>
12    2  0.3518828E-008  0.2703655E+04  0.7818608E-02  0.8333820E-01
          2   -1    0    0  501    0  0.00000000000E+00  0.00000000000E+00  0.20149809273E+04  0.20149809273E+04  0.00000000000E+00 0. -1.
         -2   -1    0    0    0  501 -0.00000000000E+00 -0.00000000000E+00 -0.90692523111E+03  0.90692523111E+03  0.00000000000E+00 0.  1.
         23    2    1    2    0    0  0.26311464005E+03  0.69749073722E+03 -0.52919507227E+03  0.91908592753E+03  0.94598495577E+02 0.  0.
        254    2    1    2    0    0 -0.26311464005E+03 -0.69749073722E+03  0.16372507685E+04  0.20028202309E+04  0.88032730055E+03 0.  0.
         23    2    4    4    0    0 -0.11907806089E+02 -0.46130011496E+03  0.15719012438E+04  0.16407452737E+04  0.90730044037E+02 0.  0.
         23    2    4    4    0    0 -0.25120683396E+03 -0.23619062226E+03  0.65349524640E+02  0.36207495720E+03  0.89088892600E+02 0.  0.
          4    1    3    3  502    0 -0.74754437282E-02  0.45608796581E+02 -0.53395683226E+02  0.70222940473E+02  0.00000000000E+00 0. -1.
         -4    1    3    3    0  502  0.26312211550E+03  0.65188194064E+03 -0.47579938904E+03  0.84886298706E+03  0.00000000000E+00 0.  1.
         11    1    5    5    0    0 -0.75865693947E+01 -0.53494893748E+02  0.10340113529E+03  0.11666642393E+03  0.00000000000E+00 0.  1.
        -11    1    5    5    0    0 -0.43212366943E+01 -0.40780522121E+03  0.14685001085E+04  0.15240788498E+04  0.00000000000E+00 0. -1.
          1    1    6    6  503    0 -0.22161207564E+03 -0.21052279456E+03  0.86346222146E+02  0.31762781550E+03  0.00000000000E+00 0. -1.
         -1    1    6    6    0  503 -0.29594758320E+02 -0.25667827700E+02 -0.20996697506E+02  0.44447141696E+02  0.00000000000E+00 0.  1.
<mgrwt>
<rscale>  0 0.27036546E+04</rscale>
<asrwt>0</asrwt>
<pdfrwt beam="1">  1        2 0.30999706E+00 0.27036546E+04</pdfrwt>
<pdfrwt beam="2">  1       -2 0.13952696E+00 0.27036546E+04</pdfrwt>
<totfact> 0.20828742E+00</totfact>
</mgrwt>
</event>
<event>
12    2  0.3518828E-008  0.2000878E+04  0.7818608E-02  0.8606210E-01
         -1   -1    0    0    0  501 -0.00000000000E+00  0.00000000000E+00  0.39390978722E+03  0.39390978722E+03  0.00000000000E+00 0.  1.
          1   -1    0    0  501    0  0.00000000000E+00 -0.00000000000E+00 -0.25408817754E+04  0.25408817754E+04  0.00000000000E+00 0. -1.
         23    2    1    2    0    0  0.22464832965E+03 -0.58672653747E+02 -0.19753608764E+04  0.19910685934E+04  0.91619862996E+02 0.  0.
        254    2    1    2    0    0 -0.22464832965E+03  0.58672653747E+02 -0.17161111179E+03  0.94372296924E+03  0.89847276902E+03 0.  0.
         23    2    4    4    0    0  0.34153950287E+03  0.25590583360E+02 -0.61951652569E+02  0.36002097383E+03  0.92048815133E+02 0.  0.
         23    2    4    4    0    0 -0.56618783252E+03  0.33082070387E+02 -0.10965945922E+03  0.58370199541E+03  0.83783872986E+02 0.  0.
          1    1    3    3  502    0  0.26373827415E+02 -0.28417363565E+02 -0.58896140827E+03  0.59023611018E+03  0.00000000000E+00 0.  1.
         -1    1    3    3    0  502  0.19827450224E+03 -0.30255290182E+02 -0.13863994681E+04  0.14008324832E+04  0.00000000000E+00 0. -1.
         11    1    5    5    0    0  0.31103075383E+03  0.92005565637E+01 -0.79548884063E+02  0.32117410391E+03  0.00000000000E+00 0.  1.
        -11    1    5    5    0    0  0.30508749041E+02  0.16390026796E+02  0.17597231495E+02  0.38846869922E+02  0.00000000000E+00 0. -1.
          1    1    6    6  503    0 -0.26479962350E+03 -0.18212843516E+02 -0.25734902051E+02  0.26666989605E+03  0.00000000000E+00 0. -1.
         -1    1    6    6    0  503 -0.30138820902E+03  0.51294913903E+02 -0.83924557174E+02  0.31703209936E+03  0.00000000000E+00 0.  1.
<mgrwt>
<rscale>  0 0.20008780E+04</rscale>
<asrwt>0</asrwt>
<pdfrwt beam="1">  1        1 0.39090489E+00 0.20008780E+04</pdfrwt>
<pdfrwt beam="2">  1       -1 0.60601506E-01 0.20008780E+04</pdfrwt>
<totfact> 0.32518898E+00</totfact>
</mgrwt>
</event>
<event>
12    2  0.3518828E-008  0.1546571E+04  0.7818608E-02  0.8854061E-01
          1   -1    0    0  501    0  0.00000000000E+00  0.00000000000E+00  0.81494870039E+03  0.81494870039E+03  0.00000000000E+00 0. -1.
         -1   -1    0    0    0  501 -0.00000000000E+00 -0.00000000000E+00 -0.73375262708E+03  0.73375262708E+03  0.00000000000E+00 0.  1.
         23    2    1    2    0    0  0.41263157190E+02 -0.41747779347E+03 -0.26666139457E+03  0.50551721448E+03  0.91918434501E+02 0.  0.
        254    2    1    2    0    0 -0.41263157190E+02  0.41747779347E+03  0.34785746789E+03  0.10431841130E+04  0.88951555323E+03 0.  0.
         23    2    4    4    0    0  0.26978138642E+03  0.53157904961E+03  0.82606421352E+02  0.60875814894E+03  0.91675408961E+02 0.  0.
         23    2    4    4    0    0 -0.31104454361E+03 -0.11410125614E+03  0.26525104653E+03  0.43442596404E+03  0.92736162222E+02 0.  0.
          3    1    3    3  502    0 -0.73647270661E+01 -0.53857241216E+02 -0.71992156820E+02  0.90209269367E+02  0.00000000000E+00 0. -1.
         -3    1    3    3    0  502  0.48627884256E+02 -0.36362055226E+03 -0.19466923775E+03  0.41530794512E+03  0.00000000000E+00 0.  1.
         11    1    5    5    0    0  0.86242598844E+01  0.31887239794E+02  0.26123539323E+02  0.42114287682E+02  0.00000000000E+00 0. -1.
        -11    1    5    5    0    0  0.26115712654E+03  0.49969180982E+03  0.56482882029E+02  0.56664386126E+03  0.00000000000E+00 0.  1.
          1    1    6    6  503    0 -0.60431409322E+02 -0.30972341211E+02  0.10658883543E+03  0.12638204378E+03  0.00000000000E+00 0. -1.
         -1    1    6    6    0  503 -0.25061313429E+03 -0.83128914928E+02  0.15866221110E+03  0.30804392026E+03  0.00000000000E+00 0.  1.
<mgrwt>
<rscale>  0 0.15465714E+04</rscale>
<asrwt>0</asrwt>
<pdfrwt beam="1">  1        1 0.12537672E+00 0.15465714E+04</pdfrwt>
<pdfrwt beam="2">  1       -1 0.11288502E+00 0.15465714E+04</pdfrwt>
<totfact> 0.14844437E+01</totfact>
</mgrwt>
</event>
<event>
12    2  0.3518828E-008  0.1555912E+04  0.7818608E-02  0.8848100E-01
         -1   -1    0    0    0  501 -0.00000000000E+00  0.00000000000E+00  0.36463545002E+03  0.36463545002E+03  0.00000000000E+00 0.  1.
          1   -1    0    0  501    0  0.00000000000E+00 -0.00000000000E+00 -0.16597826311E+04  0.16597826311E+04  0.00000000000E+00 0. -1.
         23    2    1    2    0    0 -0.52902615402E+01  0.49185454385E+03 -0.24247610247E+03  0.55502617979E+03  0.85501583648E+02 0.  0.
        254    2    1    2    0    0  0.52902615402E+01 -0.49185454385E+03 -0.10526710786E+04  0.14693919013E+04  0.89947055582E+03 0.  0.
         23    2    4    4    0    0 -0.41020255980E+02  0.10815557335E+03 -0.79474141425E+03  0.80803106704E+03  0.88994383733E+02 0.  0.
         23    2    4    4    0    0  0.46310517521E+02 -0.60001011720E+03 -0.25792966435E+03  0.66136083428E+03  0.93346861725E+02 0.  0.
          1    1    3    3  502    0 -0.22542413069E+02  0.10802632475E+03 -0.87088561363E+02  0.14057832246E+03  0.00000000000E+00 0. -1.
         -1    1    3    3    0  502  0.17252151529E+02  0.38382821910E+03 -0.15538754110E+03  0.41444785732E+03  0.00000000000E+00 0.  1.
         11    1    5    5    0    0  0.14298689847E+02  0.76782793945E+02 -0.53200110280E+03  0.53770365756E+03  0.00000000000E+00 0. -1.
        -11    1    5    5    0    0 -0.55318945827E+02  0.31372779405E+02 -0.26274031145E+03  0.27032740948E+03  0.00000000000E+00 0.  1.
          4    1    6    6  503    0  0.13740865545E+02 -0.52970148319E+03 -0.20834734568E+03  0.56936902720E+03  0.00000000000E+00 0. -1.
         -4    1    6    6    0  503  0.32569651975E+02 -0.70308634012E+02 -0.49582318662E+02  0.91991807083E+02  0.00000000000E+00 0.  1.
<mgrwt>
<rscale>  0 0.15559121E+04</rscale>
<asrwt>0</asrwt>
<pdfrwt beam="1">  1        1 0.25535117E+00 0.15559121E+04</pdfrwt>
<pdfrwt beam="2">  1       -1 0.56097762E-01 0.15559121E+04</pdfrwt>
<totfact> 0.15719470E+01</totfact>
</mgrwt>
</event>
<event>
12    2  0.3518828E-008  0.2565839E+04  0.7818608E-02  0.8379898E-01
         -2   -1    0    0    0  501 -0.00000000000E+00  0.00000000000E+00  0.16358324570E+04  0.16358324570E+04  0.00000000000E+00 0.  1.
          2   -1    0    0  501    0  0.00000000000E+00 -0.00000000000E+00 -0.10061433631E+04  0.10061433631E+04  0.00000000000E+00 0. -1.
         23    2    1    2    0    0 -0.96414324299E+03  0.19481996622E+03 -0.28588189359E+03  0.10282958773E+04  0.90204999425E+02 0.  0.
        254    2    1    2    0    0  0.96414324299E+03 -0.19481996622E+03  0.91557098752E+03  0.16136799428E+04  0.89340120455E+03 0.  0.
         23    2    4    4    0    0  0.59939406840E+03 -0.21026213296E+03  0.19683557708E+02  0.64207171156E+03  0.91570882669E+02 0.  0.
         23    2    4    4    0    0  0.36474917460E+03  0.15442166740E+02  0.89588742981E+03  0.97160823122E+03  0.90154573933E+02 0.  0.
          2    1    3    3  502    0 -0.75355925239E+03  0.11494250361E+03 -0.21078549008E+03  0.79088169079E+03  0.00000000000E+00 0. -1.
         -2    1    3    3    0  502 -0.21058399061E+03  0.79877462610E+02 -0.75096403509E+02  0.23741418650E+03  0.00000000000E+00 0.  1.
         11    1    5    5    0    0  0.77194734348E+02 -0.54842355379E+02 -0.16139174988E+02  0.96058231942E+02  0.00000000000E+00 0. -1.
        -11    1    5    5    0    0  0.52219933405E+03 -0.15541977758E+03  0.35822732696E+02  0.54601347961E+03  0.00000000000E+00 0.  1.
          1    1    6    6  503    0  0.99564502771E+02 -0.20004147326E+02  0.17047484728E+03  0.19843117114E+03  0.00000000000E+00 0. -1.
         -1    1    6    6    0  503  0.26518467183E+03  0.35446314066E+02  0.72541258253E+03  0.77317706009E+03  0.00000000000E+00 0.  1.
<mgrwt>
<rscale>  0 0.25658386E+04</rscale>
<asrwt>0</asrwt>
<pdfrwt beam="1">  1        2 0.15479129E+00 0.25658386E+04</pdfrwt>
<pdfrwt beam="2">  1       -2 0.25166653E+00 0.25658386E+04</pdfrwt>
<totfact> 0.13895102E+00</totfact>
</mgrwt>
</event>
<event>
12    2  0.3518828E-008  0.2196880E+04  0.7818608E-02  0.8519728E-01
         -1   -1    0    0    0  501 -0.00000000000E+00  0.00000000000E+00  0.25712744923E+04  0.25712744923E+04  0.00000000000E+00 0.  1.
          1   -1    0    0  501    0  0.00000000000E+00 -0.00000000000E+00 -0.46924993245E+03  0.46924993245E+03  0.00000000000E+00 0. -1.
         23    2    1    2    0    0  0.58716161232E+03 -0.22475632929E+03 -0.39083423462E+02  0.63638871391E+03  0.90492622177E+02 0.  0.
        254    2    1    2    0    0 -0.58716161232E+03  0.22475632929E+03  0.21411079834E+04  0.24041357109E+04  0.89456746723E+03 0.  0.
         23    2    4    4    0    0 -0.14110320071E+03  0.19401120002E+03  0.18371923041E+04  0.18550547105E+04  0.91662195117E+02 0.  0.
         23    2    4    4    0    0 -0.44605841161E+03  0.30745129265E+02  0.30391567930E+03  0.54908100035E+03  0.95978306277E+02 0.  0.
          3    1    3    3  502    0  0.20695553851E+03 -0.98265950829E+02  0.25528285087E+02  0.23051786341E+03  0.00000000000E+00 0. -1.
         -3    1    3    3    0  502  0.38020607381E+03 -0.12649037846E+03 -0.64611708550E+02  0.40587085050E+03  0.00000000000E+00 0.  1.
         11    1    5    5    0    0 -0.34383096368E+02  0.30902429236E+02  0.15911425635E+03  0.16569400720E+03  0.00000000000E+00 0.  1.
        -11    1    5    5    0    0 -0.10672010434E+03  0.16310877078E+03  0.16780780477E+04  0.16893607033E+04  0.00000000000E+00 0. -1.
          4    1    6    6  503    0 -0.24219952950E+03  0.50345430321E+02  0.12513319339E+03  0.27722480144E+03  0.00000000000E+00 0. -1.
         -4    1    6    6    0  503 -0.20385888211E+03 -0.19600301055E+02  0.17878248591E+03  0.27185619891E+03  0.00000000000E+00 0.  1.
<mgrwt>
<rscale>  0 0.21968800E+04</rscale>
<asrwt>0</asrwt>
<pdfrwt beam="1">  1        1 0.72192299E-01 0.21968800E+04</pdfrwt>
<pdfrwt beam="2">  1       -1 0.39558068E+00 0.21968800E+04</pdfrwt>
<totfact> 0.33856503E-01</totfact>
</mgrwt>
</event>
<event>
12    2  0.3518828E-008  0.2052505E+04  0.7818608E-02  0.8582459E-01
         -2   -1    0    0    0  501 -0.00000000000E+00  0.00000000000E+00  0.14679197168E+04  0.14679197168E+04  0.00000000000E+00 0.  1.
          2   -1    0    0  501    0  0.00000000000E+00 -0.00000000000E+00 -0.71747430745E+03  0.71747430745E+03  0.00000000000E+00 0. -1.
         23    2    1    2    0    0 -0.27679994795E+03 -0.43400631987E+03 -0.37365408742E+03  0.64239149465E+03  0.89831834461E+02 0.  0.
        254    2    1    2    0    0  0.27679994795E+03  0.43400631987E+03  0.11240994968E+04  0.15430025296E+04  0.92318872984E+03 0.  0.
         23    2    4    4    0    0  0.58571101284E+02  0.59048649345E+03  0.11062791115E+04  0.12586747773E+04  0.91125461210E+02 0.  0.
         23    2    4    4    0    0  0.21822884667E+03 -0.15648017358E+03  0.17820385326E+02  0.28432775234E+03  0.91732384549E+02 0.  0.
          3    1    3    3  502    0 -0.94860433781E+02 -0.23115032333E+03 -0.18739526443E+03  0.31232348455E+03  0.00000000000E+00 0. -1.
         -3    1    3    3    0  502 -0.18193951417E+03 -0.20285599654E+03 -0.18625882299E+03  0.33006801010E+03  0.00000000000E+00 0.  1.
         11    1    5    5    0    0 -0.23176419731E+02  0.20339010556E+03  0.37678151403E+03  0.42879947619E+03  0.00000000000E+00 0. -1.
        -11    1    5    5    0    0  0.81747521015E+02  0.38709638788E+03  0.72949759746E+03  0.82987530111E+03  0.00000000000E+00 0.  1.
          3    1    6    6  503    0  0.14060159854E+03 -0.88408706157E+02  0.54437453632E+02  0.17478084905E+03  0.00000000000E+00 0. -1.
         -3    1    6    6    0  503  0.77627248127E+02 -0.68071467419E+02 -0.36617068306E+02  0.10954690329E+03  0.00000000000E+00 0.  1.
<mgrwt>
<rscale>  0 0.20525055E+04</rscale>
<asrwt>0</asrwt>
<pdfrwt beam="1">  1        2 0.11038066E+00 0.20525055E+04</pdfrwt>
<pdfrwt beam="2">  1       -2 0.22583380E+00 0.20525055E+04</pdfrwt>
<totfact> 0.33338289E+00</totfact>
</mgrwt>
</event>
<event>
12    2  0.3518828E-008  0.2830138E+04  0.7818608E-02  0.8293972E-01
         -2   -1    0    0    0  501 -0.00000000000E+00  0.00000000000E+00  0.13056732547E+04  0.13056732547E+04  0.00000000000E+00 0.  1.
          2   -1    0    0  501    0  0.00000000000E+00 -0.00000000000E+00 -0.15336309911E+04  0.15336309911E+04  0.00000000000E+00 0. -1.
         23    2    1    2    0    0 -0.72690542331E+03  0.15674282783E+03  0.93309643784E+03  0.11966177400E+04  0.90913391959E+02 0.  0.
        254    2    1    2    0    0  0.72690542331E+03 -0.15674282783E+03 -0.11610541742E+04  0.16426865058E+04  0.89297948026E+03 0.  0.
         23    2    4    4    0    0  0.15485089508E+03 -0.41611474316E+03 -0.21183111612E+03  0.50076739377E+03  0.93623083253E+02 0.  0.
         23    2    4    4    0    0  0.57205452822E+03  0.25937191533E+03 -0.94922305812E+03  0.11419191120E+04  0.91840462433E+02 0.  0.
          1    1    3    3  502    0 -0.18397009302E+03  0.73556401870E+02  0.21229169375E+03  0.29038474928E+03  0.00000000000E+00 0. -1.
         -1    1    3    3    0  502 -0.54293533028E+03  0.83186425963E+02  0.72080474410E+03  0.90623299071E+03  0.00000000000E+00 0.  1.
         11    1    5    5    0    0  0.11856329462E+03 -0.39273529221E+03 -0.18576470118E+03  0.45034074742E+03  0.00000000000E+00 0.  1.
        -11    1    5    5    0    0  0.36287600461E+02 -0.23379450947E+02 -0.26066414944E+02  0.50426646347E+02  0.00000000000E+00 0. -1.
          2    1    6    6  503    0  0.37301343542E+03  0.21224756049E+03 -0.67330235551E+03  0.79845107043E+03  0.00000000000E+00 0. -1.
         -2    1    6    6    0  503  0.19904109281E+03  0.47124354841E+02 -0.27592070261E+03  0.34346804156E+03  0.00000000000E+00 0.  1.
<mgrwt>
<rscale>  0 0.28301385E+04</rscale>
<asrwt>0</asrwt>
<pdfrwt beam="1">  1        2 0.23594323E+00 0.28301385E+04</pdfrwt>
<pdfrwt beam="2">  1       -2 0.20087281E+00 0.28301385E+04</pdfrwt>
<totfact> 0.13845584E+00</totfact>
</mgrwt>
</event>
<event>
12    2  0.3518828E-008  0.2318688E+04  0.7818608E-02  0.8470589E-01
          2   -1    0    0  501    0  0.00000000000E+00  0.00000000000E+00  0.22784558856E+04  0.22784558856E+04  0.00000000000E+00 0. -1.
         -2   -1    0    0    0  501 -0.00000000000E+00 -0.00000000000E+00 -0.58990774599E+03  0.58990774599E+03  0.00000000000E+00 0.  1.
         23    2    1    2    0    0  0.50564691515E+03  0.51148698344E+03 -0.12999229192E+03  0.73651626364E+03  0.90887147746E+02 0.  0.
        254    2    1    2    0    0 -0.50564691515E+03 -0.51148698344E+03  0.18185404316E+04  0.21318473680E+04  0.84875565513E+03 0.  0.
         23    2    4    4    0    0 -0.64647886253E+03 -0.59455943587E+03  0.16836707982E+04  0.19011136402E+04  0.89721088838E+02 0.  0.
         23    2    4    4    0    0  0.14083194738E+03  0.83072452431E+02  0.13486963340E+03  0.23073372781E+03  0.91178755088E+02 0.  0.
          2    1    3    3  502    0  0.22108570520E+03  0.19392151858E+03 -0.13084250179E+02  0.29437330384E+03  0.00000000000E+00 0.  1.
         -2    1    3    3    0  502  0.28456120995E+03  0.31756546486E+03 -0.11690804174E+03  0.44214295980E+03  0.00000000000E+00 0. -1.
         11    1    5    5    0    0 -0.17330031576E+03 -0.19855066191E+03  0.56871166909E+03  0.62680804665E+03  0.00000000000E+00 0. -1.
        -11    1    5    5    0    0 -0.47317854677E+03 -0.39600877396E+03  0.11149591291E+04  0.12743055935E+04  0.00000000000E+00 0.  1.
          3    1    6    6  503    0  0.57339450483E+02  0.45496415930E+02  0.70920005957E+01  0.73539329046E+02  0.00000000000E+00 0. -1.
         -3    1    6    6    0  503  0.83492496900E+02  0.37576036500E+02  0.12777763280E+03  0.15719439876E+03  0.00000000000E+00 0.  1.
<mgrwt>
<rscale>  0 0.23186882E+04</rscale>
<asrwt>0</asrwt>
<pdfrwt beam="1">  1        2 0.35053167E+00 0.23186882E+04</pdfrwt>
<pdfrwt beam="2">  1       -2 0.90755039E-01 0.23186882E+04</pdfrwt>
<totfact> 0.43749584E+00</totfact>
</mgrwt>
</event>
<event>
12    2  0.3518828E-008  0.2141870E+04  0.7818608E-02  0.8543020E-01
         -2   -1    0    0    0  501 -0.00000000000E+00  0.00000000000E+00  0.60837762088E+03  0.60837762088E+03  0.00000000000E+00 0.  1.
          2   -1    0    0  501    0  0.00000000000E+00 -0.00000000000E+00 -0.18851815850E+04  0.18851815850E+04  0.00000000000E+00 0. -1.
         23    2    1    2    0    0 -0.15633576014E+03  0.45198484479E+03  0.33538652903E+03  0.59111879848E+03  0.90587748870E+02 0.  0.
        254    2    1    2    0    0  0.15633576014E+03 -0.45198484479E+03 -0.16121904932E+04  0.19024404074E+04  0.88960111718E+03 0.  0.
         23    2    4    4    0    0 -0.17735047342E+03 -0.60006578431E+03 -0.10595840726E+04  0.12338416782E+04  0.90081873592E+02 0.  0.
         23    2    4    4    0    0  0.33368623356E+03  0.14808093952E+03 -0.55260642055E+03  0.66859872923E+03  0.91520148525E+02 0.  0.
          4    1    3    3  502    0  0.95343781100E+01  0.44481048403E+02  0.19499034977E+02  0.49494246111E+02  0.00000000000E+00 0. -1.
         -4    1    3    3    0  502 -0.16587013825E+03  0.40750379639E+03  0.31588749405E+03  0.54162455237E+03  0.00000000000E+00 0.  1.
         11    1    5    5    0    0 -0.17023450019E+03 -0.55510147797E+03 -0.92866366676E+03  0.10952322319E+04  0.00000000000E+00 0.  1.
        -11    1    5    5    0    0 -0.71159732273E+01 -0.44964306339E+02 -0.13092040587E+03  0.13860944626E+03  0.00000000000E+00 0. -1.
          2    1    6    6  503    0  0.94483214749E+02 -0.68022957128E+00 -0.12969462572E+03  0.16046257047E+03  0.00000000000E+00 0. -1.
         -2    1    6    6    0  503  0.23920301881E+03  0.14876116909E+03 -0.42291179483E+03  0.50813615877E+03  0.00000000000E+00 0.  1.
<mgrwt>
<rscale>  0 0.21418705E+04</rscale>
<asrwt>0</asrwt>
<pdfrwt beam="1">  1        2 0.29002793E+00 0.21418705E+04</pdfrwt>
<pdfrwt beam="2">  1       -2 0.93596558E-01 0.21418705E+04</pdfrwt>
<totfact> 0.68579215E+00</totfact>
</mgrwt>
</event>
<event>
12    2  0.3518828E-008  0.1370243E+04  0.7818608E-02  0.8975644E-01
          2   -1    0    0  501    0  0.00000000000E+00  0.00000000000E+00  0.10075701269E+04  0.10075701269E+04  0.00000000000E+00 0. -1.
         -2   -1    0    0    0  501 -0.00000000000E+00 -0.00000000000E+00 -0.46586491124E+03  0.46586491124E+03  0.00000000000E+00 0.  1.
         23    2    1    2    0    0 -0.24130135830E+03  0.24336191461E+03  0.34057569730E+03  0.49181026895E+03  0.91837726734E+02 0.  0.
        254    2    1    2    0    0  0.24130135830E+03 -0.24336191461E+03  0.20112951836E+03  0.98162476919E+03  0.89759831625E+03 0.  0.
         23    2    4    4    0    0  0.23187412687E+02 -0.18342084260E+03 -0.33466944018E+03  0.39307646167E+03  0.91239294832E+02 0.  0.
         23    2    4    4    0    0  0.21811394562E+03 -0.59941072005E+02  0.53579895854E+03  0.58854830752E+03  0.90232815114E+02 0.  0.
          2    1    3    3  502    0 -0.16103694076E+03  0.18363969317E+03  0.29173070077E+03  0.38047764056E+03  0.00000000000E+00 0. -1.
         -2    1    3    3    0  502 -0.80264417546E+02  0.59722221437E+02  0.48844996529E+02  0.11133262839E+03  0.00000000000E+00 0.  1.
         11    1    5    5    0    0 -0.19620740296E+02 -0.10696966682E+03 -0.24321412041E+03  0.26642182988E+03  0.00000000000E+00 0.  1.
        -11    1    5    5    0    0  0.42808152983E+02 -0.76451175782E+02 -0.91455319774E+02  0.12665463180E+03  0.00000000000E+00 0. -1.
          4    1    6    6  503    0  0.91687761978E+00  0.22970938748E+01 -0.32382870832E+01  0.40747770580E+01  0.00000000000E+00 0. -1.
         -4    1    6    6    0  503  0.21719706800E+03 -0.62238165880E+02  0.53903724562E+03  0.58447353046E+03  0.00000000000E+00 0.  1.
<mgrwt>
<rscale>  0 0.13702431E+04</rscale>
<asrwt>0</asrwt>
<pdfrwt beam="1">  1        2 0.15501079E+00 0.13702431E+04</pdfrwt>
<pdfrwt beam="2">  1       -2 0.71671525E-01 0.13702431E+04</pdfrwt>
<totfact> 0.42895225E+01</totfact>
</mgrwt>
</event>
<event>
12    2  0.3518828E-008  0.1634724E+04  0.7818608E-02  0.8799495E-01
         -2   -1    0    0    0  501 -0.00000000000E+00  0.00000000000E+00  0.94910916483E+03  0.94910916483E+03  0.00000000000E+00 0.  1.
          2   -1    0    0  501    0  0.00000000000E+00 -0.00000000000E+00 -0.70390245165E+03  0.70390245165E+03  0.00000000000E+00 0. -1.
         23    2    1    2    0    0 -0.53961444003E+03 -0.15880842987E+03  0.64614486623E+02  0.57355620859E+03  0.91585103833E+02 0.  0.
        254    2    1    2    0    0  0.53961444003E+03  0.15880842987E+03  0.18059222656E+03  0.10794554079E+04  0.90344151115E+03 0.  0.
         23    2    4    4    0    0  0.70558485880E+03  0.30543791267E+03  0.27459035090E+03  0.82252191027E+03  0.10000060297E+03 0.  0.
         23    2    4    4    0    0 -0.16597041878E+03 -0.14662948280E+03 -0.93998124349E+02  0.25693349763E+03  0.90181980950E+02 0.  0.
          3    1    3    3  502    0 -0.48192511316E+03 -0.13532915207E+03  0.28091098911E+02  0.50135307313E+03  0.00000000000E+00 0. -1.
         -3    1    3    3    0  502 -0.57689326862E+02 -0.23479277804E+02  0.36523387713E+02  0.72203135458E+02  0.00000000000E+00 0.  1.
         11    1    5    5    0    0  0.44245260382E+03  0.18468481026E+03  0.11965934688E+03  0.49415700447E+03  0.00000000000E+00 0.  1.
        -11    1    5    5    0    0  0.26313225498E+03  0.12075310242E+03  0.15493100402E+03  0.32836490580E+03  0.00000000000E+00 0. -1.
          2    1    6    6  503    0 -0.12329277128E+03 -0.15168167503E+03 -0.84323493509E+02  0.21288233733E+03  0.00000000000E+00 0.  1.
         -2    1    6    6    0  503 -0.42677647493E+02  0.50521922261E+01 -0.96746308395E+01  0.44051160299E+02  0.00000000000E+00 0. -1.
<mgrwt>
<rscale>  0 0.16347235E+04</rscale>
<asrwt>0</asrwt>
<pdfrwt beam="1">  1        2 0.10829268E+00 0.16347235E+04</pdfrwt>
<pdfrwt beam="2">  1       -2 0.14601680E+00 0.16347235E+04</pdfrwt>
<totfact> 0.12511415E+01</totfact>
</mgrwt>
</event>
<event>
12    2  0.3518828E-008  0.1406332E+04  0.7818608E-02  0.8949248E-01
          2   -1    0    0  501    0  0.00000000000E+00  0.00000000000E+00  0.10675014442E+04  0.10675014442E+04  0.00000000000E+00 0. -1.
         -2   -1    0    0    0  501 -0.00000000000E+00 -0.00000000000E+00 -0.46317742568E+03  0.46317742568E+03  0.00000000000E+00 0.  1.
         23    2    1    2    0    0 -0.25284918688E+03  0.86677871505E+02 -0.15968976091E+03  0.32416828555E+03  0.90213596010E+02 0.  0.
        254    2    1    2    0    0  0.25284918688E+03 -0.86677871505E+02  0.76401377945E+03  0.12065105843E+04  0.89470943340E+03 0.  0.
         23    2    4    4    0    0  0.23286088703E+03  0.85020210775E+02  0.91949703998E+03  0.95681873766E+03  0.92599466824E+02 0.  0.
         23    2    4    4    0    0  0.19988299853E+02 -0.17169808228E+03 -0.15548326054E+03  0.24969184667E+03  0.91056083807E+02 0.  0.
          3    1    3    3  502    0 -0.61305899725E+02  0.61686448157E+02 -0.67716669233E+02  0.11022331205E+03  0.00000000000E+00 0. -1.
         -3    1    3    3    0  502 -0.19154328715E+03  0.24991423348E+02 -0.91973091680E+02  0.21394497350E+03  0.00000000000E+00 0.  1.
         11    1    5    5    0    0  0.50785758865E+02  0.63459248774E+02  0.28323659029E+03  0.29466800919E+03  0.00000000000E+00 0. -1.
        -11    1    5    5    0    0  0.18207512816E+03  0.21560962000E+02  0.63626044969E+03  0.66215072847E+03  0.00000000000E+00 0.  1.
          1    1    6    6  503    0 -0.84716660692E+01 -0.14212278586E+01 -0.42520600600E+02  0.43379609150E+02  0.00000000000E+00 0. -1.
         -1    1    6    6    0  503  0.28459965922E+02 -0.17027685442E+03 -0.11296265994E+03  0.20631223752E+03  0.00000000000E+00 0.  1.
<mgrwt>
<rscale>  0 0.14063322E+04</rscale>
<asrwt>0</asrwt>
<pdfrwt beam="1">  1        2 0.16423099E+00 0.14063322E+04</pdfrwt>
<pdfrwt beam="2">  1       -2 0.71258066E-01 0.14063322E+04</pdfrwt>
<totfact> 0.39703806E+01</totfact>
</mgrwt>
</event>
<event>
12    2  0.3518828E-008  0.1524283E+04  0.7818608E-02  0.8868464E-01
          3   -1    0    0  501    0  0.00000000000E+00  0.00000000000E+00  0.11160645058E+04  0.11160645058E+04  0.00000000000E+00 0. -1.
         -3   -1    0    0    0  501 -0.00000000000E+00 -0.00000000000E+00 -0.52045361073E+03  0.52045361073E+03  0.00000000000E+00 0.  1.
         23    2    1    2    0    0 -0.23997779371E+03  0.16262573937E+03  0.60924308335E+03  0.68080905319E+03  0.91034936752E+02 0.  0.
        254    2    1    2    0    0  0.23997779371E+03 -0.16262573937E+03 -0.13632188230E+02  0.95570906339E+03  0.91058086116E+03 0.  0.
         23    2    4    4    0    0 -0.19623474275E+02  0.15470868546E+03 -0.36504442547E+03  0.40771993368E+03  0.93049737540E+02 0.  0.
         23    2    4    4    0    0  0.25960126799E+03 -0.31733442482E+03  0.35141223724E+03  0.54798912971E+03  0.93314362686E+02 0.  0.
          1    1    3    3  502    0 -0.18702685816E+03  0.90644605050E+02  0.48603812125E+03  0.52861001258E+03  0.00000000000E+00 0. -1.
         -1    1    3    3    0  502 -0.52950935557E+02  0.71981134316E+02  0.12320496210E+03  0.15219904060E+03  0.00000000000E+00 0.  1.
         11    1    5    5    0    0  0.34204300124E+02  0.58207021960E+02 -0.10099869530E+03  0.12148550533E+03  0.00000000000E+00 0.  1.
        -11    1    5    5    0    0 -0.53827774399E+02  0.96501663498E+02 -0.26404573016E+03  0.28623442835E+03  0.00000000000E+00 0. -1.
          1    1    6    6  503    0  0.26355100862E+03 -0.30627398489E+03  0.32315918922E+03  0.51739225888E+03  0.00000000000E+00 0. -1.
         -1    1    6    6    0  503 -0.39497406380E+01 -0.11060439933E+02  0.28253048019E+02  0.30596870836E+02  0.00000000000E+00 0.  1.
<mgrwt>
<rscale>  0 0.15242832E+04</rscale>
<asrwt>0</asrwt>
<pdfrwt beam="1">  1        3 0.17170223E+00 0.15242832E+04</pdfrwt>
<pdfrwt beam="2">  1       -3 0.80069787E-01 0.15242832E+04</pdfrwt>
<totfact> 0.82884725E-01</totfact>
</mgrwt>
</event>
<event>
12    2  0.3518828E-008  0.2986276E+04  0.7818608E-02  0.8247661E-01
          2   -1    0    0  501    0  0.00000000000E+00  0.00000000000E+00  0.19776142788E+04  0.19776142788E+04  0.00000000000E+00 0.  1.
         -2   -1    0    0    0  501 -0.00000000000E+00 -0.00000000000E+00 -0.11273488405E+04  0.11273488405E+04  0.00000000000E+00 0. -1.
         23    2    1    2    0    0  0.83672364837E+03  0.10675668470E+04  0.46323353292E+03  0.14361810829E+04  0.90693773024E+02 0.  0.
        254    2    1    2    0    0 -0.83672364837E+03 -0.10675668470E+04  0.38703190538E+03  0.16687820364E+04  0.89175913373E+03 0.  0.
         23    2    4    4    0    0 -0.24167719896E+03 -0.29645121191E+03 -0.28246560977E+03  0.48392068083E+03  0.90006750268E+02 0.  0.
         23    2    4    4    0    0 -0.59504644941E+03 -0.77111563506E+03  0.66949751515E+03  0.11848613555E+04  0.83485983461E+02 0.  0.
          3    1    3    3  502    0  0.72919951031E+03  0.92251131006E+03  0.36861141336E+03  0.12323284534E+04  0.00000000000E+00 0. -1.
         -3    1    3    3    0  502  0.10752413805E+03  0.14505553692E+03  0.94622119559E+02  0.20385262952E+03  0.00000000000E+00 0.  1.
         11    1    5    5    0    0 -0.20703721852E+03 -0.26457983588E+03 -0.27903668939E+03  0.43672459678E+03  0.00000000000E+00 0. -1.
        -11    1    5    5    0    0 -0.34639980439E+02 -0.31871376034E+02 -0.34289203813E+01  0.47196084054E+02  0.00000000000E+00 0.  1.
          4    1    6    6  503    0 -0.28007913841E+03 -0.41866439121E+03  0.31611472139E+03  0.59468707176E+03  0.00000000000E+00 0. -1.
         -4    1    6    6    0  503 -0.31496731100E+03 -0.35245124385E+03  0.35338279376E+03  0.59017428376E+03  0.00000000000E+00 0.  1.
<mgrwt>
<rscale>  0 0.29862761E+04</rscale>
<asrwt>0</asrwt>
<pdfrwt beam="1">  1        2 0.30424835E+00 0.29862761E+04</pdfrwt>
<pdfrwt beam="2">  1       -2 0.17343828E+00 0.29862761E+04</pdfrwt>
<totfact> 0.11875114E+00</totfact>
</mgrwt>
</event>
<event>
12    2  0.3518828E-008  0.2111929E+04  0.7818608E-02  0.8556007E-01
         -3   -1    0    0    0  501 -0.00000000000E+00  0.00000000000E+00  0.11151472433E+04  0.11151472433E+04  0.00000000000E+00 0.  1.
          3   -1    0    0  501    0  0.00000000000E+00 -0.00000000000E+00 -0.99992283134E+03  0.99992283134E+03  0.00000000000E+00 0. -1.
         23    2    1    2    0    0  0.10070546106E+03  0.84977025877E+03 -0.37135195468E+02  0.86132505125E+03  0.90833576331E+02 0.  0.
        254    2    1    2    0    0 -0.10070546106E+03 -0.84977025877E+03  0.15235960741E+03  0.12537450234E+04  0.90355522856E+03 0.  0.
         23    2    4    4    0    0 -0.16540592518E+03 -0.18291716499E+03  0.44472856379E+03  0.51699893818E+03  0.93201916822E+02 0.  0.
         23    2    4    4    0    0  0.64700464123E+02 -0.66685309379E+03 -0.29236895638E+03  0.73674608518E+03  0.91847638108E+02 0.  0.
          4    1    3    3  502    0  0.30589205095E+02  0.19853061547E+03 -0.46788878837E+02  0.20625058528E+03  0.00000000000E+00 0.  1.
         -4    1    3    3    0  502  0.70116255961E+02  0.65123964330E+03  0.96536833694E+01  0.65507446597E+03  0.00000000000E+00 0. -1.
         11    1    5    5    0    0 -0.48047267334E+02 -0.33876695134E+01  0.99930063071E+02  0.11093256379E+03  0.00000000000E+00 0. -1.
        -11    1    5    5    0    0 -0.11735865784E+03 -0.17952949547E+03  0.34479850072E+03  0.40606637440E+03  0.00000000000E+00 0.  1.
          2    1    6    6  503    0  0.30743589226E+02 -0.56878131679E+03 -0.22194414453E+03  0.61132361144E+03  0.00000000000E+00 0. -1.
         -2    1    6    6    0  503  0.33956874898E+02 -0.98071776992E+02 -0.70424811856E+02  0.12542247374E+03  0.00000000000E+00 0.  1.
<mgrwt>
<rscale>  0 0.21119292E+04</rscale>
<asrwt>0</asrwt>
<pdfrwt beam="1">  1        3 0.15383428E+00 0.21119292E+04</pdfrwt>
<pdfrwt beam="2">  1       -3 0.17156111E+00 0.21119292E+04</pdfrwt>
<totfact> 0.16434014E-01</totfact>
</mgrwt>
</event>
<event>
12    2  0.3518828E-008  0.2217380E+04  0.7818608E-02  0.8511229E-01
          1   -1    0    0  501    0  0.00000000000E+00  0.00000000000E+00  0.96095305054E+03  0.96095305054E+03  0.00000000000E+00 0. -1.
         -1   -1    0    0    0  501 -0.00000000000E+00 -0.00000000000E+00 -0.12791401878E+04  0.12791401878E+04  0.00000000000E+00 0.  1.
         23    2    1    2    0    0  0.88503135018E+03  0.17820449987E+03 -0.33989134776E+03  0.96916458743E+03  0.93362383667E+02 0.  0.
        254    2    1    2    0    0 -0.88503135018E+03 -0.17820449987E+03  0.21704210539E+02  0.12709286509E+04  0.89428811255E+03 0.  0.
         23    2    4    4    0    0 -0.29282177326E+03 -0.36662790551E+03 -0.30097235413E+03  0.56466917927E+03  0.90035060212E+02 0.  0.
         23    2    4    4    0    0 -0.59220957692E+03  0.18842340565E+03  0.32267656467E+03  0.70625947159E+03  0.92014743562E+02 0.  0.
          1    1    3    3  502    0  0.90322252934E+02 -0.67183194818E+01 -0.48600665670E+02  0.10278749873E+03  0.00000000000E+00 0. -1.
         -1    1    3    3    0  502  0.79470909724E+03  0.18492281935E+03 -0.29129068209E+03  0.86637708870E+03  0.00000000000E+00 0.  1.
         11    1    5    5    0    0 -0.18348473224E+03 -0.28814389166E+03 -0.23614551517E+03  0.41528093334E+03  0.00000000000E+00 0. -1.
        -11    1    5    5    0    0 -0.10933704102E+03 -0.78484013853E+02 -0.64826838965E+02  0.14938824593E+03  0.00000000000E+00 0.  1.
          2    1    6    6  503    0 -0.54440725917E+03  0.19760260282E+03  0.29071878470E+03  0.64803045010E+03  0.00000000000E+00 0. -1.
         -2    1    6    6    0  503 -0.47802317747E+02 -0.91791971769E+01  0.31957779971E+02  0.58229021488E+02  0.00000000000E+00 0.  1.
<mgrwt>
<rscale>  0 0.22173801E+04</rscale>
<asrwt>0</asrwt>
<pdfrwt beam="1">  1        1 0.14783893E+00 0.22173801E+04</pdfrwt>
<pdfrwt beam="2">  1       -1 0.19679080E+00 0.22173801E+04</pdfrwt>
<totfact> 0.23424132E+00</totfact>
</mgrwt>
</event>
<event>
12    2  0.3518828E-008  0.2231871E+04  0.7818608E-02  0.8505279E-01
         -1   -1    0    0    0  501 -0.00000000000E+00  0.00000000000E+00  0.91166305284E+03  0.91166305284E+03  0.00000000000E+00 0.  1.
          1   -1    0    0  501    0  0.00000000000E+00 -0.00000000000E+00 -0.13659783037E+04  0.13659783037E+04  0.00000000000E+00 0. -1.
         23    2    1    2    0    0  0.68990660665E+03  0.56971490415E+03 -0.44235570054E+03  0.10016905060E+04  0.84611501202E+02 0.  0.
        254    2    1    2    0    0 -0.68990660665E+03 -0.56971490415E+03 -0.11959550366E+02  0.12759508506E+04  0.90959405469E+03 0.  0.
         23    2    4    4    0    0 -0.48370709647E+03 -0.76652740444E+03 -0.18567069117E+03  0.92977668254E+03  0.92055727149E+02 0.  0.
         23    2    4    4    0    0 -0.20619951018E+03  0.19681250029E+03  0.17371114080E+03  0.34617416804E+03  0.91692943602E+02 0.  0.
          2    1    3    3  502    0  0.55158622255E+03  0.48711393875E+03 -0.38625084668E+03  0.83109389770E+03  0.00000000000E+00 0. -1.
         -2    1    3    3    0  502  0.13832038411E+03  0.82600965393E+02 -0.56104853856E+02  0.17059660832E+03  0.00000000000E+00 0.  1.
         11    1    5    5    0    0 -0.14630972168E+03 -0.30444305090E+03 -0.46699905756E+02  0.34098825067E+03  0.00000000000E+00 0. -1.
        -11    1    5    5    0    0 -0.33739737479E+03 -0.46208435354E+03 -0.13897078541E+03  0.58878843187E+03  0.00000000000E+00 0.  1.
          3    1    6    6  503    0 -0.20764787652E+03  0.19317094241E+03  0.18201651308E+03  0.33699060024E+03  0.00000000000E+00 0. -1.
         -3    1    6    6    0  503  0.14483663354E+01  0.36415578820E+01 -0.83053722784E+01  0.91835677998E+01  0.00000000000E+00 0.  1.
<mgrwt>
<rscale>  0 0.22318709E+04</rscale>
<asrwt>0</asrwt>
<pdfrwt beam="1">  1        1 0.21015051E+00 0.22318709E+04</pdfrwt>
<pdfrwt beam="2">  1       -1 0.14025586E+00 0.22318709E+04</pdfrwt>
<totfact> 0.30796451E+00</totfact>
</mgrwt>
</event>
<event>
12    2  0.3518828E-008  0.2678931E+04  0.7818608E-02  0.8341874E-01
          2   -1    0    0  501    0  0.00000000000E+00  0.00000000000E+00  0.30129726088E+04  0.30129726088E+04  0.00000000000E+00 0. -1.
         -2   -1    0    0    0  501 -0.00000000000E+00 -0.00000000000E+00 -0.59548101614E+03  0.59548101614E+03  0.00000000000E+00 0.  1.
         23    2    1    2    0    0  0.56689541367E+03 -0.40251088181E+03 -0.22048568778E+03  0.73409950025E+03  0.83082595872E+02 0.  0.
        254    2    1    2    0    0 -0.56689541367E+03  0.40251088181E+03  0.26379772805E+04  0.28743541247E+04  0.90531877369E+03 0.  0.
         23    2    4    4    0    0 -0.75918655482E+03  0.46291006809E+03  0.23154548034E+04  0.24819897046E+04  0.91060370490E+02 0.  0.
         23    2    4    4    0    0  0.19229114115E+03 -0.60399186282E+02  0.32252247710E+03  0.39236442013E+03  0.96463180967E+02 0.  0.
          3    1    3    3  502    0  0.15140774404E+03 -0.10964690924E+03 -0.21348953459E+02  0.18815559379E+03  0.00000000000E+00 0. -1.
         -3    1    3    3    0  502  0.41548766963E+03 -0.29286397257E+03 -0.19913673432E+03  0.54594390647E+03  0.00000000000E+00 0.  1.
         11    1    5    5    0    0 -0.52181123953E+03  0.28741991083E+03  0.16398202653E+04  0.17446798209E+04  0.00000000000E+00 0. -1.
        -11    1    5    5    0    0 -0.23737531529E+03  0.17549015726E+03  0.67563453807E+03  0.73730988372E+03  0.00000000000E+00 0.  1.
          1    1    6    6  503    0  0.93006619958E+02  0.40326823902E+01  0.80999887552E+02  0.12339965829E+03  0.00000000000E+00 0. -1.
         -1    1    6    6    0  503  0.99284521189E+02 -0.64431868672E+02  0.24152258955E+03  0.26896476184E+03  0.00000000000E+00 0.  1.
<mgrwt>
<rscale>  0 0.26789311E+04</rscale>
<asrwt>0</asrwt>
<pdfrwt beam="1">  1        2 0.46353424E+00 0.26789311E+04</pdfrwt>
<pdfrwt beam="2">  1       -2 0.91612466E-01 0.26789311E+04</pdfrwt>
<totfact> 0.15227359E+00</totfact>
</mgrwt>
</event>
<event>
12    2  0.3518828E-008  0.1342005E+04  0.7818608E-02  0.8996902E-01
         -1   -1    0    0    0  501 -0.00000000000E+00  0.00000000000E+00  0.31263933284E+03  0.31263933284E+03  0.00000000000E+00 0.  1.
          1   -1    0    0  501    0  0.00000000000E+00 -0.00000000000E+00 -0.14401395195E+04  0.14401395195E+04  0.00000000000E+00 0. -1.
         23    2    1    2    0    0 -0.14878774593E+03  0.15222741720E+03 -0.68559708605E+03  0.72357085395E+03  0.90556260925E+02 0.  0.
        254    2    1    2    0    0  0.14878774593E+03 -0.15222741720E+03 -0.44190310065E+03  0.10292079984E+04  0.90480924718E+03 0.  0.
         23    2    4    4    0    0  0.48242147914E+03  0.89065911366E+02 -0.17002724193E+03  0.52718349207E+03  0.91378067449E+02 0.  0.
         23    2    4    4    0    0 -0.33363373320E+03 -0.24129332856E+03 -0.27187585873E+03  0.50202450637E+03  0.92618486794E+02 0.  0.
          4    1    3    3  502    0 -0.12650898663E+03  0.14686729824E+03 -0.66528654131E+03  0.69295072627E+03  0.00000000000E+00 0. -1.
         -4    1    3    3    0  502 -0.22278759301E+02  0.53601189592E+01 -0.20310544743E+02  0.30620127677E+02  0.00000000000E+00 0.  1.
         11    1    5    5    0    0  0.43254957032E+03  0.49715538478E+02 -0.15165856286E+03  0.46105431918E+03  0.00000000000E+00 0.  1.
        -11    1    5    5    0    0  0.49871908816E+02  0.39350372888E+02 -0.18368679073E+02  0.66129172884E+02  0.00000000000E+00 0. -1.
          4    1    6    6  503    0 -0.17341591331E+02 -0.75608702204E+01 -0.43031762128E+02  0.47006702716E+02  0.00000000000E+00 0. -1.
         -4    1    6    6    0  503 -0.31629214187E+03 -0.23373245834E+03 -0.22884409660E+03  0.45501780365E+03  0.00000000000E+00 0.  1.
<mgrwt>
<rscale>  0 0.13420049E+04</rscale>
<asrwt>0</asrwt>
<pdfrwt beam="1">  1        1 0.22155992E+00 0.13420049E+04</pdfrwt>
<pdfrwt beam="2">  1       -1 0.48098360E-01 0.13420049E+04</pdfrwt>
<totfact> 0.30468064E+01</totfact>
</mgrwt>
</event>
<event>
12    2  0.3518828E-008  0.2765215E+04  0.7818608E-02  0.8314150E-01
         -1   -1    0    0    0  501 -0.00000000000E+00  0.00000000000E+00  0.10449185306E+04  0.10449185306E+04  0.00000000000E+00 0.  1.
          1   -1    0    0  501    0  0.00000000000E+00 -0.00000000000E+00 -0.18294276774E+04  0.18294276774E+04  0.00000000000E+00 0. -1.
         23    2    1    2    0    0  0.86582771281E+02 -0.15020196669E+03  0.91840607804E+03  0.93858815650E+03  0.86144043729E+02 0.  0.
        254    2    1    2    0    0 -0.86582771281E+02  0.15020196669E+03 -0.17029152249E+04  0.19357580515E+04  0.90398106374E+03 0.  0.
         23    2    4    4    0    0 -0.37443034676E+03  0.28990001183E+03 -0.14173998788E+04  0.14972465501E+04  0.92112507993E+02 0.  0.
         23    2    4    4    0    0  0.28784757548E+03 -0.13969804515E+03 -0.28551534610E+03  0.43851150132E+03  0.91659987992E+02 0.  0.
          1    1    3    3  502    0 -0.73413726342E+01 -0.13686854979E+02  0.22983581809E+03  0.23035999876E+03  0.00000000000E+00 0. -1.
         -1    1    3    3    0  502  0.93924143915E+02 -0.13651511171E+03  0.68857025994E+03  0.70822815774E+03  0.00000000000E+00 0.  1.
         11    1    5    5    0    0 -0.20115699332E+03  0.21101879345E+03 -0.89034172521E+03  0.93685722221E+03  0.00000000000E+00 0.  1.
        -11    1    5    5    0    0 -0.17327335345E+03  0.78881218387E+02 -0.52705815356E+03  0.56038932793E+03  0.00000000000E+00 0. -1.
          3    1    6    6  503    0  0.30868291939E+02 -0.61090196593E+01  0.48775807961E+00  0.31470771779E+02  0.00000000000E+00 0. -1.
         -3    1    6    6    0  503  0.25697928354E+03 -0.13358902549E+03 -0.28600310418E+03  0.40704072954E+03  0.00000000000E+00 0.  1.
<mgrwt>
<rscale>  0 0.27652146E+04</rscale>
<asrwt>0</asrwt>
<pdfrwt beam="1">  1        1 0.28145041E+00 0.27652146E+04</pdfrwt>
<pdfrwt beam="2">  1       -1 0.16075670E+00 0.27652146E+04</pdfrwt>
<totfact> 0.97429520E-01</totfact>
</mgrwt>
</event>
<event>
12    2  0.3518828E-008  0.1980603E+04  0.7818608E-02  0.8615743E-01
         -1   -1    0    0    0  501 -0.00000000000E+00  0.00000000000E+00  0.11515452086E+04  0.11515452086E+04  0.00000000000E+00 0.  1.
          1   -1    0    0  501    0  0.00000000000E+00 -0.00000000000E+00 -0.85163581886E+03  0.85163581886E+03  0.00000000000E+00 0. -1.
         23    2    1    2    0    0  0.51883659245E+03 -0.57098980899E+03  0.21379039181E+03  0.80600039412E+03  0.93324873729E+02 0.  0.
        254    2    1    2    0    0 -0.51883659245E+03  0.57098980899E+03  0.86118997926E+02  0.11971806333E+04  0.91137490386E+03 0.  0.
         23    2    4    4    0    0  0.21800577813E+03  0.27675648665E+03 -0.98988399150E+02  0.37726121462E+03  0.91687778313E+02 0.  0.
         23    2    4    4    0    0 -0.73684237057E+03  0.29423332234E+03  0.18510739708E+03  0.81991941871E+03  0.92158437910E+02 0.  0.
          4    1    3    3  502    0  0.37768299624E+03 -0.46028212472E+03  0.13756332066E+03  0.61108734823E+03  0.00000000000E+00 0. -1.
         -4    1    3    3    0  502  0.14115359621E+03 -0.11070768427E+03  0.76227071148E+02  0.19491304588E+03  0.00000000000E+00 0.  1.
         11    1    5    5    0    0  0.16232359507E+02  0.17934894078E+02  0.16582160300E+02  0.29327767746E+02  0.00000000000E+00 0. -1.
        -11    1    5    5    0    0  0.20177341862E+03  0.25882159257E+03 -0.11557055945E+03  0.34793344687E+03  0.00000000000E+00 0.  1.
          3    1    6    6  503    0 -0.59825270199E+03  0.22074205298E+03  0.11443298216E+03  0.64786438148E+03  0.00000000000E+00 0. -1.
         -3    1    6    6    0  503 -0.13858966858E+03  0.73491269365E+02  0.70674414917E+02  0.17205503723E+03  0.00000000000E+00 0.  1.
<mgrwt>
<rscale>  0 0.19806031E+04</rscale>
<asrwt>0</asrwt>
<pdfrwt beam="1">  1        1 0.13102090E+00 0.19806031E+04</pdfrwt>
<pdfrwt beam="2">  1       -1 0.17716080E+00 0.19806031E+04</pdfrwt>
<totfact> 0.40469202E+00</totfact>
</mgrwt>
</event>
<event>
12    2  0.3518828E-008  0.2774453E+04  0.7818608E-02  0.8311244E-01
         -2   -1    0    0    0  501 -0.00000000000E+00  0.00000000000E+00  0.87164315800E+03  0.87164315800E+03  0.00000000000E+00 0.  1.
          2   -1    0    0  501    0  0.00000000000E+00 -0.00000000000E+00 -0.22077819658E+04  0.22077819658E+04  0.00000000000E+00 0. -1.
         23    2    1    2    0    0 -0.11141037985E+04 -0.55752080020E+03 -0.66451205892E+03  0.14151083404E+04  0.94332508364E+02 0.  0.
        254    2    1    2    0    0  0.11141037985E+04  0.55752080020E+03 -0.67162674891E+03  0.16643167834E+04  0.87567753726E+03 0.  0.
         23    2    4    4    0    0  0.10935686795E+04  0.62165015581E+03 -0.32977805448E+03  0.13036072445E+04  0.91087374151E+02 0.  0.
         23    2    4    4    0    0  0.20535119020E+02 -0.64129355606E+02 -0.34184869443E+03  0.36070953893E+03  0.93362606166E+02 0.  0.
          3    1    3    3  502    0 -0.63830725621E+03 -0.30261764249E+03 -0.42659083120E+03  0.82522319898E+03  0.00000000000E+00 0. -1.
         -3    1    3    3    0  502 -0.47579654229E+03 -0.25490315771E+03 -0.23792122773E+03  0.58988514142E+03  0.00000000000E+00 0.  1.
         11    1    5    5    0    0  0.19942478540E+03  0.75235453999E+02 -0.63928918073E+02  0.22252533594E+03  0.00000000000E+00 0.  1.
        -11    1    5    5    0    0  0.89414389408E+03  0.54641470181E+03 -0.26584913641E+03  0.10810819086E+04  0.00000000000E+00 0. -1.
          4    1    6    6  503    0  0.44276947666E+02 -0.20031682696E+02 -0.76177315833E+02  0.90358728708E+02  0.00000000000E+00 0. -1.
         -4    1    6    6    0  503 -0.23741828646E+02 -0.44097672910E+02 -0.26567137860E+03  0.27035081022E+03  0.00000000000E+00 0.  1.
<mgrwt>
<rscale>  0 0.27744535E+04</rscale>
<asrwt>0</asrwt>
<pdfrwt beam="1">  1        2 0.33965876E+00 0.27744535E+04</pdfrwt>
<pdfrwt beam="2">  1       -2 0.13409895E+00 0.27744535E+04</pdfrwt>
<totfact> 0.17888021E+00</totfact>
</mgrwt>
</event>
<event>
12    2  0.3521309E-008  0.2634976E+04  0.7818608E-02  0.8356417E-01
          2   -1    0    0  501    0  0.00000000000E+00  0.00000000000E+00  0.98834631221E+03  0.98834631221E+03  0.00000000000E+00 0. -1.
         -2   -1    0    0    0  501 -0.00000000000E+00 -0.00000000000E+00 -0.17562409660E+04  0.17562409660E+04  0.00000000000E+00 0.  1.
         23    2    1    2    0    0  0.47021628946E+03  0.16031346743E+03 -0.14287826840E+04  0.15147684747E+04  0.79371324290E+02 0.  0.
        254    2    1    2    0    0 -0.47021628946E+03 -0.16031346743E+03  0.66088803023E+03  0.12298188035E+04  0.91042711638E+03 0.  0.
         23    2    4    4    0    0 -0.21719187712E+03 -0.41451232817E+03  0.71201287034E+03  0.85685452587E+03  0.90799610580E+02 0.  0.
         23    2    4    4    0    0 -0.25302441235E+03  0.25419886074E+03 -0.51124840112E+02  0.37296427764E+03  0.88601292720E+02 0.  0.
          3    1    3    3  502    0  0.34355677882E+01  0.37277427322E+01 -0.58508759696E+02  0.58727967385E+02  0.00000000000E+00 0. -1.
         -3    1    3    3    0  502  0.46678072168E+03  0.15658572470E+03 -0.13702739243E+04  0.14560405073E+04  0.00000000000E+00 0.  1.
         11    1    5    5    0    0 -0.10237669098E+02  0.28907360634E+01  0.19463549876E+02  0.22180982786E+02  0.00000000000E+00 0. -1.
        -11    1    5    5    0    0 -0.20695420802E+03 -0.41740306423E+03  0.69254932047E+03  0.83467354308E+03  0.00000000000E+00 0.  1.
          4    1    6    6  503    0  0.54978636519E+01  0.19078122169E+02 -0.50748918173E+01  0.20492822577E+02  0.00000000000E+00 0. -1.
         -4    1    6    6    0  503 -0.25852227600E+03  0.23512073857E+03 -0.46049948295E+02  0.35247145506E+03  0.00000000000E+00 0.  1.
<mgrwt>
<rscale>  0 0.26349757E+04</rscale>
<asrwt>0</asrwt>
<pdfrwt beam="1">  1        2 0.15205328E+00 0.26349757E+04</pdfrwt>
<pdfrwt beam="2">  1       -2 0.27019091E+00 0.26349757E+04</pdfrwt>
<totfact> 0.10925880E+00</totfact>
</mgrwt>
</event>
<event>
12    2  0.3518828E-008  0.1252322E+04  0.7818608E-02  0.9068253E-01
          2   -1    0    0  501    0  0.00000000000E+00  0.00000000000E+00  0.37531010677E+04  0.37531010677E+04  0.00000000000E+00 0. -1.
         -2   -1    0    0    0  501 -0.00000000000E+00 -0.00000000000E+00 -0.10446757927E+03  0.10446757927E+03  0.00000000000E+00 0.  1.
         23    2    1    2    0    0 -0.14675731565E+03 -0.15025428491E+03  0.15591253023E+04  0.15758373917E+04  0.90981958513E+02 0.  0.
        254    2    1    2    0    0  0.14675731565E+03  0.15025428491E+03  0.20895081861E+04  0.22817312553E+04  0.89226621692E+03 0.  0.
         23    2    4    4    0    0  0.40497856731E+03 -0.15522379977E+03  0.14966076042E+04  0.15608451899E+04  0.91111568504E+02 0.  0.
         23    2    4    4    0    0 -0.25822125167E+03  0.30547808468E+03  0.59290058187E+03  0.72088606538E+03  0.90280364615E+02 0.  0.
          1    1    3    3  502    0 -0.79404062421E+02 -0.89049864780E+02  0.11766635732E+04  0.11826969384E+04  0.00000000000E+00 0. -1.
         -1    1    3    3    0  502 -0.67353253224E+02 -0.61204420128E+02  0.38246172910E+03  0.39314045326E+03  0.00000000000E+00 0.  1.
         11    1    5    5    0    0  0.61342621222E+01  0.97616337490E+01  0.41591076348E+02  0.43159428831E+02  0.00000000000E+00 0. -1.
        -11    1    5    5    0    0  0.39884430519E+03 -0.16498543352E+03  0.14550165279E+04  0.15176857611E+04  0.00000000000E+00 0.  1.
          4    1    6    6  503    0 -0.18320593512E+02  0.28852028075E+02  0.10791378890E+03  0.11319659670E+03  0.00000000000E+00 0. -1.
         -4    1    6    6    0  503 -0.23990065816E+03  0.27662605661E+03  0.48498679298E+03  0.60768946868E+03  0.00000000000E+00 0.  1.
<mgrwt>
<rscale>  0 0.12523217E+04</rscale>
<asrwt>0</asrwt>
<pdfrwt beam="1">  1        2 0.57740006E+00 0.12523217E+04</pdfrwt>
<pdfrwt beam="2">  1       -2 0.16071938E-01 0.12523217E+04</pdfrwt>
<totfact> 0.16850239E+01</totfact>
</mgrwt>
</event>
<event>
12    2  0.3518828E-008  0.1710637E+04  0.7818608E-02  0.8755321E-01
         -2   -1    0    0    0  501 -0.00000000000E+00  0.00000000000E+00  0.39870790760E+03  0.39870790760E+03  0.00000000000E+00 0.  1.
          2   -1    0    0  501    0  0.00000000000E+00 -0.00000000000E+00 -0.18348513785E+04  0.18348513785E+04  0.00000000000E+00 0. -1.
         23    2    1    2    0    0  0.27300907327E+03 -0.54050926580E+03 -0.38611763521E+03  0.72438949711E+03  0.94705305029E+02 0.  0.
        254    2    1    2    0    0 -0.27300907327E+03  0.54050926580E+03 -0.10500258357E+04  0.15091697890E+04  0.89908563320E+03 0.  0.
         23    2    4    4    0    0 -0.43341994524E+03  0.61699512205E+03 -0.46393325208E+03  0.89004333317E+03  0.91691019008E+02 0.  0.
         23    2    4    4    0    0  0.16041087197E+03 -0.76485856249E+02 -0.58609258358E+03  0.61912645579E+03  0.90726609498E+02 0.  0.
          2    1    3    3  502    0  0.44448450348E+02 -0.40031834026E+02 -0.60396148168E+02  0.85005336229E+02  0.00000000000E+00 0. -1.
         -2    1    3    3    0  502  0.22856062292E+03 -0.50047743178E+03 -0.32572148704E+03  0.63938416088E+03  0.00000000000E+00 0.  1.
         11    1    5    5    0    0 -0.54364979219E+02  0.97391645468E+02 -0.34758054528E+02  0.11682810418E+03  0.00000000000E+00 0.  1.
        -11    1    5    5    0    0 -0.37905496602E+03  0.51960347658E+03 -0.42917519755E+03  0.77321522898E+03  0.00000000000E+00 0. -1.
          1    1    6    6  503    0  0.10391439174E+02 -0.42133862763E+02 -0.94108633034E+02  0.10363242355E+03  0.00000000000E+00 0. -1.
         -1    1    6    6    0  503  0.15001943279E+03 -0.34351993486E+02 -0.49198395055E+03  0.51549403223E+03  0.00000000000E+00 0.  1.
<mgrwt>
<rscale>  0 0.17106370E+04</rscale>
<asrwt>0</asrwt>
<pdfrwt beam="1">  1        2 0.28228484E+00 0.17106370E+04</pdfrwt>
<pdfrwt beam="2">  1       -2 0.61339676E-01 0.17106370E+04</pdfrwt>
<totfact> 0.19390180E+01</totfact>
</mgrwt>
</event>
<event>
12    2  0.3518828E-008  0.2494304E+04  0.7818608E-02  0.8405017E-01
          1   -1    0    0  501    0  0.00000000000E+00  0.00000000000E+00  0.19522638045E+04  0.19522638045E+04  0.00000000000E+00 0. -1.
         -1   -1    0    0    0  501 -0.00000000000E+00 -0.00000000000E+00 -0.79671022535E+03  0.79671022535E+03  0.00000000000E+00 0.  1.
         23    2    1    2    0    0 -0.41288968766E+03 -0.76623166479E+03  0.12042874142E+04  0.14889362407E+04  0.95047854293E+02 0.  0.
        254    2    1    2    0    0  0.41288968766E+03  0.76623166479E+03 -0.48733835056E+02  0.12600377891E+04  0.90979744179E+03 0.  0.
         23    2    4    4    0    0  0.34241125724E+03  0.96539521540E+03 -0.52966829965E+02  0.10298498046E+04  0.92475639397E+02 0.  0.
         23    2    4    4    0    0  0.70478430420E+02 -0.19916355061E+03  0.42329949095E+01  0.23018798458E+03  0.91297650320E+02 0.  0.
          3    1    3    3  502    0 -0.32663387080E+03 -0.59315280901E+03  0.86638089006E+03  0.10996071058E+04  0.00000000000E+00 0. -1.
         -3    1    3    3    0  502 -0.86255816853E+02 -0.17307885578E+03  0.33790652416E+03  0.38932913496E+03  0.00000000000E+00 0.  1.
         11    1    5    5    0    0 -0.40620023685E+01  0.29629228662E+02  0.49888878758E+01  0.30319631537E+02  0.00000000000E+00 0.  1.
        -11    1    5    5    0    0  0.34647325961E+03  0.93576598674E+03 -0.57955717841E+02  0.99953017302E+03  0.00000000000E+00 0. -1.
          2    1    6    6  503    0  0.80486739365E+02 -0.12315603751E+03  0.28329015097E+02  0.14982675958E+03  0.00000000000E+00 0. -1.
         -2    1    6    6    0  503 -0.10008308946E+02 -0.76007513094E+02 -0.24096020187E+02  0.80361225000E+02  0.00000000000E+00 0.  1.
<mgrwt>
<rscale>  0 0.24943043E+04</rscale>
<asrwt>0</asrwt>
<pdfrwt beam="1">  1        1 0.30034828E+00 0.24943043E+04</pdfrwt>
<pdfrwt beam="2">  1       -1 0.12257080E+00 0.24943043E+04</pdfrwt>
<totfact> 0.16766433E+00</totfact>
</mgrwt>
</event>
<event>
12    2  0.3518828E-008  0.1443181E+04  0.7818608E-02  0.8923141E-01
          2   -1    0    0  501    0  0.00000000000E+00  0.00000000000E+00  0.15952483661E+04  0.15952483661E+04  0.00000000000E+00 0. -1.
         -2   -1    0    0    0  501 -0.00000000000E+00 -0.00000000000E+00 -0.32640258220E+03  0.32640258220E+03  0.00000000000E+00 0.  1.
         23    2    1    2    0    0 -0.25499497294E+03 -0.26603337098E+03  0.12388133841E+03  0.39875324781E+03  0.88664400607E+02 0.  0.
        254    2    1    2    0    0  0.25499497294E+03  0.26603337098E+03  0.11449644454E+04  0.15228977004E+04  0.93406511229E+03 0.  0.
         23    2    4    4    0    0  0.31551094623E+03  0.51665885316E+02  0.12251685462E+04  0.12690276289E+04  0.84715024169E+02 0.  0.
         23    2    4    4    0    0 -0.60515973283E+02  0.21436748566E+03 -0.80204100793E+02  0.25387007155E+03  0.91660861408E+02 0.  0.
          4    1    3    3  502    0 -0.16473207752E+02 -0.57667960563E+02  0.39981708002E+01  0.60107783347E+02  0.00000000000E+00 0. -1.
         -4    1    3    3    0  502 -0.23852176519E+03 -0.20836541041E+03  0.11988316761E+03  0.33864546447E+03  0.00000000000E+00 0.  1.
         11    1    5    5    0    0  0.30931728656E+03  0.63916583897E+02  0.11918532391E+04  0.12329949947E+04  0.00000000000E+00 0. -1.
        -11    1    5    5    0    0  0.61936596681E+01 -0.12250698581E+02  0.33315307148E+02  0.36032634183E+02  0.00000000000E+00 0.  1.
          4    1    6    6  503    0 -0.69123299065E+02  0.11165936433E+03 -0.73714733298E+02  0.15059782874E+03  0.00000000000E+00 0. -1.
         -4    1    6    6    0  503  0.86073257823E+01  0.10270812133E+03 -0.64893674952E+01  0.10327224281E+03  0.00000000000E+00 0.  1.
<mgrwt>
<rscale>  0 0.14431815E+04</rscale>
<asrwt>0</asrwt>
<pdfrwt beam="1">  1        2 0.24542282E+00 0.14431815E+04</pdfrwt>
<pdfrwt beam="2">  1       -2 0.50215783E-01 0.14431815E+04</pdfrwt>
<totfact> 0.40829646E+01</totfact>
</mgrwt>
</event>
<event>
12    2  0.3518828E-008  0.2184905E+04  0.7818608E-02  0.8524737E-01
          1   -1    0    0  501    0  0.00000000000E+00  0.00000000000E+00  0.27028451305E+04  0.27028451305E+04  0.00000000000E+00 0. -1.
         -1   -1    0    0    0  501 -0.00000000000E+00 -0.00000000000E+00 -0.44155426257E+03  0.44155426257E+03  0.00000000000E+00 0.  1.
         23    2    1    2    0    0  0.77030420436E+03 -0.45052584798E+03  0.11460930570E+04  0.14553737249E+04  0.90781479145E+02 0.  0.
        254    2    1    2    0    0 -0.77030420436E+03  0.45052584798E+03  0.11151978110E+04  0.16890256682E+04  0.90155390478E+03 0.  0.
         23    2    4    4    0    0 -0.95299176631E+02  0.34181576517E+03  0.89164987687E+03  0.96393260909E+03  0.90590405410E+02 0.  0.
         23    2    4    4    0    0 -0.67500502773E+03  0.10871008280E+03  0.22354793409E+03  0.72509305909E+03  0.91304961149E+02 0.  0.
          2    1    3    3  502    0  0.13613398228E+01 -0.96085172443E+01  0.66555741268E+01  0.11767477075E+02  0.00000000000E+00 0.  1.
         -2    1    3    3    0  502  0.76894286454E+03 -0.44091733073E+03  0.11394374829E+04  0.14436062478E+04  0.00000000000E+00 0. -1.
         11    1    5    5    0    0  0.28790649054E+01  0.58063225621E+02  0.23181954205E+03  0.23899775577E+03  0.00000000000E+00 0.  1.
        -11    1    5    5    0    0 -0.98178241537E+02  0.28375253955E+03  0.65983033482E+03  0.72493485333E+03  0.00000000000E+00 0. -1.
          4    1    6    6  503    0 -0.35063888570E+03  0.10248169627E+02  0.11475055029E+03  0.36908040037E+03  0.00000000000E+00 0. -1.
         -4    1    6    6    0  503 -0.32436614204E+03  0.98461913178E+02  0.10879738380E+03  0.35601265872E+03  0.00000000000E+00 0.  1.
<mgrwt>
<rscale>  0 0.21849053E+04</rscale>
<asrwt>0</asrwt>
<pdfrwt beam="1">  1        1 0.41582232E+00 0.21849053E+04</pdfrwt>
<pdfrwt beam="2">  1       -1 0.67931427E-01 0.21849053E+04</pdfrwt>
<totfact> 0.19573030E+00</totfact>
</mgrwt>
</event>
<event>
12    2  0.3518828E-008  0.2068550E+04  0.7818608E-02  0.8575226E-01
         -2   -1    0    0    0  501 -0.00000000000E+00  0.00000000000E+00  0.10516873285E+04  0.10516873285E+04  0.00000000000E+00 0.  1.
          2   -1    0    0  501    0  0.00000000000E+00 -0.00000000000E+00 -0.10171504704E+04  0.10171504704E+04  0.00000000000E+00 0. -1.
         23    2    1    2    0    0  0.15014266158E+03  0.70271547174E+03 -0.41097370703E+03  0.83270857936E+03  0.90290294142E+02 0.  0.
        254    2    1    2    0    0 -0.15014266158E+03 -0.70271547174E+03  0.44551056508E+03  0.12361292196E+04  0.90176711563E+03 0.  0.
         23    2    4    4    0    0 -0.74154837376E+02 -0.84005417095E+03  0.10930207851E+03  0.85530216378E+03  0.91678225103E+02 0.  0.
         23    2    4    4    0    0 -0.75987824207E+02  0.13733869921E+03  0.33620848657E+03  0.38082705579E+03  0.85773144136E+02 0.  0.
          2    1    3    3  502    0  0.12583883181E+03  0.67760890052E+03 -0.39389498878E+03  0.79381515219E+03  0.00000000000E+00 0. -1.
         -2    1    3    3    0  502  0.24303829774E+02  0.25106571223E+02 -0.17078718249E+02  0.38893427173E+02  0.00000000000E+00 0.  1.
         11    1    5    5    0    0  0.27171518115E+01 -0.46762591702E+03  0.72949719909E+02  0.47328959720E+03  0.00000000000E+00 0. -1.
        -11    1    5    5    0    0 -0.76871989187E+02 -0.37242825393E+03  0.36352358601E+02  0.38201256658E+03  0.00000000000E+00 0.  1.
          3    1    6    6  503    0 -0.66109249803E+02  0.71244567946E+02  0.11942029355E+03  0.15397216593E+03  0.00000000000E+00 0. -1.
         -3    1    6    6    0  503 -0.98785744042E+01  0.66094131264E+02  0.21678819302E+03  0.22685488986E+03  0.00000000000E+00 0.  1.
<mgrwt>
<rscale>  0 0.20685495E+04</rscale>
<asrwt>0</asrwt>
<pdfrwt beam="1">  1        2 0.15648469E+00 0.20685495E+04</pdfrwt>
<pdfrwt beam="2">  1       -2 0.16179805E+00 0.20685495E+04</pdfrwt>
<totfact> 0.55428808E+00</totfact>
</mgrwt>
</event>
<event>
12    2  0.3518828E-008  0.2879915E+04  0.7818608E-02  0.8278879E-01
         -2   -1    0    0    0  501 -0.00000000000E+00  0.00000000000E+00  0.15414594473E+04  0.15414594473E+04  0.00000000000E+00 0.  1.
          2   -1    0    0  501    0  0.00000000000E+00 -0.00000000000E+00 -0.13451388309E+04  0.13451388309E+04  0.00000000000E+00 0. -1.
         23    2    1    2    0    0  0.77936333286E+03 -0.22353732092E+03 -0.92589609498E+03  0.12341082339E+04  0.91451713707E+02 0.  0.
        254    2    1    2    0    0 -0.77936333286E+03  0.22353732092E+03  0.11222167113E+04  0.16524900443E+04  0.90220666196E+03 0.  0.
         23    2    4    4    0    0 -0.82070904281E+03  0.35313520496E+03  0.54097174581E+03  0.10484657514E+04  0.91445044167E+02 0.  0.
         23    2    4    4    0    0  0.41345709956E+02 -0.12959788404E+03  0.58124496552E+03  0.60402429293E+03  0.92165922247E+02 0.  0.
          4    1    3    3  502    0  0.68767043683E+02 -0.17388985025E+02 -0.46312353696E+02  0.84711966109E+02  0.00000000000E+00 0.  1.
         -4    1    3    3    0  502  0.71059628917E+03 -0.20614833589E+03 -0.87958374128E+03  0.11493962678E+04  0.00000000000E+00 0. -1.
         11    1    5    5    0    0 -0.25805015336E+03  0.15799481124E+03  0.18486226706E+03  0.35457904592E+03  0.00000000000E+00 0. -1.
        -11    1    5    5    0    0 -0.56265888945E+03  0.19514039373E+03  0.35610947876E+03  0.69388670545E+03  0.00000000000E+00 0.  1.
          3    1    6    6  503    0 -0.87464169604E+01 -0.94098045727E+02  0.25272126744E+03  0.26981286299E+03  0.00000000000E+00 0. -1.
         -3    1    6    6    0  503  0.50092126916E+02 -0.35499838317E+02  0.32852369808E+03  0.33421142994E+03  0.00000000000E+00 0.  1.
<mgrwt>
<rscale>  0 0.28799146E+04</rscale>
<asrwt>0</asrwt>
<pdfrwt beam="1">  1        2 0.20694444E+00 0.28799146E+04</pdfrwt>
<pdfrwt beam="2">  1       -2 0.23714761E+00 0.28799146E+04</pdfrwt>
<totfact> 0.10380393E+00</totfact>
</mgrwt>
</event>
<event>
12    2  0.3518828E-008  0.1906639E+04  0.7818608E-02  0.8651559E-01
          1   -1    0    0  501    0  0.00000000000E+00  0.00000000000E+00  0.62307070750E+03  0.62307070750E+03  0.00000000000E+00 0. -1.
         -1   -1    0    0    0  501 -0.00000000000E+00 -0.00000000000E+00 -0.14586112993E+04  0.14586112993E+04  0.00000000000E+00 0.  1.
         23    2    1    2    0    0 -0.47197660486E+03 -0.40781434462E+03  0.10450495347E+03  0.63926972301E+03  0.93113040150E+02 0.  0.
        254    2    1    2    0    0  0.47197660486E+03  0.40781434462E+03 -0.94004554525E+03  0.14424122838E+04  0.89877311600E+03 0.  0.
         23    2    4    4    0    0  0.32490351992E+03 -0.20081707407E+03 -0.62002454430E+03  0.73330556175E+03  0.86120943256E+02 0.  0.
         23    2    4    4    0    0  0.14707308494E+03  0.60863141869E+03 -0.32002100095E+03  0.70910672203E+03  0.91412286084E+02 0.  0.
          4    1    3    3  502    0 -0.35162799342E+03 -0.35331819950E+03  0.86850276208E+02  0.50598316804E+03  0.00000000000E+00 0. -1.
         -4    1    3    3    0  502 -0.12034861144E+03 -0.54496145111E+02  0.17654677258E+02  0.13328655497E+03  0.00000000000E+00 0.  1.
         11    1    5    5    0    0  0.84999814983E+02 -0.18265489159E+02 -0.18030689563E+03  0.20017285844E+03  0.00000000000E+00 0. -1.
        -11    1    5    5    0    0  0.23990370494E+03 -0.18255158491E+03 -0.43971764866E+03  0.53313270331E+03  0.00000000000E+00 0.  1.
          3    1    6    6  503    0  0.39811432343E+02  0.98405456793E+02 -0.90292854966E+02  0.13936062475E+03  0.00000000000E+00 0. -1.
         -3    1    6    6    0  503  0.10726165260E+03  0.51022596189E+03 -0.22972814599E+03  0.56974609728E+03  0.00000000000E+00 0.  1.
<mgrwt>
<rscale>  0 0.19066389E+04</rscale>
<asrwt>0</asrwt>
<pdfrwt beam="1">  1        1 0.95857033E-01 0.19066389E+04</pdfrwt>
<pdfrwt beam="2">  1       -1 0.22440173E+00 0.19066389E+04</pdfrwt>
<totfact> 0.31169341E+00</totfact>
</mgrwt>
</event>
<event>
12    2  0.3518828E-008  0.1168138E+04  0.7818608E-02  0.9141212E-01
          2   -1    0    0  501    0  0.00000000000E+00  0.00000000000E+00  0.21278119740E+04  0.21278119740E+04  0.00000000000E+00 0. -1.
         -2   -1    0    0    0  501 -0.00000000000E+00 -0.00000000000E+00 -0.16032270916E+03  0.16032270916E+03  0.00000000000E+00 0.  1.
         23    2    1    2    0    0 -0.18159089761E+03  0.70732951227E+02  0.61751087535E+03  0.65409756714E+03  0.92442099095E+02 0.  0.
        254    2    1    2    0    0  0.18159089761E+03 -0.70732951227E+02  0.13499783895E+04  0.16340371160E+04  0.89980955761E+03 0.  0.
         23    2    4    4    0    0  0.10313368426E+03 -0.40745161987E+03  0.11423234636E+04  0.12206435638E+04  0.91730229099E+02 0.  0.
         23    2    4    4    0    0  0.78457213345E+02  0.33671866864E+03  0.20765492591E+03  0.41339355226E+03  0.90767090203E+02 0.  0.
          4    1    3    3  502    0 -0.11755734479E+03  0.66785878728E+01  0.43044155695E+03  0.44625583111E+03  0.00000000000E+00 0. -1.
         -4    1    3    3    0  502 -0.64033552815E+02  0.64054363354E+02  0.18706931840E+03  0.20784173603E+03  0.00000000000E+00 0.  1.
         11    1    5    5    0    0  0.32078212744E+02 -0.10809940049E+03  0.43353530207E+03  0.44795909441E+03  0.00000000000E+00 0. -1.
        -11    1    5    5    0    0  0.71055471520E+02 -0.29935221938E+03  0.70878816152E+03  0.77268446936E+03  0.00000000000E+00 0.  1.
          1    1    6    6  503    0  0.78547484843E+02  0.13901099007E+03  0.88458449367E+02  0.18253399683E+03  0.00000000000E+00 0. -1.
         -1    1    6    6    0  503 -0.90271498233E-01  0.19770767857E+03  0.11919647654E+03  0.23085955543E+03  0.00000000000E+00 0.  1.
<mgrwt>
<rscale>  0 0.11681380E+04</rscale>
<asrwt>0</asrwt>
<pdfrwt beam="1">  1        2 0.32735567E+00 0.11681380E+04</pdfrwt>
<pdfrwt beam="2">  1       -2 0.24665034E-01 0.11681380E+04</pdfrwt>
<totfact> 0.82624676E+01</totfact>
</mgrwt>
</event>
<event>
12    2  0.3518828E-008  0.2011522E+04  0.7818608E-02  0.8601252E-01
         -2   -1    0    0    0  501 -0.00000000000E+00  0.00000000000E+00  0.68601882885E+03  0.68601882885E+03  0.00000000000E+00 0.  1.
          2   -1    0    0  501    0  0.00000000000E+00 -0.00000000000E+00 -0.14745303222E+04  0.14745303222E+04  0.00000000000E+00 0. -1.
         23    2    1    2    0    0  0.39637851208E+03  0.34275873858E+03 -0.96787382127E+03  0.11047007654E+04  0.94786969257E+02 0.  0.
        254    2    1    2    0    0 -0.39637851208E+03 -0.34275873858E+03  0.17936232796E+03  0.10558483856E+04  0.89891350581E+03 0.  0.
         23    2    4    4    0    0 -0.85435076787E+01  0.28348242687E+03  0.71286961994E+02  0.30572479309E+03  0.89165802251E+02 0.  0.
         23    2    4    4    0    0 -0.38783500440E+03 -0.62624116545E+03  0.10807536597E+03  0.75012359249E+03  0.91712220217E+02 0.  0.
          3    1    3    3  502    0  0.22494125764E+03  0.23536227200E+03 -0.52404338567E+03  0.61694038491E+03  0.00000000000E+00 0. -1.
         -3    1    3    3    0  502  0.17143725444E+03  0.10739646658E+03 -0.44383043560E+03  0.48776038052E+03  0.00000000000E+00 0.  1.
         11    1    5    5    0    0 -0.21096347872E+02  0.16345003437E+02 -0.59902913058E+01  0.27351391570E+02  0.00000000000E+00 0. -1.
        -11    1    5    5    0    0  0.12552840193E+02  0.26713742344E+03  0.77277253300E+02  0.27837340152E+03  0.00000000000E+00 0.  1.
          1    1    6    6  503    0 -0.14730562553E+03 -0.16738019757E+03  0.12646018895E+02  0.22332711355E+03  0.00000000000E+00 0. -1.
         -1    1    6    6    0  503 -0.24052937887E+03 -0.45886096788E+03  0.95429347070E+02  0.52679647894E+03  0.00000000000E+00 0.  1.
<mgrwt>
<rscale>  0 0.20115224E+04</rscale>
<asrwt>0</asrwt>
<pdfrwt beam="1">  1        2 0.22685082E+00 0.20115224E+04</pdfrwt>
<pdfrwt beam="2">  1       -2 0.10554136E+00 0.20115224E+04</pdfrwt>
<totfact> 0.88445897E+00</totfact>
</mgrwt>
</event>
<event>
12    2  0.3518828E-008  0.2170122E+04  0.7818608E-02  0.8530968E-01
          2   -1    0    0  501    0  0.00000000000E+00  0.00000000000E+00  0.20888135349E+04  0.20888135349E+04  0.00000000000E+00 0. -1.
         -2   -1    0    0    0  501 -0.00000000000E+00 -0.00000000000E+00 -0.56364900170E+03  0.56364900170E+03  0.00000000000E+00 0.  1.
         23    2    1    2    0    0 -0.67712724632E+03  0.53853474255E+03  0.32823857734E+03  0.92993807059E+03  0.92321583837E+02 0.  0.
        254    2    1    2    0    0  0.67712724632E+03 -0.53853474255E+03  0.11969259559E+04  0.17225244660E+04  0.88653133930E+03 0.  0.
         23    2    4    4    0    0 -0.70008601833E+02 -0.14752711375E+02 -0.85545894850E+02  0.14592832800E+03  0.94117638957E+02 0.  0.
         23    2    4    4    0    0  0.74713584815E+03 -0.52378203117E+03  0.12824718507E+04  0.15765961380E+04  0.91442565372E+02 0.  0.
          4    1    3    3  502    0 -0.20998655138E+03  0.16890579264E+03  0.14864656353E+03  0.30776503927E+03  0.00000000000E+00 0. -1.
         -4    1    3    3    0  502 -0.46714069494E+03  0.36962894991E+03  0.17959201380E+03  0.62217303132E+03  0.00000000000E+00 0.  1.
         11    1    5    5    0    0 -0.21464626082E+02  0.39747151518E+02 -0.30328665034E+02  0.54409504220E+02  0.00000000000E+00 0. -1.
        -11    1    5    5    0    0 -0.48543975751E+02 -0.54499862893E+02 -0.55217229816E+02  0.91518823778E+02  0.00000000000E+00 0.  1.
          3    1    6    6  503    0  0.20956537345E+03 -0.18533708199E+03  0.44137762574E+03  0.52257218469E+03  0.00000000000E+00 0. -1.
         -3    1    6    6    0  503  0.53757047470E+03 -0.33844494918E+03  0.84109422498E+03  0.10540239533E+04  0.00000000000E+00 0.  1.
<mgrwt>
<rscale>  0 0.21701223E+04</rscale>
<asrwt>0</asrwt>
<pdfrwt beam="1">  1        2 0.32135592E+00 0.21701223E+04</pdfrwt>
<pdfrwt beam="2">  1       -2 0.86715232E-01 0.21701223E+04</pdfrwt>
<totfact> 0.62869377E+00</totfact>
</mgrwt>
</event>
<event>
12    2  0.3518828E-008  0.2535775E+04  0.7818608E-02  0.8390350E-01
         -2   -1    0    0    0  501 -0.00000000000E+00  0.00000000000E+00  0.90180453280E+03  0.90180453280E+03  0.00000000000E+00 0.  1.
          2   -1    0    0  501    0  0.00000000000E+00 -0.00000000000E+00 -0.17825794226E+04  0.17825794226E+04  0.00000000000E+00 0. -1.
         23    2    1    2    0    0 -0.89789741894E+03  0.22081116176E+03  0.25926828412E+03  0.96491274009E+03  0.94123369704E+02 0.  0.
        254    2    1    2    0    0  0.89789741894E+03 -0.22081116176E+03 -0.11400431739E+04  0.17194712153E+04  0.89549175194E+03 0.  0.
         23    2    4    4    0    0  0.52202588090E+02  0.28009977809E+03 -0.28356029649E+03  0.41263018924E+03  0.93146311961E+02 0.  0.
         23    2    4    4    0    0  0.84569483085E+03 -0.50091093985E+03 -0.85648287741E+03  0.13068410261E+04  0.90327357495E+02 0.  0.
          1    1    3    3  502    0 -0.49376715810E+02 -0.90029230828E+01  0.10173976574E+02  0.51211546428E+02  0.00000000000E+00 0. -1.
         -1    1    3    3    0  502 -0.84852070313E+03  0.22981408484E+03  0.24909430755E+03  0.91370119366E+03  0.00000000000E+00 0.  1.
         11    1    5    5    0    0  0.40372689067E+02  0.11702299226E+03 -0.65419772419E+02  0.14001457554E+03  0.00000000000E+00 0. -1.
        -11    1    5    5    0    0  0.11829899023E+02  0.16307678583E+03 -0.21814052407E+03  0.27261561370E+03  0.00000000000E+00 0.  1.
          3    1    6    6  503    0  0.27777885555E+03 -0.17880095470E+03 -0.34295881783E+03  0.47618444401E+03  0.00000000000E+00 0. -1.
         -3    1    6    6    0  503  0.56791597530E+03 -0.32210998515E+03 -0.51352405959E+03  0.83065658205E+03  0.00000000000E+00 0.  1.
<mgrwt>
<rscale>  0 0.25357746E+04</rscale>
<asrwt>0</asrwt>
<pdfrwt beam="1">  1        2 0.27424299E+00 0.25357746E+04</pdfrwt>
<pdfrwt beam="2">  1       -2 0.13873916E+00 0.25357746E+04</pdfrwt>
<totfact> 0.28853752E+00</totfact>
</mgrwt>
</event>
<event>
12    2  0.3518828E-008  0.2834768E+04  0.7818608E-02  0.8292555E-01
          1   -1    0    0  501    0  0.00000000000E+00  0.00000000000E+00  0.88039946592E+03  0.88039946592E+03  0.00000000000E+00 0. -1.
         -1   -1    0    0    0  501 -0.00000000000E+00 -0.00000000000E+00 -0.22818931155E+04  0.22818931155E+04  0.00000000000E+00 0.  1.
         23    2    1    2    0    0 -0.60940877856E+03 -0.66146585126E+03 -0.17269925404E+04  0.19492892727E+04  0.91155373823E+02 0.  0.
        254    2    1    2    0    0  0.60940877856E+03  0.66146585126E+03  0.32549889080E+03  0.12130033088E+04  0.74599689504E+03 0.  0.
         23    2    4    4    0    0  0.67524840652E+03  0.66462655239E+03  0.94763511336E+02  0.95653682511E+03  0.91069808775E+02 0.  0.
         23    2    4    4    0    0 -0.65839627954E+02 -0.31607011286E+01  0.23073537947E+03  0.25646648366E+03  0.90506327196E+02 0.  0.
          4    1    3    3  502    0 -0.25812779479E+03 -0.33079883700E+03 -0.73925010974E+03  0.85002856055E+03  0.00000000000E+00 0. -1.
         -4    1    3    3    0  502 -0.35128098378E+03 -0.33066701426E+03 -0.98774243066E+03  0.10992607121E+04  0.00000000000E+00 0.  1.
         11    1    5    5    0    0  0.19943941301E+03  0.20927911115E+03 -0.12064021356E+02  0.28934299099E+03  0.00000000000E+00 0.  1.
        -11    1    5    5    0    0  0.47580899351E+03  0.45534744124E+03  0.10682753269E+03  0.66719383412E+03  0.00000000000E+00 0. -1.
          3    1    6    6  503    0 -0.77403585793E+02  0.15741082394E+02  0.21564905340E+03  0.22965977227E+03  0.00000000000E+00 0. -1.
         -3    1    6    6    0  503  0.11563957839E+02 -0.18901783523E+02  0.15086326072E+02  0.26806711391E+02  0.00000000000E+00 0.  1.
<mgrwt>
<rscale>  0 0.28347681E+04</rscale>
<asrwt>0</asrwt>
<pdfrwt beam="1">  1        1 0.13544607E+00 0.28347681E+04</pdfrwt>
<pdfrwt beam="2">  1       -1 0.35106047E+00 0.28347681E+04</pdfrwt>
<totfact> 0.24919950E-01</totfact>
</mgrwt>
</event>
<event>
12    2  0.3518828E-008  0.1308918E+04  0.7818608E-02  0.9022523E-01
         -2   -1    0    0    0  501 -0.00000000000E+00  0.00000000000E+00  0.41363751655E+03  0.41363751655E+03  0.00000000000E+00 0.  1.
          2   -1    0    0  501    0  0.00000000000E+00 -0.00000000000E+00 -0.10354873892E+04  0.10354873892E+04  0.00000000000E+00 0. -1.
         23    2    1    2    0    0 -0.10794491411E+03  0.68116294614E+02 -0.50930187935E+03  0.53287178332E+03  0.90950530923E+02 0.  0.
        254    2    1    2    0    0  0.10794491411E+03 -0.68116294614E+02 -0.11254799326E+03  0.91625312239E+03  0.90031150134E+03 0.  0.
         23    2    4    4    0    0 -0.12333124536E+03 -0.31596200864E+03  0.23443692347E+03  0.42250793222E+03  0.92248006542E+02 0.  0.
         23    2    4    4    0    0  0.23127615947E+03  0.24784571403E+03 -0.34698491673E+03  0.49374519018E+03  0.92030541012E+02 0.  0.
          4    1    3    3  502    0 -0.14709869223E+02  0.53286056061E+02 -0.11746322438E+03  0.12982061895E+03  0.00000000000E+00 0.  1.
         -4    1    3    3    0  502 -0.93235044884E+02  0.14830238553E+02 -0.39183865496E+03  0.40305116436E+03  0.00000000000E+00 0. -1.
         11    1    5    5    0    0 -0.10685503758E+03 -0.15816300104E+03  0.15012935366E+03  0.24284224670E+03  0.00000000000E+00 0. -1.
        -11    1    5    5    0    0 -0.16476207788E+02 -0.15779900761E+03  0.84307569811E+02  0.17966568552E+03  0.00000000000E+00 0.  1.
          3    1    6    6  503    0  0.22970801762E+03  0.21123367048E+03 -0.32697055728E+03  0.45199024572E+03  0.00000000000E+00 0. -1.
         -3    1    6    6    0  503  0.15681418541E+01  0.36612043552E+02 -0.20014359452E+02  0.41754944452E+02  0.00000000000E+00 0.  1.
<mgrwt>
<rscale>  0 0.13089178E+04</rscale>
<asrwt>0</asrwt>
<pdfrwt beam="1">  1        2 0.15930575E+00 0.13089178E+04</pdfrwt>
<pdfrwt beam="2">  1       -2 0.63636541E-01 0.13089178E+04</pdfrwt>
<totfact> 0.53518004E+01</totfact>
</mgrwt>
</event>
<event>
12    2  0.3518828E-008  0.1251295E+04  0.7818608E-02  0.9069106E-01
          2   -1    0    0  501    0  0.00000000000E+00  0.00000000000E+00  0.21995710492E+04  0.21995710492E+04  0.00000000000E+00 0. -1.
         -2   -1    0    0    0  501 -0.00000000000E+00 -0.00000000000E+00 -0.17795956464E+03  0.17795956464E+03  0.00000000000E+00 0.  1.
         23    2    1    2    0    0  0.13022841569E+03  0.14006225367E+03  0.89149417245E+03  0.91616584969E+03  0.89560758584E+02 0.  0.
        254    2    1    2    0    0 -0.13022841569E+03 -0.14006225367E+03  0.11301173121E+04  0.14613647642E+04  0.90655664997E+03 0.  0.
         23    2    4    4    0    0  0.29629996734E+03 -0.32945216288E+03  0.56634897706E+03  0.72362782949E+03  0.80954762243E+02 0.  0.
         23    2    4    4    0    0 -0.42652838303E+03  0.18938990921E+03  0.56376833506E+03  0.73773693466E+03  0.92876530452E+02 0.  0.
          1    1    3    3  502    0  0.13676943702E+03  0.13047279758E+03  0.72393648356E+03  0.74820656375E+03  0.00000000000E+00 0. -1.
         -1    1    3    3    0  502 -0.65410213330E+01  0.95894560857E+01  0.16755768889E+03  0.16795928594E+03  0.00000000000E+00 0.  1.
         11    1    5    5    0    0  0.10496141352E+03 -0.14358890255E+03  0.28483587325E+03  0.33580670922E+03  0.00000000000E+00 0. -1.
        -11    1    5    5    0    0  0.19133855382E+03 -0.18586326032E+03  0.28151310381E+03  0.38782112027E+03  0.00000000000E+00 0.  1.
          1    1    6    6  503    0 -0.18052126740E+03  0.12449890486E+03  0.22642952458E+03  0.31521141301E+03  0.00000000000E+00 0. -1.
         -1    1    6    6    0  503 -0.24600711563E+03  0.64891004353E+02  0.33733881048E+03  0.42252552164E+03  0.00000000000E+00 0.  1.
<mgrwt>
<rscale>  0 0.12512949E+04</rscale>
<asrwt>0</asrwt>
<pdfrwt beam="1">  1        2 0.33839553E+00 0.12512949E+04</pdfrwt>
<pdfrwt beam="2">  1       -2 0.27378396E-01 0.12512949E+04</pdfrwt>
<totfact> 0.61887037E+01</totfact>
</mgrwt>
</event>
<event>
12    2  0.3518828E-008  0.1313769E+04  0.7818608E-02  0.9018717E-01
          1   -1    0    0  501    0  0.00000000000E+00  0.00000000000E+00  0.98528175173E+03  0.98528175173E+03  0.00000000000E+00 0. -1.
         -1   -1    0    0    0  501 -0.00000000000E+00 -0.00000000000E+00 -0.43794332367E+03  0.43794332367E+03  0.00000000000E+00 0.  1.
         23    2    1    2    0    0  0.75488133266E+01  0.10633417170E+03 -0.19779847306E+03  0.24270977125E+03  0.91759775836E+02 0.  0.
        254    2    1    2    0    0 -0.75488133266E+01 -0.10633417170E+03  0.74513690113E+03  0.11805153041E+04  0.90940829184E+03 0.  0.
         23    2    4    4    0    0 -0.30755412152E+03  0.26609190370E+03  0.24862311766E+03  0.48504259951E+03  0.89768757532E+02 0.  0.
         23    2    4    4    0    0  0.30000530819E+03 -0.37242607540E+03  0.49651378346E+03  0.69547270464E+03  0.91934646041E+02 0.  0.
          1    1    3    3  502    0  0.13122771238E+02 -0.12183737274E+02 -0.98316472895E+01  0.20428212535E+02  0.00000000000E+00 0. -1.
         -1    1    3    3    0  502 -0.55739579111E+01  0.11851790898E+03 -0.18796682577E+03  0.22228155872E+03  0.00000000000E+00 0.  1.
         11    1    5    5    0    0 -0.20737151449E+03  0.18555085755E+03  0.21644069494E+03  0.35253175770E+03  0.00000000000E+00 0. -1.
        -11    1    5    5    0    0 -0.10018260703E+03  0.80541046151E+02  0.32182422720E+02  0.13251084182E+03  0.00000000000E+00 0.  1.
          4    1    6    6  503    0  0.27476600275E+02 -0.83761702376E+02  0.68025248839E+02  0.11134819634E+03  0.00000000000E+00 0. -1.
         -4    1    6    6    0  503  0.27252870792E+03 -0.28866437303E+03  0.42848853462E+03  0.58412450830E+03  0.00000000000E+00 0.  1.
<mgrwt>
<rscale>  0 0.13137695E+04</rscale>
<asrwt>0</asrwt>
<pdfrwt beam="1">  1        1 0.15158181E+00 0.13137695E+04</pdfrwt>
<pdfrwt beam="2">  1       -1 0.67375896E-01 0.13137695E+04</pdfrwt>
<totfact> 0.34033811E+01</totfact>
</mgrwt>
</event>
<event>
12    2  0.3518828E-008  0.1427443E+04  0.7818608E-02  0.8934190E-01
          2   -1    0    0  501    0  0.00000000000E+00  0.00000000000E+00  0.17540402066E+04  0.17540402066E+04  0.00000000000E+00 0. -1.
         -2   -1    0    0    0  501 -0.00000000000E+00 -0.00000000000E+00 -0.29041446885E+03  0.29041446885E+03  0.00000000000E+00 0.  1.
         23    2    1    2    0    0  0.15895766288E+03 -0.64183285115E+02 -0.10805578185E+03  0.22220863243E+03  0.91178899193E+02 0.  0.
        254    2    1    2    0    0 -0.15895766288E+03  0.64183285115E+02  0.15716815196E+04  0.18222460430E+04  0.90609646817E+03 0.  0.
         23    2    4    4    0    0 -0.21118588364E+03 -0.37587970321E+03  0.54772614411E+03  0.70281969602E+03  0.89814071552E+02 0.  0.
         23    2    4    4    0    0  0.52228220761E+02  0.44006298832E+03  0.10239553755E+04  0.11194263470E+04  0.90815828171E+02 0.  0.
          2    1    3    3  502    0 -0.17377131465E+01  0.13179018401E+02  0.70942986533E+00  0.13312004497E+02  0.00000000000E+00 0. -1.
         -2    1    3    3    0  502  0.16069537603E+03 -0.77362303516E+02 -0.10876521171E+03  0.20889662793E+03  0.00000000000E+00 0.  1.
         11    1    5    5    0    0 -0.17967471275E+02 -0.11027589363E+03  0.12948795039E+03  0.17102845387E+03  0.00000000000E+00 0. -1.
        -11    1    5    5    0    0 -0.19321841237E+03 -0.26560380958E+03  0.41823819372E+03  0.53179124215E+03  0.00000000000E+00 0.  1.
          3    1    6    6  503    0 -0.20261432109E+02  0.17011032966E+03  0.43462715780E+03  0.46717107807E+03  0.00000000000E+00 0. -1.
         -3    1    6    6    0  503  0.72489652870E+02  0.26995265866E+03  0.58932821770E+03  0.65225526895E+03  0.00000000000E+00 0.  1.
<mgrwt>
<rscale>  0 0.14274434E+04</rscale>
<asrwt>0</asrwt>
<pdfrwt beam="1">  1        2 0.26985233E+00 0.14274434E+04</pdfrwt>
<pdfrwt beam="2">  1       -2 0.44679150E-01 0.14274434E+04</pdfrwt>
<totfact> 0.42228157E+01</totfact>
</mgrwt>
</event>
<event>
12    2  0.3518828E-008  0.1581630E+04  0.7818608E-02  0.8831914E-01
          2   -1    0    0  501    0  0.00000000000E+00  0.00000000000E+00  0.19846166323E+04  0.19846166323E+04  0.00000000000E+00 0.  1.
         -2   -1    0    0    0  501 -0.00000000000E+00 -0.00000000000E+00 -0.31511791306E+03  0.31511791306E+03  0.00000000000E+00 0. -1.
         23    2    1    2    0    0  0.51802417087E+03  0.74558320346E+02  0.70547428356E+03  0.88324974607E+03  0.92348061363E+02 0.  0.
        254    2    1    2    0    0 -0.51802417087E+03 -0.74558320346E+02  0.96402443572E+03  0.14164847993E+04  0.89620203598E+03 0.  0.
         23    2    4    4    0    0  0.62027973243E+02 -0.31455691219E+03  0.59630064882E+03  0.68311862891E+03  0.91011410897E+02 0.  0.
         23    2    4    4    0    0 -0.58005214411E+03  0.23999859185E+03  0.36772378690E+03  0.73336617040E+03  0.92441021553E+02 0.  0.
          1    1    3    3  502    0  0.32768567491E+02 -0.15503465148E+02  0.67901370162E+02  0.76972284083E+02  0.00000000000E+00 0. -1.
         -1    1    3    3    0  502  0.48525560338E+03  0.90061785495E+02  0.63757291340E+03  0.80627746199E+03  0.00000000000E+00 0.  1.
         11    1    5    5    0    0  0.54182847831E+01 -0.16290250939E+03  0.37538477126E+03  0.40924358500E+03  0.00000000000E+00 0. -1.
        -11    1    5    5    0    0  0.56609688460E+02 -0.15165440280E+03  0.22091587756E+03  0.27387504391E+03  0.00000000000E+00 0.  1.
          4    1    6    6  503    0 -0.19844181496E+03  0.70767031000E+02  0.17357712157E+03  0.27297645271E+03  0.00000000000E+00 0. -1.
         -4    1    6    6    0  503 -0.38161032915E+03  0.16923156085E+03  0.19414666533E+03  0.46038971769E+03  0.00000000000E+00 0.  1.
<mgrwt>
<rscale>  0 0.15816299E+04</rscale>
<asrwt>0</asrwt>
<pdfrwt beam="1">  1        2 0.30532563E+00 0.15816299E+04</pdfrwt>
<pdfrwt beam="2">  1       -2 0.48479680E-01 0.15816299E+04</pdfrwt>
<totfact> 0.26375728E+01</totfact>
</mgrwt>
</event>
<event>
12    2  0.3518828E-008  0.1326585E+04  0.7818608E-02  0.9008745E-01
         -1   -1    0    0    0  501 -0.00000000000E+00  0.00000000000E+00  0.34113020764E+03  0.34113020764E+03  0.00000000000E+00 0.  1.
          1   -1    0    0  501    0  0.00000000000E+00 -0.00000000000E+00 -0.12897030275E+04  0.12897030275E+04  0.00000000000E+00 0. -1.
         23    2    1    2    0    0  0.22751161372E+03  0.79603091393E+02 -0.56724131039E+03  0.62442152760E+03  0.10020655358E+03 0.  0.
        254    2    1    2    0    0 -0.22751161372E+03 -0.79603091393E+02 -0.38133150947E+03  0.10064117075E+04  0.89964027168E+03 0.  0.
         23    2    4    4    0    0  0.69955563861E+02 -0.10223870127E+03  0.25448888116E+03  0.29787926807E+03  0.92848989014E+02 0.  0.
         23    2    4    4    0    0 -0.29746717758E+03  0.22635609876E+02 -0.63582039063E+03  0.70853243947E+03  0.93549751800E+02 0.  0.
          2    1    3    3  502    0  0.20779810433E+03  0.33834482931E+02 -0.47536027140E+03  0.51989634739E+03  0.00000000000E+00 0. -1.
         -2    1    3    3    0  502  0.19713509385E+02  0.45768608461E+02 -0.91881038984E+02  0.10452518021E+03  0.00000000000E+00 0.  1.
         11    1    5    5    0    0 -0.33805857148E+01 -0.47246387649E+02  0.15732499120E+03  0.16430095058E+03  0.00000000000E+00 0. -1.
        -11    1    5    5    0    0  0.73336149576E+02 -0.54992313620E+02  0.97163889965E+02  0.13357831750E+03  0.00000000000E+00 0.  1.
          4    1    6    6  503    0 -0.51562615217E+01  0.50778822038E+01  0.12846890864E+01  0.73499895649E+01  0.00000000000E+00 0. -1.
         -4    1    6    6    0  503 -0.29231091606E+03  0.17557727672E+02 -0.63710507972E+03  0.70118244990E+03  0.00000000000E+00 0.  1.
<mgrwt>
<rscale>  0 0.13265846E+04</rscale>
<asrwt>0</asrwt>
<pdfrwt beam="1">  1        1 0.19841585E+00 0.13265846E+04</pdfrwt>
<pdfrwt beam="2">  1       -1 0.52481570E-01 0.13265846E+04</pdfrwt>
<totfact> 0.32997783E+01</totfact>
</mgrwt>
</event>
<event>
12    2  0.3518828E-008  0.1556292E+04  0.7818608E-02  0.8847858E-01
          2   -1    0    0  501    0  0.00000000000E+00  0.00000000000E+00  0.14290537612E+04  0.14290537612E+04  0.00000000000E+00 0. -1.
         -2   -1    0    0    0  501 -0.00000000000E+00 -0.00000000000E+00 -0.42371502959E+03  0.42371502959E+03  0.00000000000E+00 0.  1.
         23    2    1    2    0    0 -0.25178632247E+03 -0.24739165579E+03  0.76733757962E+03  0.84984015322E+03  0.93927319741E+02 0.  0.
        254    2    1    2    0    0  0.25178632247E+03  0.24739165579E+03  0.23800115197E+03  0.10029286375E+04  0.90808717651E+03 0.  0.
         23    2    4    4    0    0 -0.10026166149E+03 -0.26426453028E+03 -0.70413447803E+02  0.30364971321E+03  0.85772676145E+02 0.  0.
         23    2    4    4    0    0  0.35204798396E+03  0.51165618607E+03  0.30841459977E+03  0.69927892433E+03  0.90230886688E+02 0.  0.
          4    1    3    3  502    0 -0.18368456558E+03 -0.16477064943E+03  0.62329149330E+03  0.67035936047E+03  0.00000000000E+00 0. -1.
         -4    1    3    3    0  502 -0.68101756886E+02 -0.82621006364E+02  0.14404608632E+03  0.17948079275E+03  0.00000000000E+00 0.  1.
         11    1    5    5    0    0 -0.63652779119E+02 -0.24662871075E+03 -0.62136020508E+02  0.26217986631E+03  0.00000000000E+00 0. -1.
        -11    1    5    5    0    0 -0.36608882376E+02 -0.17635819531E+02 -0.82774272951E+01  0.41469846900E+02  0.00000000000E+00 0.  1.
          3    1    6    6  503    0  0.34546556884E+03  0.48967290737E+03  0.31267740976E+03  0.67593873838E+03  0.00000000000E+00 0. -1.
         -3    1    6    6    0  503  0.65824151163E+01  0.21983278703E+02 -0.42628099951E+01  0.23340185954E+02  0.00000000000E+00 0.  1.
<mgrwt>
<rscale>  0 0.15562925E+04</rscale>
<asrwt>0</asrwt>
<pdfrwt beam="1">  1        2 0.21985442E+00 0.15562925E+04</pdfrwt>
<pdfrwt beam="2">  1       -2 0.65186928E-01 0.15562925E+04</pdfrwt>
<totfact> 0.29071641E+01</totfact>
</mgrwt>
</event>
<event>
12    2  0.3518828E-008  0.1298455E+04  0.7818608E-02  0.9030791E-01
         -1   -1    0    0    0  501 -0.00000000000E+00  0.00000000000E+00  0.36755289874E+03  0.36755289874E+03  0.00000000000E+00 0.  1.
          1   -1    0    0  501    0  0.00000000000E+00 -0.00000000000E+00 -0.11467638513E+04  0.11467638513E+04  0.00000000000E+00 0. -1.
         23    2    1    2    0    0  0.22196199623E+03 -0.67208984651E+02 -0.44353884535E+03  0.50815657698E+03  0.87819268977E+02 0.  0.
        254    2    1    2    0    0 -0.22196199623E+03  0.67208984651E+02 -0.33567210719E+03  0.10061601730E+04  0.91972732637E+03 0.  0.
         23    2    4    4    0    0  0.22939491112E+02 -0.21990263543E+03  0.22249097126E+03  0.32635225408E+03  0.90111997724E+02 0.  0.
         23    2    4    4    0    0 -0.24490148734E+03  0.28711162008E+03 -0.55816307844E+03  0.67980791895E+03  0.90459734922E+02 0.  0.
          3    1    3    3  502    0  0.15291680844E+03 -0.65339804124E+02 -0.37790999057E+03  0.41287867622E+03  0.00000000000E+00 0. -1.
         -3    1    3    3    0  502  0.69045187792E+02 -0.18691805269E+01 -0.65628854786E+02  0.95277900762E+02  0.00000000000E+00 0.  1.
         11    1    5    5    0    0 -0.60982697439E+01 -0.37564511237E+01  0.43872983258E+02  0.44453779129E+02  0.00000000000E+00 0. -1.
        -11    1    5    5    0    0  0.29037760856E+02 -0.21614618430E+03  0.17861798800E+03  0.28189847495E+03  0.00000000000E+00 0.  1.
          3    1    6    6  503    0 -0.17637384455E+03  0.13855645884E+03 -0.31263895757E+03  0.38477102687E+03  0.00000000000E+00 0. -1.
         -3    1    6    6    0  503 -0.68527642789E+02  0.14855516124E+03 -0.24552412087E+03  0.29503689207E+03  0.00000000000E+00 0.  1.
<mgrwt>
<rscale>  0 0.12984550E+04</rscale>
<asrwt>0</asrwt>
<pdfrwt beam="1">  1        1 0.17642521E+00 0.12984550E+04</pdfrwt>
<pdfrwt beam="2">  1       -1 0.56546600E-01 0.12984550E+04</pdfrwt>
<totfact> 0.36377453E+01</totfact>
</mgrwt>
</event>
<event>
12    2  0.3518828E-008  0.1348798E+04  0.7818608E-02  0.8991738E-01
          1   -1    0    0  501    0  0.00000000000E+00  0.00000000000E+00  0.12258652176E+04  0.12258652176E+04  0.00000000000E+00 0. -1.
         -1   -1    0    0    0  501 -0.00000000000E+00 -0.00000000000E+00 -0.37101486124E+03  0.37101486124E+03  0.00000000000E+00 0.  1.
         23    2    1    2    0    0 -0.74188920671E+02  0.37480297004E+03  0.31580927032E+03  0.50401535503E+03  0.91185089685E+02 0.  0.
        254    2    1    2    0    0  0.74188920671E+02 -0.37480297004E+03  0.53904108598E+03  0.10928647238E+04  0.87052096458E+03 0.  0.
         23    2    4    4    0    0 -0.35834044295E+02  0.21597824239E+03  0.40561607779E+03  0.46949503932E+03  0.89277709789E+02 0.  0.
         23    2    4    4    0    0  0.11002296497E+03 -0.59078121243E+03  0.13342500819E+03  0.62336968445E+03  0.98285486680E+02 0.  0.
          2    1    3    3  502    0 -0.17978774398E+02  0.86740830893E+02  0.12768076210E+03  0.15540136770E+03  0.00000000000E+00 0. -1.
         -2    1    3    3    0  502 -0.56210146274E+02  0.28806213915E+03  0.18812850823E+03  0.34861398733E+03  0.00000000000E+00 0.  1.
         11    1    5    5    0    0  0.20990592654E+02  0.45464866708E+02  0.48564047463E+02  0.69757621740E+02  0.00000000000E+00 0. -1.
        -11    1    5    5    0    0 -0.56824636950E+02  0.17051337568E+03  0.35705203033E+03  0.39973741758E+03  0.00000000000E+00 0.  1.
          3    1    6    6  503    0  0.19380580128E+01  0.32412950828E+01  0.46914521062E+01  0.60226062082E+01  0.00000000000E+00 0. -1.
         -3    1    6    6    0  503  0.10808490695E+03 -0.59402250752E+03  0.12873355609E+03  0.61734707824E+03  0.00000000000E+00 0.  1.
<mgrwt>
<rscale>  0 0.13487983E+04</rscale>
<asrwt>0</asrwt>
<pdfrwt beam="1">  1        1 0.18859465E+00 0.13487983E+04</pdfrwt>
<pdfrwt beam="2">  1       -1 0.57079210E-01 0.13487983E+04</pdfrwt>
<totfact> 0.31122370E+01</totfact>
</mgrwt>
</event>
<event>
12    2  0.3518828E-008  0.1829007E+04  0.7818608E-02  0.8691024E-01
          1   -1    0    0  501    0  0.00000000000E+00  0.00000000000E+00  0.71308997167E+03  0.71308997167E+03  0.00000000000E+00 0. -1.
         -1   -1    0    0    0  501 -0.00000000000E+00 -0.00000000000E+00 -0.11728065899E+04  0.11728065899E+04  0.00000000000E+00 0.  1.
         23    2    1    2    0    0  0.42687531886E+03 -0.54970055460E+03 -0.15223514492E+03  0.71792276901E+03  0.88568196015E+02 0.  0.
        254    2    1    2    0    0 -0.42687531886E+03  0.54970055460E+03 -0.30748147335E+03  0.11679737926E+04  0.88612904600E+03 0.  0.
         23    2    4    4    0    0 -0.29428108534E+03 -0.16058063665E+03  0.59689247727E+02  0.35237296010E+03  0.90644352626E+02 0.  0.
         23    2    4    4    0    0 -0.13259423352E+03  0.71028119125E+03 -0.36717072108E+03  0.81560083250E+03  0.91157984529E+02 0.  0.
          1    1    3    3  502    0  0.83538229477E+02 -0.81599265812E+02  0.36707485119E+01  0.11683556975E+03  0.00000000000E+00 0. -1.
         -1    1    3    3    0  502  0.34333708938E+03 -0.46810128879E+03 -0.15590589343E+03  0.60108719926E+03  0.00000000000E+00 0.  1.
         11    1    5    5    0    0 -0.22370431288E+03 -0.16241656338E+03  0.52724339267E+02  0.28142959264E+03  0.00000000000E+00 0. -1.
        -11    1    5    5    0    0 -0.70576772454E+02  0.18359267295E+01  0.69649084597E+01  0.70943367462E+02  0.00000000000E+00 0.  1.
          1    1    6    6  503    0 -0.65845760779E+02  0.54915348229E+03 -0.29511935820E+03  0.62689763671E+03  0.00000000000E+00 0. -1.
         -1    1    6    6    0  503 -0.66748472744E+02  0.16112770896E+03 -0.72051362876E+02  0.18870319579E+03  0.00000000000E+00 0.  1.
<mgrwt>
<rscale>  0 0.18290070E+04</rscale>
<asrwt>0</asrwt>
<pdfrwt beam="1">  1        1 0.10970615E+00 0.18290070E+04</pdfrwt>
<pdfrwt beam="2">  1       -1 0.18043178E+00 0.18290070E+04</pdfrwt>
<totfact> 0.51503961E+00</totfact>
</mgrwt>
</event>
<event>
12    2  0.3518828E-008  0.1463583E+04  0.7818608E-02  0.8909038E-01
         -1   -1    0    0    0  501 -0.00000000000E+00  0.00000000000E+00  0.27674224983E+03  0.27674224983E+03  0.00000000000E+00 0.  1.
          1   -1    0    0  501    0  0.00000000000E+00 -0.00000000000E+00 -0.19350814788E+04  0.19350814788E+04  0.00000000000E+00 0. -1.
         23    2    1    2    0    0 -0.18531851490E+03 -0.33170440830E+03 -0.16507703279E+03  0.42447350821E+03  0.92501707913E+02 0.  0.
        254    2    1    2    0    0  0.18531851490E+03  0.33170440830E+03 -0.14932621962E+04  0.17873502204E+04  0.90576931800E+03 0.  0.
         23    2    4    4    0    0  0.40735118819E+03  0.11178877583E+03 -0.24377537879E+03  0.49623671601E+03  0.91611801074E+02 0.  0.
         23    2    4    4    0    0 -0.22203267328E+03  0.21991563248E+03 -0.12494868174E+04  0.12911135044E+04  0.89974335312E+02 0.  0.
          2    1    3    3  502    0 -0.12297542371E+03 -0.25698008958E+03 -0.16063666527E+03  0.32705635525E+03  0.00000000000E+00 0.  1.
         -2    1    3    3    0  502 -0.62343091193E+02 -0.74724318727E+02 -0.44403675112E+01  0.97417152968E+02  0.00000000000E+00 0. -1.
         11    1    5    5    0    0  0.26922302508E+03  0.35410661432E+02 -0.18119170345E+03  0.32644354118E+03  0.00000000000E+00 0. -1.
        -11    1    5    5    0    0  0.13812816311E+03  0.76378114395E+02 -0.62583675338E+02  0.16979317484E+03  0.00000000000E+00 0.  1.
          1    1    6    6  503    0 -0.18283332823E+03  0.21265211919E+03 -0.10049056891E+04  0.10433045546E+04  0.00000000000E+00 0. -1.
         -1    1    6    6    0  503 -0.39199345055E+02  0.72635132848E+01 -0.24458112827E+03  0.24780894976E+03  0.00000000000E+00 0.  1.
<mgrwt>
<rscale>  0 0.14635830E+04</rscale>
<asrwt>0</asrwt>
<pdfrwt beam="1">  1        1 0.29770484E+00 0.14635830E+04</pdfrwt>
<pdfrwt beam="2">  1       -1 0.42575731E-01 0.14635830E+04</pdfrwt>
<totfact> 0.17382261E+01</totfact>
</mgrwt>
</event>
<event>
12    2  0.3518828E-008  0.1316278E+04  0.7818608E-02  0.9016756E-01
         -2   -1    0    0    0  501 -0.00000000000E+00  0.00000000000E+00  0.20334778414E+03  0.20334778414E+03  0.00000000000E+00 0.  1.
          2   -1    0    0  501    0  0.00000000000E+00 -0.00000000000E+00 -0.21300783247E+04  0.21300783247E+04  0.00000000000E+00 0. -1.
         23    2    1    2    0    0  0.22129847563E+03  0.22216486136E+03 -0.31428011081E+03  0.45349823402E+03  0.92511725026E+02 0.  0.
        254    2    1    2    0    0 -0.22129847563E+03 -0.22216486136E+03 -0.16124504298E+04  0.18799278749E+04  0.91422217499E+03 0.  0.
         23    2    4    4    0    0  0.32821815285E+03  0.53144634013E+02 -0.57009867039E+03  0.66642997818E+03  0.92546819754E+02 0.  0.
         23    2    4    4    0    0 -0.54951662848E+03 -0.27530949537E+03 -0.10423517594E+04  0.12134978967E+04  0.91192717488E+02 0.  0.
          4    1    3    3  502    0  0.16137273106E+03  0.19993130117E+03 -0.28334177149E+03  0.38248691872E+03  0.00000000000E+00 0. -1.
         -4    1    3    3    0  502  0.59925744567E+02  0.22233560190E+02 -0.30938339312E+02  0.71011315296E+02  0.00000000000E+00 0.  1.
         11    1    5    5    0    0  0.14916790683E+03  0.18648993854E+02 -0.34790808898E+03  0.37899721341E+03  0.00000000000E+00 0.  1.
        -11    1    5    5    0    0  0.17905024602E+03  0.34495640159E+02 -0.22219058141E+03  0.28743276476E+03  0.00000000000E+00 0. -1.
          4    1    6    6  503    0 -0.15399383827E+02  0.17722664874E+01 -0.95672632911E+01  0.18215775515E+02  0.00000000000E+00 0. -1.
         -4    1    6    6    0  503 -0.53411724466E+03 -0.27708176186E+03 -0.10327844961E+04  0.11952821212E+04  0.00000000000E+00 0.  1.
<mgrwt>
<rscale>  0 0.13162776E+04</rscale>
<asrwt>0</asrwt>
<pdfrwt beam="1">  1        2 0.32770435E+00 0.13162776E+04</pdfrwt>
<pdfrwt beam="2">  1       -2 0.31284275E-01 0.13162776E+04</pdfrwt>
<totfact> 0.52543206E+01</totfact>
</mgrwt>
</event>
<event>
12    2  0.3518828E-008  0.1216561E+04  0.7818608E-02  0.9098483E-01
          2   -1    0    0  501    0  0.00000000000E+00  0.00000000000E+00  0.77700615642E+03  0.77700615642E+03  0.00000000000E+00 0. -1.
         -2   -1    0    0    0  501 -0.00000000000E+00 -0.00000000000E+00 -0.47619325184E+03  0.47619325184E+03  0.00000000000E+00 0.  1.
         23    2    1    2    0    0 -0.10935014520E+03  0.24188420000E+03  0.10594389620E+03  0.29944455550E+03  0.89316920073E+02 0.  0.
        254    2    1    2    0    0  0.10935014520E+03 -0.24188420000E+03  0.19486900838E+03  0.95375485276E+03  0.89510276967E+03 0.  0.
         23    2    4    4    0    0  0.25632433700E+03 -0.46485455471E+03  0.33832953018E+03  0.63600250811E+03  0.90776630039E+02 0.  0.
         23    2    4    4    0    0 -0.14697419180E+03  0.22297035471E+03 -0.14346052180E+03  0.31775234464E+03  0.95228352259E+02 0.  0.
          2    1    3    3  502    0  0.10595531330E+02  0.16638353887E+02  0.24747369619E+02  0.31646996813E+02  0.00000000000E+00 0. -1.
         -2    1    3    3    0  502 -0.11994567653E+03  0.22524584611E+03  0.81196526585E+02  0.26779755869E+03  0.00000000000E+00 0.  1.
         11    1    5    5    0    0  0.13862450563E+03 -0.22905386579E+03  0.22252712084E+03  0.34813897584E+03  0.00000000000E+00 0.  1.
        -11    1    5    5    0    0  0.11769983138E+03 -0.23580068892E+03  0.11580240934E+03  0.28786353227E+03  0.00000000000E+00 0. -1.
          4    1    6    6  503    0 -0.15450533380E+03  0.17569933037E+03 -0.10548170739E+03  0.25664867711E+03  0.00000000000E+00 0. -1.
         -4    1    6    6    0  503  0.75311420045E+01  0.47271024343E+02 -0.37978814408E+02  0.61103667534E+02  0.00000000000E+00 0.  1.
<mgrwt>
<rscale>  0 0.12165609E+04</rscale>
<asrwt>0</asrwt>
<pdfrwt beam="1">  1        2 0.11953941E+00 0.12165609E+04</pdfrwt>
<pdfrwt beam="2">  1       -2 0.73260501E-01 0.12165609E+04</pdfrwt>
<totfact> 0.59385812E+01</totfact>
</mgrwt>
</event>
<event>
12    2  0.3518828E-008  0.1081907E+04  0.7818608E-02  0.9223008E-01
          1   -1    0    0  501    0  0.00000000000E+00  0.00000000000E+00  0.49102981517E+03  0.49102981517E+03  0.00000000000E+00 0. -1.
         -1   -1    0    0    0  501 -0.00000000000E+00 -0.00000000000E+00 -0.59595334688E+03  0.59595334688E+03  0.00000000000E+00 0.  1.
         23    2    1    2    0    0 -0.49926896612E+02  0.35427471426E+02  0.11909509315E+03  0.16235517480E+03  0.91802836738E+02 0.  0.
        254    2    1    2    0    0  0.49926896612E+02 -0.35427471426E+02 -0.22401862487E+03  0.92462798725E+03  0.89498869813E+03 0.  0.
         23    2    4    4    0    0  0.35767312629E+03  0.18587359132E+03  0.91515690744E+02  0.42276628570E+03  0.88753329218E+02 0.  0.
         23    2    4    4    0    0 -0.30774622968E+03 -0.22130106275E+03 -0.31553431562E+03  0.50186170156E+03  0.92851283812E+02 0.  0.
          1    1    3    3  502    0 -0.24056872877E+02  0.50479066490E+02  0.12002385451E+03  0.13241070553E+03  0.00000000000E+00 0. -1.
         -1    1    3    3    0  502 -0.25870023735E+02 -0.15051595064E+02 -0.92876136129E+00  0.29944469267E+02  0.00000000000E+00 0.  1.
         11    1    5    5    0    0  0.21526720915E+03  0.70513491857E+02  0.75615504439E+02  0.23880918822E+03  0.00000000000E+00 0. -1.
        -11    1    5    5    0    0  0.14240591714E+03  0.11536009947E+03  0.15900186304E+02  0.18395709747E+03  0.00000000000E+00 0.  1.
          1    1    6    6  503    0 -0.38963123677E+02 -0.18441588442E+02 -0.80148578472E+02  0.91005559291E+02  0.00000000000E+00 0. -1.
         -1    1    6    6    0  503 -0.26878310600E+03 -0.20285947431E+03 -0.23538573714E+03  0.41085614227E+03  0.00000000000E+00 0.  1.
<mgrwt>
<rscale>  0 0.10819073E+04</rscale>
<asrwt>0</asrwt>
<pdfrwt beam="1">  1        1 0.75543048E-01 0.10819073E+04</pdfrwt>
<pdfrwt beam="2">  1       -1 0.91685130E-01 0.10819073E+04</pdfrwt>
<totfact> 0.52590443E+01</totfact>
</mgrwt>
</event>
<event>
12    2  0.3518828E-008  0.1115599E+04  0.7818608E-02  0.9190120E-01
         -1   -1    0    0    0  501 -0.00000000000E+00  0.00000000000E+00  0.13591301683E+04  0.13591301683E+04  0.00000000000E+00 0.  1.
          1   -1    0    0  501    0  0.00000000000E+00 -0.00000000000E+00 -0.22892592132E+03  0.22892592132E+03  0.00000000000E+00 0. -1.
         23    2    1    2    0    0 -0.10416357584E+03  0.12569749132E+03  0.83581466095E+02  0.19842977715E+03  0.75753581638E+02 0.  0.
        254    2    1    2    0    0  0.10416357584E+03 -0.12569749132E+03  0.10466227809E+04  0.13896263124E+04  0.89943989959E+03 0.  0.
         23    2    4    4    0    0 -0.32731320936E+03 -0.17874788940E+03  0.19717891938E+03  0.43117681080E+03  0.89158123198E+02 0.  0.
         23    2    4    4    0    0  0.43147678521E+03  0.53050398086E+02  0.84944386148E+03  0.95844950165E+03  0.89911136654E+02 0.  0.
          3    1    3    3  502    0 -0.48685187242E+02  0.27015263489E+02 -0.32247698836E+01  0.55771597242E+02  0.00000000000E+00 0. -1.
         -3    1    3    3    0  502 -0.55478388602E+02  0.98682227828E+02  0.86806235979E+02  0.14265817991E+03  0.00000000000E+00 0.  1.
         11    1    5    5    0    0 -0.23188931679E+03 -0.16375663299E+03  0.16975403135E+03  0.33076475213E+03  0.00000000000E+00 0.  1.
        -11    1    5    5    0    0 -0.95423892574E+02 -0.14991256408E+02  0.27424888026E+02  0.10041205867E+03  0.00000000000E+00 0. -1.
          3    1    6    6  503    0  0.10221799494E+03  0.98216963427E+01  0.12688978890E+03  0.16323603381E+03  0.00000000000E+00 0. -1.
         -3    1    6    6    0  503  0.32925879027E+03  0.43228701744E+02  0.72255407258E+03  0.79521346783E+03  0.00000000000E+00 0.  1.
<mgrwt>
<rscale>  0 0.11155987E+04</rscale>
<asrwt>0</asrwt>
<pdfrwt beam="1">  1        1 0.35219373E-01 0.11155987E+04</pdfrwt>
<pdfrwt beam="2">  1       -1 0.20909694E+00 0.11155987E+04</pdfrwt>
<totfact> 0.16208137E+01</totfact>
</mgrwt>
</event>
<event>
12    2  0.3518828E-008  0.1487478E+04  0.7818608E-02  0.8892823E-01
          2   -1    0    0  501    0  0.00000000000E+00  0.00000000000E+00  0.23862142746E+04  0.23862142746E+04  0.00000000000E+00 0. -1.
         -2   -1    0    0    0  501 -0.00000000000E+00 -0.00000000000E+00 -0.23180974744E+03  0.23180974744E+03  0.00000000000E+00 0.  1.
         23    2    1    2    0    0 -0.36188059139E+03 -0.15652132169E+03  0.12304230977E+04  0.12952921933E+04  0.91566260634E+02 0.  0.
        254    2    1    2    0    0  0.36188059139E+03  0.15652132169E+03  0.92398142948E+03  0.13227318288E+04  0.86047738044E+03 0.  0.
         23    2    4    4    0    0  0.28440848604E+03 -0.30534971697E+03  0.63053343887E+03  0.76250051717E+03  0.98529105154E+02 0.  0.
         23    2    4    4    0    0  0.77472105355E+02  0.46187103865E+03  0.29344799061E+03  0.56023131160E+03  0.91763913654E+02 0.  0.
          2    1    3    3  502    0 -0.30075323106E+03 -0.13092285611E+03  0.11144532957E+04  0.11617226212E+04  0.00000000000E+00 0. -1.
         -2    1    3    3    0  502 -0.61127360336E+02 -0.25598465574E+02  0.11596980200E+03  0.13356957213E+03  0.00000000000E+00 0.  1.
         11    1    5    5    0    0  0.13071523375E+03 -0.17537030468E+03  0.40437953753E+03  0.45974343548E+03  0.00000000000E+00 0. -1.
        -11    1    5    5    0    0  0.15369325229E+03 -0.12997941229E+03  0.22615390134E+03  0.30275708169E+03  0.00000000000E+00 0.  1.
          2    1    6    6  503    0  0.81107603371E+02  0.35638144499E+03  0.18791806336E+03  0.41097369283E+03  0.00000000000E+00 0. -1.
         -2    1    6    6    0  503 -0.36354980162E+01  0.10548959366E+03  0.10552992725E+03  0.14925761877E+03  0.00000000000E+00 0.  1.
<mgrwt>
<rscale>  0 0.14874780E+04</rscale>
<asrwt>0</asrwt>
<pdfrwt beam="1">  1        2 0.36710987E+00 0.14874780E+04</pdfrwt>
<pdfrwt beam="2">  1       -2 0.35663040E-01 0.14874780E+04</pdfrwt>
<totfact> 0.28995170E+01</totfact>
</mgrwt>
</event>
<event>
12    2  0.3518828E-008  0.1145897E+04  0.7818608E-02  0.9161577E-01
         -1   -1    0    0    0  501 -0.00000000000E+00  0.00000000000E+00  0.38514161395E+03  0.38514161395E+03  0.00000000000E+00 0.  1.
          1   -1    0    0  501    0  0.00000000000E+00 -0.00000000000E+00 -0.85233546432E+03  0.85233546432E+03  0.00000000000E+00 0. -1.
         23    2    1    2    0    0  0.63826041222E+02 -0.12393764913E+03  0.60917425910E+02  0.17592175460E+03  0.88335873518E+02 0.  0.
        254    2    1    2    0    0 -0.63826041222E+02  0.12393764913E+03 -0.52811127628E+03  0.10615553237E+04  0.91025484381E+03 0.  0.
         23    2    4    4    0    0 -0.20242153091E+03  0.57247923154E+02  0.20468588876E+03  0.30749154145E+03  0.91667519466E+02 0.  0.
         23    2    4    4    0    0  0.13859548969E+03  0.66689725979E+02 -0.73279716505E+03  0.75406378222E+03  0.89242776993E+02 0.  0.
          3    1    3    3  502    0  0.17069433166E+02 -0.70631057587E+01 -0.19251289285E+02  0.26680801163E+02  0.00000000000E+00 0. -1.
         -3    1    3    3    0  502  0.46756608055E+02 -0.11687454337E+03  0.80168715194E+02  0.14924095343E+03  0.00000000000E+00 0.  1.
         11    1    5    5    0    0 -0.11351376409E+03 -0.12290118145E+02  0.80663660426E+02  0.13979645116E+03  0.00000000000E+00 0. -1.
        -11    1    5    5    0    0 -0.88907766819E+02  0.69538041300E+02  0.12402222834E+03  0.16769509030E+03  0.00000000000E+00 0.  1.
          2    1    6    6  503    0  0.12758799964E+03  0.41820537347E+02 -0.44060704860E+03  0.46061071012E+03  0.00000000000E+00 0. -1.
         -2    1    6    6    0  503  0.11007490050E+02  0.24869188632E+02 -0.29219011645E+03  0.29345307211E+03  0.00000000000E+00 0.  1.
<mgrwt>
<rscale>  0 0.11458968E+04</rscale>
<asrwt>0</asrwt>
<pdfrwt beam="1">  1        1 0.13112853E+00 0.11458968E+04</pdfrwt>
<pdfrwt beam="2">  1       -1 0.59252557E-01 0.11458968E+04</pdfrwt>
<totfact> 0.57188924E+01</totfact>
</mgrwt>
</event>
<event>
12    2  0.3518828E-008  0.1460601E+04  0.7818608E-02  0.8911084E-01
          2   -1    0    0  501    0  0.00000000000E+00  0.00000000000E+00  0.12303116883E+04  0.12303116883E+04  0.00000000000E+00 0. -1.
         -2   -1    0    0    0  501 -0.00000000000E+00 -0.00000000000E+00 -0.43349892529E+03  0.43349892529E+03  0.00000000000E+00 0.  1.
         23    2    1    2    0    0  0.28757805409E+02  0.17012908774E+03 -0.21858775819E+03  0.29190856342E+03  0.87516189920E+02 0.  0.
        254    2    1    2    0    0 -0.28757805409E+02 -0.17012908774E+03  0.10154005212E+04  0.13719020502E+04  0.90625939938E+03 0.  0.
         23    2    4    4    0    0 -0.16208530664E+02  0.20975989535E+03  0.94545135332E+03  0.97315891831E+03  0.94329680518E+02 0.  0.
         23    2    4    4    0    0 -0.12549274745E+02 -0.37988898309E+03  0.69949167884E+02  0.39874313187E+03  0.98132947377E+02 0.  0.
          4    1    3    3  502    0  0.66073370566E+00  0.38589434080E+02 -0.42050968201E+01  0.38823495862E+02  0.00000000000E+00 0. -1.
         -4    1    3    3    0  502  0.28097071703E+02  0.13153965366E+03 -0.21438266137E+03  0.25308506755E+03  0.00000000000E+00 0.  1.
         11    1    5    5    0    0 -0.30471319274E+02  0.47515601977E+02  0.13199772450E+03  0.14356055518E+03  0.00000000000E+00 0. -1.
        -11    1    5    5    0    0  0.14262788611E+02  0.16224429337E+03  0.81345362882E+03  0.82959836313E+03  0.00000000000E+00 0.  1.
          3    1    6    6  503    0  0.13225143078E+02 -0.54999187824E+02  0.44254712075E+02  0.71821268518E+02  0.00000000000E+00 0. -1.
         -3    1    6    6    0  503 -0.25774417824E+02 -0.32488979526E+03  0.25694455809E+02  0.32692186336E+03  0.00000000000E+00 0.  1.
<mgrwt>
<rscale>  0 0.14606010E+04</rscale>
<asrwt>0</asrwt>
<pdfrwt beam="1">  1        2 0.18927872E+00 0.14606010E+04</pdfrwt>
<pdfrwt beam="2">  1       -2 0.66692143E-01 0.14606010E+04</pdfrwt>
<totfact> 0.36364414E+01</totfact>
</mgrwt>
</event>
<event>
12    2  0.3518828E-008  0.3524608E+04  0.7818608E-02  0.8107983E-01
         -1   -1    0    0    0  501 -0.00000000000E+00  0.00000000000E+00  0.97407192925E+03  0.97407192925E+03  0.00000000000E+00 0.  1.
          1   -1    0    0  501    0  0.00000000000E+00 -0.00000000000E+00 -0.31883837032E+04  0.31883837032E+04  0.00000000000E+00 0. -1.
         23    2    1    2    0    0 -0.10617660403E+04 -0.98808278853E+03 -0.19516249375E+04  0.24334740705E+04  0.96443940216E+02 0.  0.
        254    2    1    2    0    0  0.10617660403E+04  0.98808278853E+03 -0.26268683644E+03  0.17289815620E+04  0.90372459647E+03 0.  0.
         23    2    4    4    0    0 -0.14067346905E+03  0.34060226120E+02 -0.40292999232E+02  0.17508273446E+03  0.89896130181E+02 0.  0.
         23    2    4    4    0    0  0.12024395094E+04  0.95402256241E+03 -0.22239383720E+03  0.15538988275E+04  0.95512952301E+02 0.  0.
          4    1    3    3  502    0 -0.69666426272E+03 -0.67622202965E+03 -0.13725132591E+04  0.16811930213E+04  0.00000000000E+00 0. -1.
         -4    1    3    3    0  502 -0.36510177759E+03 -0.31186075889E+03 -0.57911167841E+03  0.75228104921E+03  0.00000000000E+00 0.  1.
         11    1    5    5    0    0 -0.41456534078E+02 -0.26477144336E+02  0.68374908402E+01  0.49663212451E+02  0.00000000000E+00 0.  1.
        -11    1    5    5    0    0 -0.99216934974E+02  0.60537370456E+02 -0.47130490072E+02  0.12541952201E+03  0.00000000000E+00 0. -1.
          2    1    6    6  503    0  0.97165363130E+03  0.78144442006E+03 -0.14359457240E+03  0.12551436420E+04  0.00000000000E+00 0. -1.
         -2    1    6    6    0  503  0.23078587806E+03  0.17257814235E+03 -0.78799264802E+02  0.29875518550E+03  0.00000000000E+00 0.  1.
<mgrwt>
<rscale>  0 0.35246078E+04</rscale>
<asrwt>0</asrwt>
<pdfrwt beam="1">  1        1 0.49052056E+00 0.35246078E+04</pdfrwt>
<pdfrwt beam="2">  1       -1 0.14985722E+00 0.35246078E+04</pdfrwt>
<totfact> 0.12338539E-01</totfact>
</mgrwt>
</event>
<event>
12    2  0.3518828E-008  0.1274782E+04  0.7818608E-02  0.9049806E-01
         -2   -1    0    0    0  501 -0.00000000000E+00  0.00000000000E+00  0.14809211979E+03  0.14809211979E+03  0.00000000000E+00 0. -1.
          2   -1    0    0  501    0  0.00000000000E+00 -0.00000000000E+00 -0.27433402327E+04  0.27433402327E+04  0.00000000000E+00 0.  1.
         23    2    1    2    0    0  0.16038230906E+03 -0.76881738573E+01 -0.13043369464E+04  0.13163190203E+04  0.74961993317E+02 0.  0.
        254    2    1    2    0    0 -0.16038230906E+03  0.76881738573E+01 -0.12909111665E+04  0.15751133322E+04  0.88811529446E+03 0.  0.
         23    2    4    4    0    0  0.68396242642E+02 -0.24170970611E+03 -0.11759075887E+04  0.12058431865E+04  0.90540076053E+02 0.  0.
         23    2    4    4    0    0 -0.22877855170E+03  0.24939787996E+03 -0.11500357786E+03  0.36927014566E+03  0.92712940315E+02 0.  0.
          3    1    3    3  502    0  0.46477595073E+01 -0.17666473988E+02 -0.22764257099E+03  0.22837435517E+03  0.00000000000E+00 0. -1.
         -3    1    3    3    0  502  0.15573454955E+03  0.99783001311E+01 -0.10766943754E+04  0.10879446652E+04  0.00000000000E+00 0.  1.
         11    1    5    5    0    0  0.75118208667E+02 -0.13670114699E+03 -0.82014174821E+03  0.83484276126E+03  0.00000000000E+00 0. -1.
        -11    1    5    5    0    0 -0.67219660244E+01 -0.10500855912E+03 -0.35576584044E+03  0.37100042526E+03  0.00000000000E+00 0.  1.
          1    1    6    6  503    0 -0.23365188157E+03  0.23052333331E+03 -0.95841217798E+02  0.34193529796E+03  0.00000000000E+00 0. -1.
         -1    1    6    6    0  503  0.48733298655E+01  0.18874546652E+02 -0.19162360067E+02  0.27334847697E+02  0.00000000000E+00 0.  1.
<mgrwt>
<rscale>  0 0.12747817E+04</rscale>
<asrwt>0</asrwt>
<pdfrwt beam="1">  1        2 0.42205233E+00 0.12747817E+04</pdfrwt>
<pdfrwt beam="2">  1       -2 0.22783404E-01 0.12747817E+04</pdfrwt>
<totfact> 0.42002127E+01</totfact>
</mgrwt>
</event>
<event>
12    2  0.3518828E-008  0.1486186E+04  0.7818608E-02  0.8893691E-01
         -1   -1    0    0    0  501 -0.00000000000E+00  0.00000000000E+00  0.92646770983E+03  0.92646770983E+03  0.00000000000E+00 0.  1.
          1   -1    0    0  501    0  0.00000000000E+00 -0.00000000000E+00 -0.59601357359E+03  0.59601357359E+03  0.00000000000E+00 0. -1.
         23    2    1    2    0    0  0.94362022541E+02  0.22422825688E+03 -0.29816137906E+03  0.39542026989E+03  0.90964165450E+02 0.  0.
        254    2    1    2    0    0 -0.94362022541E+02 -0.22422825688E+03  0.62861551530E+03  0.11270610135E+04  0.90328653244E+03 0.  0.
         23    2    4    4    0    0  0.11028560421E+03 -0.31824460770E+03 -0.96924064406E+02  0.36195819409E+03  0.90426296956E+02 0.  0.
         23    2    4    4    0    0 -0.20464762675E+03  0.94016350823E+02  0.72553957971E+03  0.76510281945E+03  0.90856575176E+02 0.  0.
          1    1    3    3  502    0  0.15658279133E+02  0.14871757922E+03 -0.19029346472E+03  0.24202004626E+03  0.00000000000E+00 0. -1.
         -1    1    3    3    0  502  0.78703743408E+02  0.75510677659E+02 -0.10786791434E+03  0.15340022363E+03  0.00000000000E+00 0.  1.
         11    1    5    5    0    0  0.69335360914E+02 -0.22166149488E+03 -0.22511846321E+02  0.23334093899E+03  0.00000000000E+00 0.  1.
        -11    1    5    5    0    0  0.40950243298E+02 -0.96583112820E+02 -0.74412218086E+02  0.12861725510E+03  0.00000000000E+00 0. -1.
          1    1    6    6  503    0 -0.18453859268E+03  0.63285514071E+02  0.67501238844E+03  0.70263879272E+03  0.00000000000E+00 0. -1.
         -1    1    6    6    0  503 -0.20109034070E+02  0.30730836752E+02  0.50527191265E+02  0.62464026734E+02  0.00000000000E+00 0.  1.
<mgrwt>
<rscale>  0 0.14861862E+04</rscale>
<asrwt>0</asrwt>
<pdfrwt beam="1">  1        1 0.91694395E-01 0.14861862E+04</pdfrwt>
<pdfrwt beam="2">  1       -1 0.14253349E+00 0.14861862E+04</pdfrwt>
<totfact> 0.13392374E+01</totfact>
</mgrwt>
</event>
<event>
12    2  0.3518828E-008  0.2049356E+04  0.7818608E-02  0.8583887E-01
          2   -1    0    0  501    0  0.00000000000E+00  0.00000000000E+00  0.12011896326E+04  0.12011896326E+04  0.00000000000E+00 0. -1.
         -2   -1    0    0    0  501 -0.00000000000E+00 -0.00000000000E+00 -0.87410398044E+03  0.87410398044E+03  0.00000000000E+00 0.  1.
         23    2    1    2    0    0  0.71389719237E+03 -0.29272397368E+03 -0.16770721653E+03  0.79482515871E+03  0.91020856922E+02 0.  0.
        254    2    1    2    0    0 -0.71389719237E+03  0.29272397368E+03  0.49479286866E+03  0.12804684543E+04  0.89411573833E+03 0.  0.
         23    2    4    4    0    0 -0.85546902781E+03  0.23351573514E+02  0.39395224579E+03  0.94620570507E+03  0.87944930589E+02 0.  0.
         23    2    4    4    0    0  0.14157183544E+03  0.26937240017E+03  0.10084062287E+03  0.33426274922E+03  0.94650302350E+02 0.  0.
          3    1    3    3  502    0  0.34884436095E+03 -0.15672318021E+03 -0.38370286468E+02  0.38435247140E+03  0.00000000000E+00 0. -1.
         -3    1    3    3    0  502  0.36505283142E+03 -0.13600079347E+03 -0.12933693007E+03  0.41047268731E+03  0.00000000000E+00 0.  1.
         11    1    5    5    0    0 -0.52943039985E+03  0.19962009490E+02  0.28998244040E+03  0.60397420959E+03  0.00000000000E+00 0.  1.
        -11    1    5    5    0    0 -0.32603862797E+03  0.33895640241E+01  0.10396980539E+03  0.34223149549E+03  0.00000000000E+00 0. -1.
          2    1    6    6  503    0  0.86418787557E+01  0.11122460166E+03  0.44651973239E+02  0.12016402455E+03  0.00000000000E+00 0. -1.
         -2    1    6    6    0  503  0.13292995669E+03  0.15814779851E+03  0.56188649626E+02  0.21409872467E+03  0.00000000000E+00 0.  1.
<mgrwt>
<rscale>  0 0.20493556E+04</rscale>
<asrwt>0</asrwt>
<pdfrwt beam="1">  1        2 0.18479841E+00 0.20493556E+04</pdfrwt>
<pdfrwt beam="2">  1       -2 0.13447754E+00 0.20493556E+04</pdfrwt>
<totfact> 0.69729632E+00</totfact>
</mgrwt>
</event>
<event>
12    2  0.3518828E-008  0.2534589E+04  0.7818608E-02  0.8390766E-01
          2   -1    0    0  501    0  0.00000000000E+00  0.00000000000E+00  0.29769537504E+04  0.29769537504E+04  0.00000000000E+00 0. -1.
         -2   -1    0    0    0  501 -0.00000000000E+00 -0.00000000000E+00 -0.53948943023E+03  0.53948943023E+03  0.00000000000E+00 0.  1.
         23    2    1    2    0    0 -0.39335511152E+03  0.69103487569E+03  0.21011371917E+04  0.22484159187E+04  0.91319230504E+02 0.  0.
        254    2    1    2    0    0  0.39335511152E+03 -0.69103487569E+03  0.33632712851E+03  0.12680272620E+04  0.92871941758E+03 0.  0.
         23    2    4    4    0    0 -0.23769628983E+03 -0.31980077043E+03 -0.86748355332E+02  0.41795745889E+03  0.91602954749E+02 0.  0.
         23    2    4    4    0    0  0.63105140134E+03 -0.37123410526E+03  0.42307548384E+03  0.85006980310E+03  0.87092899076E+02 0.  0.
          1    1    3    3  502    0 -0.16786488350E+03  0.34460928911E+03  0.11193044772E+04  0.11831215889E+04  0.00000000000E+00 0. -1.
         -1    1    3    3    0  502 -0.22549022802E+03  0.34642558658E+03  0.98183271444E+03  0.10652943298E+04  0.00000000000E+00 0.  1.
         11    1    5    5    0    0 -0.99632273249E+02 -0.16190803453E+03  0.22342521556E+01  0.19012047076E+03  0.00000000000E+00 0. -1.
        -11    1    5    5    0    0 -0.13806401658E+03 -0.15789273590E+03 -0.88982607487E+02  0.22783698813E+03  0.00000000000E+00 0.  1.
          2    1    6    6  503    0  0.11956361851E+03 -0.78068888441E+02  0.45038095189E+02  0.14972855516E+03  0.00000000000E+00 0. -1.
         -2    1    6    6    0  503  0.51148778284E+03 -0.29316521682E+03  0.37803738865E+03  0.70034124793E+03  0.00000000000E+00 0.  1.
<mgrwt>
<rscale>  0 0.25345888E+04</rscale>
<asrwt>0</asrwt>
<pdfrwt beam="1">  1        2 0.45799288E+00 0.25345888E+04</pdfrwt>
<pdfrwt beam="2">  1       -2 0.82998375E-01 0.25345888E+04</pdfrwt>
<totfact> 0.20362817E+00</totfact>
</mgrwt>
</event>
<event>
12    2  0.3518828E-008  0.1902107E+04  0.7818608E-02  0.8653808E-01
         -2   -1    0    0    0  501 -0.00000000000E+00  0.00000000000E+00  0.56634790806E+03  0.56634790806E+03  0.00000000000E+00 0.  1.
          2   -1    0    0  501    0  0.00000000000E+00 -0.00000000000E+00 -0.15970792968E+04  0.15970792968E+04  0.00000000000E+00 0. -1.
         23    2    1    2    0    0 -0.56560900738E+03 -0.40901444471E+03 -0.66192580789E+03  0.96625750440E+03  0.91112153120E+02 0.  0.
        254    2    1    2    0    0  0.56560900738E+03  0.40901444471E+03 -0.36880558083E+03  0.11971697004E+04  0.89999520554E+03 0.  0.
         23    2    4    4    0    0  0.57268813148E+03  0.82511155891E+01  0.82054005168E+02  0.58557919388E+03  0.90168485033E+02 0.  0.
         23    2    4    4    0    0 -0.70791240977E+01  0.40076332913E+03 -0.45085958600E+03  0.61159050657E+03  0.10053467793E+03 0.  0.
          1    1    3    3  502    0 -0.33952283671E+03 -0.26843177378E+03 -0.46389423477E+03  0.63445191691E+03  0.00000000000E+00 0. -1.
         -1    1    3    3    0  502 -0.22608617067E+03 -0.14058267093E+03 -0.19803157312E+03  0.33180558749E+03  0.00000000000E+00 0.  1.
         11    1    5    5    0    0  0.41165434753E+03  0.21911226859E+02  0.20843520768E+02  0.41276368065E+03  0.00000000000E+00 0.  1.
        -11    1    5    5    0    0  0.16103378394E+03 -0.13660111270E+02  0.61210484400E+02  0.17281551323E+03  0.00000000000E+00 0. -1.
          1    1    6    6  503    0 -0.17864457682E+02  0.40195316170E+03 -0.43760162539E+03  0.59445829592E+03  0.00000000000E+00 0. -1.
         -1    1    6    6    0  503  0.10785333584E+02 -0.11898325724E+01 -0.13257960609E+02  0.17132210645E+02  0.00000000000E+00 0.  1.
<mgrwt>
<rscale>  0 0.19021067E+04</rscale>
<asrwt>0</asrwt>
<pdfrwt beam="1">  1        2 0.24570451E+00 0.19021067E+04</pdfrwt>
<pdfrwt beam="2">  1       -2 0.87130446E-01 0.19021067E+04</pdfrwt>
<totfact> 0.11935151E+01</totfact>
</mgrwt>
</event>
<event>
12    2  0.3518828E-008  0.1186801E+04  0.7818608E-02  0.9124488E-01
         -1   -1    0    0    0  501 -0.00000000000E+00  0.00000000000E+00  0.47831902547E+03  0.47831902547E+03  0.00000000000E+00 0.  1.
          1   -1    0    0  501    0  0.00000000000E+00 -0.00000000000E+00 -0.73617047119E+03  0.73617047119E+03  0.00000000000E+00 0. -1.
         23    2    1    2    0    0 -0.13213158907E+03  0.68548325523E+02 -0.24585590787E+03  0.30111512739E+03  0.89819612248E+02 0.  0.
        254    2    1    2    0    0  0.13213158907E+03 -0.68548325523E+02 -0.11995537849E+02  0.91337436928E+03  0.90108335672E+03 0.  0.
         23    2    4    4    0    0  0.17431768465E+03 -0.44510528433E+03  0.12189560579E+03  0.50261271351E+03  0.96206193928E+02 0.  0.
         23    2    4    4    0    0 -0.42186095579E+02  0.37655695881E+03 -0.13389114364E+03  0.41076165577E+03  0.84991114958E+02 0.  0.
          4    1    3    3  502    0  0.63766809027E+01  0.42919341307E+01 -0.60420545090E+02  0.60907512073E+02  0.00000000000E+00 0.  1.
         -4    1    3    3    0  502 -0.13850826997E+03  0.64256391393E+02 -0.18543536278E+03  0.24020761531E+03  0.00000000000E+00 0. -1.
         11    1    5    5    0    0  0.13946765039E+03 -0.39650359633E+03  0.75782449303E+02  0.42709402599E+03  0.00000000000E+00 0.  1.
        -11    1    5    5    0    0  0.34850034261E+02 -0.48601687995E+02  0.46113156485E+02  0.75518687522E+02  0.00000000000E+00 0. -1.
          1    1    6    6  503    0 -0.14725094633E+02  0.20285589513E+02  0.79707385985E+01  0.26303350122E+02  0.00000000000E+00 0. -1.
         -1    1    6    6    0  503 -0.27461000946E+02  0.35627136929E+03 -0.14186188224E+03  0.38445830565E+03  0.00000000000E+00 0.  1.
<mgrwt>
<rscale>  0 0.11868013E+04</rscale>
<asrwt>0</asrwt>
<pdfrwt beam="1">  1        1 0.11325700E+00 0.11868013E+04</pdfrwt>
<pdfrwt beam="2">  1       -1 0.73587543E-01 0.11868013E+04</pdfrwt>
<totfact> 0.46485503E+01</totfact>
</mgrwt>
</event>
<event>
12    2  0.3518828E-008  0.1692822E+04  0.7818608E-02  0.8765469E-01
          1   -1    0    0  501    0  0.00000000000E+00  0.00000000000E+00  0.13494073241E+04  0.13494073241E+04  0.00000000000E+00 0. -1.
         -1   -1    0    0    0  501 -0.00000000000E+00 -0.00000000000E+00 -0.53090837378E+03  0.53090837378E+03  0.00000000000E+00 0.  1.
         23    2    1    2    0    0  0.14135753153E+03 -0.42822429420E+03  0.73591159487E+03  0.86799184341E+03  0.92119307891E+02 0.  0.
        254    2    1    2    0    0 -0.14135753153E+03  0.42822429420E+03  0.82587355454E+02  0.10123238545E+04  0.90256352529E+03 0.  0.
         23    2    4    4    0    0  0.28925464470E+03 -0.90981461084E+02  0.96455393558E+02  0.33102889228E+03  0.91272169015E+02 0.  0.
         23    2    4    4    0    0 -0.43061217622E+03  0.51920575528E+03 -0.13868038104E+02  0.68129496219E+03  0.94705017801E+02 0.  0.
          4    1    3    3  502    0  0.10911310681E+03 -0.19153614361E+03  0.38117032916E+03  0.44032100134E+03  0.00000000000E+00 0. -1.
         -4    1    3    3    0  502  0.32244424715E+02 -0.23668815059E+03  0.35474126572E+03  0.42767084207E+03  0.00000000000E+00 0.  1.
         11    1    5    5    0    0  0.81142903497E+02  0.13930849798E+02  0.38409455759E+02  0.90848916646E+02  0.00000000000E+00 0.  1.
        -11    1    5    5    0    0  0.20811174120E+03 -0.10491231088E+03  0.58045937800E+02  0.24017997563E+03  0.00000000000E+00 0. -1.
          3    1    6    6  503    0 -0.21055999178E+03  0.27449742471E+03  0.38376850259E+02  0.34807632632E+03  0.00000000000E+00 0. -1.
         -3    1    6    6    0  503 -0.22005218445E+03  0.24470833057E+03 -0.52244888363E+02  0.33321863587E+03  0.00000000000E+00 0.  1.
<mgrwt>
<rscale>  0 0.16928221E+04</rscale>
<asrwt>0</asrwt>
<pdfrwt beam="1">  1        1 0.20760113E+00 0.16928221E+04</pdfrwt>
<pdfrwt beam="2">  1       -1 0.81678212E-01 0.16928221E+04</pdfrwt>
<totfact> 0.11851679E+01</totfact>
</mgrwt>
</event>
<event>
12    2  0.3518828E-008  0.1574973E+04  0.7818608E-02  0.8836072E-01
         -1   -1    0    0    0  501 -0.00000000000E+00  0.00000000000E+00  0.78549362066E+03  0.78549362066E+03  0.00000000000E+00 0.  1.
          1   -1    0    0  501    0  0.00000000000E+00 -0.00000000000E+00 -0.78948427187E+03  0.78948427187E+03  0.00000000000E+00 0. -1.
         23    2    1    2    0    0  0.16532553283E+03  0.45485935931E+03 -0.19505882079E+03  0.52980277459E+03  0.91724957535E+02 0.  0.
        254    2    1    2    0    0 -0.16532553283E+03 -0.45485935931E+03  0.19106816957E+03  0.10451751179E+04  0.90645155037E+03 0.  0.
         23    2    4    4    0    0  0.29356563079E+03 -0.32120401105E+03 -0.12813096893E+03  0.46324454633E+03  0.93942366459E+02 0.  0.
         23    2    4    4    0    0 -0.45889116361E+03 -0.13365534827E+03  0.31919913850E+03  0.58193057161E+03  0.91160561591E+02 0.  0.
          3    1    3    3  502    0  0.15955032930E+03  0.36281014807E+03 -0.18380419609E+03  0.43688842239E+03  0.00000000000E+00 0. -1.
         -3    1    3    3    0  502  0.57752035291E+01  0.92049211247E+02 -0.11254624695E+02  0.92914352196E+02  0.00000000000E+00 0.  1.
         11    1    5    5    0    0  0.13839989002E+03 -0.12030562012E+03 -0.97131683628E+02  0.20751514585E+03  0.00000000000E+00 0.  1.
        -11    1    5    5    0    0  0.15516574076E+03 -0.20089839093E+03 -0.30999285299E+02  0.25572940049E+03  0.00000000000E+00 0. -1.
          1    1    6    6  503    0 -0.57368890915E+02 -0.47969726210E+01  0.75296214935E+02  0.94782490866E+02  0.00000000000E+00 0. -1.
         -1    1    6    6    0  503 -0.40152227270E+03 -0.12885837564E+03  0.24390292357E+03  0.48714808074E+03  0.00000000000E+00 0.  1.
<mgrwt>
<rscale>  0 0.15749728E+04</rscale>
<asrwt>0</asrwt>
<pdfrwt beam="1">  1        1 0.12145912E+00 0.15749728E+04</pdfrwt>
<pdfrwt beam="2">  1       -1 0.12084517E+00 0.15749728E+04</pdfrwt>
<totfact> 0.13216607E+01</totfact>
</mgrwt>
</event>
<event>
12    2  0.3518828E-008  0.1179758E+04  0.7818608E-02  0.9130761E-01
          2   -1    0    0  501    0  0.00000000000E+00  0.00000000000E+00  0.22301315741E+04  0.22301315741E+04  0.00000000000E+00 0. -1.
         -2   -1    0    0    0  501 -0.00000000000E+00 -0.00000000000E+00 -0.15602550293E+03  0.15602550293E+03  0.00000000000E+00 0.  1.
         23    2    1    2    0    0 -0.60085526470E+02 -0.20297321239E+03  0.23028878701E+03  0.32586056636E+03  0.91344336691E+02 0.  0.
        254    2    1    2    0    0  0.60085526470E+02  0.20297321239E+03  0.18438172841E+04  0.20602965107E+04  0.89462346217E+03 0.  0.
         23    2    4    4    0    0  0.10672641321E+03 -0.22697935117E+03  0.14254362092E+03  0.30247708040E+03  0.90904054754E+02 0.  0.
         23    2    4    4    0    0 -0.46640886737E+02  0.42995256356E+03  0.17012736632E+04  0.17578194303E+04  0.92533739549E+02 0.  0.
          3    1    3    3  502    0 -0.59598731145E+02 -0.14940797828E+03  0.21796483799E+03  0.27089374915E+03  0.00000000000E+00 0. -1.
         -3    1    3    3    0  502 -0.48679532442E+00 -0.53565234103E+02  0.12323949020E+02  0.54966817205E+02  0.00000000000E+00 0.  1.
         11    1    5    5    0    0  0.78622853994E+02 -0.17556830190E+03  0.60496295341E+02  0.20165709398E+03  0.00000000000E+00 0.  1.
        -11    1    5    5    0    0  0.28103559213E+02 -0.51411049266E+02  0.82047325580E+02  0.10081998642E+03  0.00000000000E+00 0. -1.
          2    1    6    6  503    0 -0.12840227070E+02  0.73379166572E+01  0.11183128882E+03  0.11280493612E+03  0.00000000000E+00 0. -1.
         -2    1    6    6    0  503 -0.33800659667E+02  0.42261464690E+03  0.15894423744E+04  0.16450144941E+04  0.00000000000E+00 0.  1.
<mgrwt>
<rscale>  0 0.11797583E+04</rscale>
<asrwt>0</asrwt>
<pdfrwt beam="1">  1        2 0.34309714E+00 0.11797583E+04</pdfrwt>
<pdfrwt beam="2">  1       -2 0.24003925E-01 0.11797583E+04</pdfrwt>
<totfact> 0.76031216E+01</totfact>
</mgrwt>
</event>
<event>
12    2  0.3518828E-008  0.2519667E+04  0.7818608E-02  0.8396013E-01
          2   -1    0    0  501    0  0.00000000000E+00  0.00000000000E+00  0.34595624666E+04  0.34595624666E+04  0.00000000000E+00 0. -1.
         -2   -1    0    0    0  501 -0.00000000000E+00 -0.00000000000E+00 -0.45878056658E+03  0.45878056658E+03  0.00000000000E+00 0.  1.
         23    2    1    2    0    0  0.61390394477E+03  0.83331476038E+03  0.18783694023E+04  0.21466726142E+04  0.92952449456E+02 0.  0.
        254    2    1    2    0    0 -0.61390394477E+03 -0.83331476038E+03  0.11224124977E+04  0.17716704189E+04  0.89872950052E+03 0.  0.
         23    2    4    4    0    0 -0.12230606519E+03 -0.12467139306E+03 -0.13873426345E+03  0.24123029253E+03  0.91886497116E+02 0.  0.
         23    2    4    4    0    0 -0.49159787958E+03 -0.70864336732E+03  0.12611467612E+04  0.15304401264E+04  0.88949031059E+02 0.  0.
          1    1    3    3  502    0  0.36920624063E+02  0.81346027716E+02  0.12693484875E+03  0.15521844134E+03  0.00000000000E+00 0. -1.
         -1    1    3    3    0  502  0.57698332070E+03  0.75196873266E+03  0.17514345536E+04  0.19914541729E+04  0.00000000000E+00 0.  1.
         11    1    5    5    0    0  0.15210386035E+02 -0.15917645603E+02 -0.14940196678E+02  0.26607081044E+02  0.00000000000E+00 0. -1.
        -11    1    5    5    0    0 -0.13751645122E+03 -0.10875374745E+03 -0.12379406677E+03  0.21462321149E+03  0.00000000000E+00 0.  1.
          1    1    6    6  503    0 -0.22710057448E+03 -0.27130228274E+03  0.46376096111E+03  0.58331280510E+03  0.00000000000E+00 0. -1.
         -1    1    6    6    0  503 -0.26449730510E+03 -0.43734108459E+03  0.79738580004E+03  0.94712732132E+03  0.00000000000E+00 0.  1.
<mgrwt>
<rscale>  0 0.25196667E+04</rscale>
<asrwt>0</asrwt>
<pdfrwt beam="1">  1        2 0.53224036E+00 0.25196667E+04</pdfrwt>
<pdfrwt beam="2">  1       -2 0.70581628E-01 0.25196667E+04</pdfrwt>
<totfact> 0.14116524E+00</totfact>
</mgrwt>
</event>
<event>
12    2  0.3518828E-008  0.2229667E+04  0.7818608E-02  0.8506181E-01
          1   -1    0    0  501    0  0.00000000000E+00  0.00000000000E+00  0.11250397143E+04  0.11250397143E+04  0.00000000000E+00 0. -1.
         -1   -1    0    0    0  501 -0.00000000000E+00 -0.00000000000E+00 -0.11047195761E+04  0.11047195761E+04  0.00000000000E+00 0.  1.
         23    2    1    2    0    0  0.22575971730E+03 -0.21687599378E+03  0.88694667551E+03  0.94537864079E+03  0.95203585205E+02 0.  0.
        254    2    1    2    0    0 -0.22575971730E+03  0.21687599378E+03 -0.86662653739E+03  0.12843806496E+04  0.89475664351E+03 0.  0.
         23    2    4    4    0    0 -0.26862428614E+03 -0.87380850712E+02  0.60759848841E+02  0.30320219699E+03  0.91898818565E+02 0.  0.
         23    2    4    4    0    0  0.42864568843E+02  0.30425684449E+03 -0.92738638623E+03  0.98117845260E+03  0.90862796551E+02 0.  0.
          1    1    3    3  502    0  0.11251682272E+03 -0.16885536868E+03  0.59211230136E+03  0.62591464941E+03  0.00000000000E+00 0. -1.
         -1    1    3    3    0  502  0.11324289458E+03 -0.48020625099E+02  0.29483437415E+03  0.31946399138E+03  0.00000000000E+00 0.  1.
         11    1    5    5    0    0 -0.10268128824E+03  0.12054708939E+02  0.26622332579E+02  0.10675912867E+03  0.00000000000E+00 0. -1.
        -11    1    5    5    0    0 -0.16594299790E+03 -0.99435559651E+02  0.34137516262E+02  0.19644306832E+03  0.00000000000E+00 0.  1.
          3    1    6    6  503    0  0.43432118959E+02  0.26569456299E+03 -0.87898883674E+03  0.91929392735E+03  0.00000000000E+00 0. -1.
         -3    1    6    6    0  503 -0.56755011597E+00  0.38562281507E+02 -0.48397549493E+02  0.61884525247E+02  0.00000000000E+00 0.  1.
<mgrwt>
<rscale>  0 0.22296667E+04</rscale>
<asrwt>0</asrwt>
<pdfrwt beam="1">  1        1 0.17308303E+00 0.22296667E+04</pdfrwt>
<pdfrwt beam="2">  1       -1 0.16995686E+00 0.22296667E+04</pdfrwt>
<totfact> 0.27189539E+00</totfact>
</mgrwt>
</event>
<event>
12    2  0.3518828E-008  0.1718378E+04  0.7818608E-02  0.8750952E-01
          1   -1    0    0  501    0  0.00000000000E+00  0.00000000000E+00  0.16934562958E+04  0.16934562958E+04  0.00000000000E+00 0. -1.
         -1   -1    0    0    0  501 -0.00000000000E+00 -0.00000000000E+00 -0.43591651486E+03  0.43591651486E+03  0.00000000000E+00 0.  1.
         23    2    1    2    0    0 -0.44807388505E+03 -0.24663724574E+03  0.29943693075E+02  0.52038906653E+03  0.91148331590E+02 0.  0.
        254    2    1    2    0    0  0.44807388505E+03  0.24663724574E+03  0.12275960878E+04  0.16089837441E+04  0.90566903253E+03 0.  0.
         23    2    4    4    0    0  0.30903041233E+03 -0.31086810463E+03  0.64568362583E+03  0.78578550003E+03  0.91720952690E+02 0.  0.
         23    2    4    4    0    0  0.13904347272E+03  0.55750535037E+03  0.58191246201E+03  0.82319824409E+03  0.94275832666E+02 0.  0.
          2    1    3    3  502    0 -0.55330282930E+02 -0.15010965863E+02 -0.22157850273E+02  0.61463319419E+02  0.00000000000E+00 0. -1.
         -2    1    3    3    0  502 -0.39274360212E+03 -0.23162627988E+03  0.52101543348E+02  0.45892574711E+03  0.00000000000E+00 0.  1.
         11    1    5    5    0    0  0.22875901435E+03 -0.18322673119E+03  0.47392075283E+03  0.55722850038E+03  0.00000000000E+00 0. -1.
        -11    1    5    5    0    0  0.80271397984E+02 -0.12764137344E+03  0.17176287300E+03  0.22855699965E+03  0.00000000000E+00 0.  1.
          4    1    6    6  503    0  0.27697015067E+02  0.14081645147E+03  0.91960695978E+02  0.17044989661E+03  0.00000000000E+00 0. -1.
         -4    1    6    6    0  503  0.11134645765E+03  0.41668889890E+03  0.48995176603E+03  0.65274834748E+03  0.00000000000E+00 0.  1.
<mgrwt>
<rscale>  0 0.17183778E+04</rscale>
<asrwt>0</asrwt>
<pdfrwt beam="1">  1        1 0.26053173E+00 0.17183778E+04</pdfrwt>
<pdfrwt beam="2">  1       -1 0.67064080E-01 0.17183778E+04</pdfrwt>
<totfact> 0.10304440E+01</totfact>
</mgrwt>
</event>
<event>
12    2  0.3518828E-008  0.1891919E+04  0.7818608E-02  0.8658889E-01
          3   -1    0    0  501    0  0.00000000000E+00  0.00000000000E+00  0.93294331698E+03  0.93294331698E+03  0.00000000000E+00 0. -1.
         -3   -1    0    0    0  501 -0.00000000000E+00 -0.00000000000E+00 -0.95915692098E+03  0.95915692098E+03  0.00000000000E+00 0.  1.
         23    2    1    2    0    0  0.72647883629E+03  0.62863668458E+02  0.91389621552E+01  0.73523784507E+03  0.93636679792E+02 0.  0.
        254    2    1    2    0    0 -0.72647883629E+03 -0.62863668458E+02 -0.35352566151E+02  0.11568623929E+04  0.89741710022E+03 0.  0.
         23    2    4    4    0    0 -0.17596978287E+03 -0.24559949118E+03 -0.36585301241E+03  0.48324272137E+03  0.91600363064E+02 0.  0.
         23    2    4    4    0    0 -0.55050905342E+03  0.18273582273E+03  0.33050044626E+03  0.67361967153E+03  0.89890589545E+02 0.  0.
          3    1    3    3  502    0  0.94827792810E+02  0.22685073858E+02 -0.27327371332E+02  0.10126059495E+03  0.00000000000E+00 0. -1.
         -3    1    3    3    0  502  0.63165104348E+03  0.40178594600E+02  0.36466333487E+02  0.63397725012E+03  0.00000000000E+00 0.  1.
         11    1    5    5    0    0 -0.48763054030E+01 -0.30804785207E+02 -0.80554386752E+01  0.32211849346E+02  0.00000000000E+00 0. -1.
        -11    1    5    5    0    0 -0.17109347747E+03 -0.21479470598E+03 -0.35779757373E+03  0.45103087202E+03  0.00000000000E+00 0.  1.
          2    1    6    6  503    0 -0.38446378431E+03  0.86873455828E+02  0.20294645464E+03  0.44333583459E+03  0.00000000000E+00 0.  1.
         -2    1    6    6    0  503 -0.16604526911E+03  0.95862366898E+02  0.12755399161E+03  0.23028383694E+03  0.00000000000E+00 0. -1.
<mgrwt>
<rscale>  0 0.18919186E+04</rscale>
<asrwt>0</asrwt>
<pdfrwt beam="1">  1        3 0.14352974E+00 0.18919186E+04</pdfrwt>
<pdfrwt beam="2">  1       -3 0.14756260E+00 0.18919186E+04</pdfrwt>
<totfact> 0.29883244E-01</totfact>
</mgrwt>
</event>
<event>
12    2  0.3518828E-008  0.3888540E+04  0.7818608E-02  0.8027417E-01
         -1   -1    0    0    0  501 -0.00000000000E+00  0.00000000000E+00  0.17101962747E+04  0.17101962747E+04  0.00000000000E+00 0.  1.
          1   -1    0    0  501    0  0.00000000000E+00 -0.00000000000E+00 -0.22103814302E+04  0.22103814302E+04  0.00000000000E+00 0. -1.
         23    2    1    2    0    0  0.15915849590E+04 -0.90738695279E+03 -0.11157860022E+03  0.18376756244E+04  0.90045281295E+02 0.  0.
        254    2    1    2    0    0 -0.15915849590E+04  0.90738695279E+03 -0.38860655524E+03  0.20829020805E+04  0.91157679773E+03 0.  0.
         23    2    4    4    0    0  0.68059785031E+02  0.12913705651E+02  0.79023376205E+02  0.13799886399E+03  0.89443246499E+02 0.  0.
         23    2    4    4    0    0 -0.16596447440E+04  0.89447324714E+03 -0.46762993145E+03  0.19449032165E+04  0.97302119020E+02 0.  0.
          4    1    3    3  502    0  0.13762145380E+04 -0.77787247524E+03 -0.12669635432E+03  0.15859079445E+04  0.00000000000E+00 0.  1.
         -4    1    3    3    0  502  0.21537042100E+03 -0.12951447755E+03  0.15117754099E+02  0.25176767986E+03  0.00000000000E+00 0. -1.
         11    1    5    5    0    0 -0.32682533629E+01 -0.29789662193E+02  0.22355599193E+02  0.37388210293E+02  0.00000000000E+00 0.  1.
        -11    1    5    5    0    0  0.71328038394E+02  0.42703367844E+02  0.56667777011E+02  0.10061065370E+03  0.00000000000E+00 0. -1.
          2    1    6    6  503    0 -0.11909101839E+04  0.61313435932E+03 -0.36920909235E+03  0.13894301575E+04  0.00000000000E+00 0. -1.
         -2    1    6    6    0  503 -0.46873456016E+03  0.28133888782E+03 -0.98420839100E+02  0.55547305899E+03  0.00000000000E+00 0.  1.
<mgrwt>
<rscale>  0 0.38885401E+04</rscale>
<asrwt>0</asrwt>
<pdfrwt beam="1">  1        1 0.34005868E+00 0.38885401E+04</pdfrwt>
<pdfrwt beam="2">  1       -1 0.26310712E+00 0.38885401E+04</pdfrwt>
<totfact> 0.96965474E-02</totfact>
</mgrwt>
</event>
<event>
12    2  0.3518828E-008  0.2639580E+04  0.7818608E-02  0.8354880E-01
         -1   -1    0    0    0  501 -0.00000000000E+00  0.00000000000E+00  0.12226725705E+04  0.12226725705E+04  0.00000000000E+00 0.  1.
          1   -1    0    0  501    0  0.00000000000E+00 -0.00000000000E+00 -0.14246215239E+04  0.14246215239E+04  0.00000000000E+00 0. -1.
         23    2    1    2    0    0 -0.94617676304E+03 -0.29745055798E+03  0.52717046429E+03  0.11269063617E+04  0.91005209470E+02 0.  0.
        254    2    1    2    0    0  0.94617676304E+03  0.29745055798E+03 -0.72911941772E+03  0.15203877327E+04  0.89232081181E+03 0.  0.
         23    2    4    4    0    0  0.51131117636E+03 -0.25557738168E+03 -0.13290489429E+03  0.59360685417E+03  0.89142971100E+02 0.  0.
         23    2    4    4    0    0  0.43486558668E+03  0.55302793967E+03 -0.59621452344E+03  0.92678087856E+03  0.92212029491E+02 0.  0.
          4    1    3    3  502    0 -0.21449971035E+03 -0.82483418317E+02  0.82752833726E+02  0.24425738787E+03  0.00000000000E+00 0. -1.
         -4    1    3    3    0  502 -0.73167705269E+03 -0.21496713967E+03  0.44441763056E+03  0.88264897378E+03  0.00000000000E+00 0.  1.
         11    1    5    5    0    0  0.44451684087E+03 -0.20305093106E+03 -0.13995106995E+03  0.50834162175E+03  0.00000000000E+00 0.  1.
        -11    1    5    5    0    0  0.66794335488E+02 -0.52526450623E+02  0.70461756678E+01  0.85265232422E+02  0.00000000000E+00 0. -1.
          1    1    6    6  503    0  0.24850960195E+03  0.25058152298E+03 -0.26824804813E+03  0.44328899969E+03  0.00000000000E+00 0. -1.
         -1    1    6    6    0  503  0.18635598473E+03  0.30244641668E+03 -0.32796647531E+03  0.48349187887E+03  0.00000000000E+00 0.  1.
<mgrwt>
<rscale>  0 0.26395800E+04</rscale>
<asrwt>0</asrwt>
<pdfrwt beam="1">  1        1 0.21917254E+00 0.26395800E+04</pdfrwt>
<pdfrwt beam="2">  1       -1 0.18810347E+00 0.26395800E+04</pdfrwt>
<totfact> 0.11808893E+00</totfact>
</mgrwt>
</event>
<event>
12    2  0.3518828E-008  0.1055631E+04  0.7818608E-02  0.9249550E-01
          1   -1    0    0  501    0  0.00000000000E+00  0.00000000000E+00  0.19538859259E+04  0.19538859259E+04  0.00000000000E+00 0. -1.
         -1   -1    0    0    0  501 -0.00000000000E+00 -0.00000000000E+00 -0.14258207214E+03  0.14258207214E+03  0.00000000000E+00 0.  1.
         23    2    1    2    0    0  0.51202194224E+02  0.95842734247E+01  0.54352779694E+02  0.12113605899E+03  0.94900985966E+02 0.  0.
        254    2    1    2    0    0 -0.51202194224E+02 -0.95842734247E+01  0.17569510740E+04  0.19753319390E+04  0.90130220780E+03 0.  0.
         23    2    4    4    0    0  0.68411780728E+02  0.41863086034E+02  0.18053138770E+04  0.18093928113E+04  0.91167216367E+02 0.  0.
         23    2    4    4    0    0 -0.11961397495E+03 -0.51447359458E+02 -0.48362802958E+02  0.16593912774E+03  0.90788212931E+02 0.  0.
          1    1    3    3  502    0  0.15862636107E+02  0.20680813476E+02  0.74530206736E+02  0.78956133305E+02  0.00000000000E+00 0. -1.
         -1    1    3    3    0  502  0.35339558117E+02 -0.11096540051E+02 -0.20177427042E+02  0.42179925688E+02  0.00000000000E+00 0.  1.
         11    1    5    5    0    0  0.77994666738E+02  0.73820632503E+01  0.91074950225E+03  0.91411285887E+03  0.00000000000E+00 0. -1.
        -11    1    5    5    0    0 -0.95828860104E+01  0.34481022783E+02  0.89456437473E+03  0.89527995240E+03  0.00000000000E+00 0.  1.
          2    1    6    6  503    0 -0.63079785153E+02 -0.28923634655E+02  0.22105462847E+02  0.72830539091E+02  0.00000000000E+00 0. -1.
         -2    1    6    6    0  503 -0.56534189799E+02 -0.22523724803E+02 -0.70468265805E+02  0.93108588652E+02  0.00000000000E+00 0.  1.
<mgrwt>
<rscale>  0 0.10556308E+04</rscale>
<asrwt>0</asrwt>
<pdfrwt beam="1">  1        1 0.30059782E+00 0.10556308E+04</pdfrwt>
<pdfrwt beam="2">  1       -1 0.21935705E-01 0.10556308E+04</pdfrwt>
<totfact> 0.56203097E+01</totfact>
</mgrwt>
</event>
<event>
12    2  0.3518828E-008  0.1697839E+04  0.7818608E-02  0.8762598E-01
          2   -1    0    0  501    0  0.00000000000E+00  0.00000000000E+00  0.23129135353E+04  0.23129135353E+04  0.00000000000E+00 0. -1.
         -2   -1    0    0    0  501 -0.00000000000E+00 -0.00000000000E+00 -0.31158296103E+03  0.31158296103E+03  0.00000000000E+00 0.  1.
         23    2    1    2    0    0  0.23579775446E+03 -0.48560593768E+03  0.28170089037E+03  0.61549126710E+03  0.89779733353E+02 0.  0.
        254    2    1    2    0    0 -0.23579775446E+03  0.48560593768E+03  0.17196296839E+04  0.20090052292E+04  0.88744693002E+03 0.  0.
         23    2    4    4    0    0 -0.21499035433E+03 -0.20139902906E+03  0.79897611737E+03  0.85642835414E+03  0.91237428005E+02 0.  0.
         23    2    4    4    0    0 -0.20807400131E+02  0.68700496675E+03  0.92065356648E+03  0.11525768751E+04  0.91769772854E+02 0.  0.
          1    1    3    3  502    0  0.19402966233E+03 -0.41867436247E+03  0.20324299440E+03  0.50422559081E+03  0.00000000000E+00 0. -1.
         -1    1    3    3    0  502  0.41768092136E+02 -0.66931575208E+02  0.78457895968E+02  0.11126567629E+03  0.00000000000E+00 0.  1.
         11    1    5    5    0    0 -0.89745790899E+02 -0.98911548576E+02  0.48691782857E+03  0.50490273638E+03  0.00000000000E+00 0. -1.
        -11    1    5    5    0    0 -0.12524456343E+03 -0.10248748049E+03  0.31205828881E+03  0.35152561776E+03  0.00000000000E+00 0.  1.
          1    1    6    6  503    0 -0.45618785073E+02  0.31764896825E+03  0.38070859599E+03  0.49791663524E+03  0.00000000000E+00 0. -1.
         -1    1    6    6    0  503  0.24811384943E+02  0.36935599849E+03  0.53994497049E+03  0.65466023982E+03  0.00000000000E+00 0.  1.
<mgrwt>
<rscale>  0 0.16978392E+04</rscale>
<asrwt>0</asrwt>
<pdfrwt beam="1">  1        2 0.35583284E+00 0.16978392E+04</pdfrwt>
<pdfrwt beam="2">  1       -2 0.47935842E-01 0.16978392E+04</pdfrwt>
<totfact> 0.17507780E+01</totfact>
</mgrwt>
</event>
<event>
12    2  0.3518828E-008  0.1334726E+04  0.7818608E-02  0.9002471E-01
          2   -1    0    0  501    0  0.00000000000E+00  0.00000000000E+00  0.32554884072E+04  0.32554884072E+04  0.00000000000E+00 0. -1.
         -2   -1    0    0    0  501 -0.00000000000E+00 -0.00000000000E+00 -0.13680698250E+03  0.13680698250E+03  0.00000000000E+00 0.  1.
         23    2    1    2    0    0  0.19022061594E+03  0.88802773013E+02  0.15982439349E+04  0.16145122582E+04  0.90533647467E+02 0.  0.
        254    2    1    2    0    0 -0.19022061594E+03 -0.88802773013E+02  0.15204374899E+04  0.17777831315E+04  0.89705790613E+03 0.  0.
         23    2    4    4    0    0 -0.18220750902E+03 -0.42561949286E+03  0.12496184062E+04  0.13358455177E+04  0.92658280547E+02 0.  0.
         23    2    4    4    0    0 -0.80131069200E+01  0.33681671985E+03  0.27081908361E+03  0.44193761379E+03  0.91957412899E+02 0.  0.
          4    1    3    3  502    0  0.15086374078E+03  0.25397715252E+02  0.11428311440E+04  0.11530255573E+04  0.00000000000E+00 0. -1.
         -4    1    3    3    0  502  0.39356875156E+02  0.63405057761E+02  0.45541279093E+03  0.46148670091E+03  0.00000000000E+00 0.  1.
         11    1    5    5    0    0 -0.93928600654E+02 -0.25135418015E+03  0.59513608915E+03  0.65283111944E+03  0.00000000000E+00 0.  1.
        -11    1    5    5    0    0 -0.88278908366E+02 -0.17426531271E+03  0.65448231709E+03  0.68301439829E+03  0.00000000000E+00 0. -1.
          1    1    6    6  503    0 -0.47788471549E+02  0.22045834978E+03  0.16185660615E+03  0.27763858333E+03  0.00000000000E+00 0. -1.
         -1    1    6    6    0  503  0.39775364629E+02  0.11635837007E+03  0.10896247746E+03  0.16429903046E+03  0.00000000000E+00 0.  1.
<mgrwt>
<rscale>  0 0.13347263E+04</rscale>
<asrwt>0</asrwt>
<pdfrwt beam="1">  1        2 0.50084431E+00 0.13347263E+04</pdfrwt>
<pdfrwt beam="2">  1       -2 0.21047231E-01 0.13347263E+04</pdfrwt>
<totfact> 0.23113487E+01</totfact>
</mgrwt>
</event>
<event>
12    2  0.3518828E-008  0.2206459E+04  0.7818608E-02  0.8515745E-01
         -2   -1    0    0    0  501 -0.00000000000E+00  0.00000000000E+00  0.52792846764E+03  0.52792846764E+03  0.00000000000E+00 0. -1.
          2   -1    0    0  501    0  0.00000000000E+00 -0.00000000000E+00 -0.23054549015E+04  0.23054549015E+04  0.00000000000E+00 0.  1.
         23    2    1    2    0    0 -0.63502243650E+03  0.47145588382E+03 -0.18605983346E+03  0.81810521377E+03  0.95675147820E+02 0.  0.
        254    2    1    2    0    0  0.63502243650E+03 -0.47145588382E+03 -0.15914666004E+04  0.20152781554E+04  0.95029256447E+03 0.  0.
         23    2    4    4    0    0 -0.66364307624E+02  0.21606259445E+03 -0.37650862465E+03  0.44997851284E+03  0.98156260791E+02 0.  0.
         23    2    4    4    0    0  0.70138674413E+03 -0.68751847827E+03 -0.12149579757E+04  0.15652996425E+04  0.97031259368E+02 0.  0.
          4    1    3    3  502    0 -0.37462850110E+03  0.32890358305E+03 -0.94079229187E+02  0.50732137954E+03  0.00000000000E+00 0. -1.
         -4    1    3    3    0  502 -0.26039393541E+03  0.14255230077E+03 -0.91980604270E+02  0.31078383422E+03  0.00000000000E+00 0.  1.
         11    1    5    5    0    0 -0.56163951671E+02  0.10885519332E+03 -0.11864222537E+03  0.17052806286E+03  0.00000000000E+00 0. -1.
        -11    1    5    5    0    0 -0.10200355953E+02  0.10720740113E+03 -0.25786639928E+03  0.27945044998E+03  0.00000000000E+00 0.  1.
          2    1    6    6  503    0  0.69860932021E+03 -0.67529122349E+03 -0.11823719608E+04  0.15303844852E+04  0.00000000000E+00 0. -1.
         -2    1    6    6    0  503  0.27774239166E+01 -0.12227254782E+02 -0.32586014924E+02  0.34915157335E+02  0.00000000000E+00 0.  1.
<mgrwt>
<rscale>  0 0.22064589E+04</rscale>
<asrwt>0</asrwt>
<pdfrwt beam="1">  1        2 0.35468537E+00 0.22064589E+04</pdfrwt>
<pdfrwt beam="2">  1       -2 0.81219765E-01 0.22064589E+04</pdfrwt>
<totfact> 0.54932339E+00</totfact>
</mgrwt>
</event>
<event>
12    2  0.3518828E-008  0.1554358E+04  0.7818608E-02  0.8849089E-01
         -2   -1    0    0    0  501 -0.00000000000E+00  0.00000000000E+00  0.28368715995E+03  0.28368715995E+03  0.00000000000E+00 0.  1.
          2   -1    0    0  501    0  0.00000000000E+00 -0.00000000000E+00 -0.21291309039E+04  0.21291309039E+04  0.00000000000E+00 0. -1.
         23    2    1    2    0    0 -0.46427593262E+03 -0.17264502788E+03 -0.44143876737E+03  0.66984874522E+03  0.92036454103E+02 0.  0.
        254    2    1    2    0    0  0.46427593262E+03  0.17264502788E+03 -0.14040049766E+04  0.17429693186E+04  0.90628561951E+03 0.  0.
         23    2    4    4    0    0 -0.18774062536E+03  0.21928406477E+03 -0.17940742817E+03  0.35170697252E+03  0.90436307802E+02 0.  0.
         23    2    4    4    0    0  0.65201655797E+03 -0.46639036884E+02 -0.12245975484E+04  0.13912623461E+04  0.93118035120E+02 0.  0.
          2    1    3    3  502    0  0.35272308868E+01  0.10426327606E+01 -0.10662154777E+00  0.36796479393E+01  0.00000000000E+00 0. -1.
         -2    1    3    3    0  502 -0.46780316350E+03 -0.17368766064E+03 -0.44133214582E+03  0.66616909728E+03  0.00000000000E+00 0.  1.
         11    1    5    5    0    0 -0.25542596986E+02 -0.34820766675E+01 -0.24635248810E+02  0.35657321866E+02  0.00000000000E+00 0. -1.
        -11    1    5    5    0    0 -0.16219802837E+03  0.22276614143E+03 -0.15477217936E+03  0.31604965065E+03  0.00000000000E+00 0.  1.
          1    1    6    6  503    0  0.40654390536E+02 -0.36333611437E+01 -0.13607577512E+03  0.14206546856E+03  0.00000000000E+00 0. -1.
         -1    1    6    6    0  503  0.61136216744E+03 -0.43005675740E+02 -0.10885217733E+04  0.12491968775E+04  0.00000000000E+00 0.  1.
<mgrwt>
<rscale>  0 0.15543579E+04</rscale>
<asrwt>0</asrwt>
<pdfrwt beam="1">  1        2 0.32755860E+00 0.15543579E+04</pdfrwt>
<pdfrwt beam="2">  1       -2 0.43644179E-01 0.15543579E+04</pdfrwt>
<totfact> 0.27127934E+01</totfact>
</mgrwt>
</event>
<event>
12    2  0.3518828E-008  0.1899964E+04  0.7818608E-02  0.8654874E-01
          1   -1    0    0  501    0  0.00000000000E+00  0.00000000000E+00  0.13655458397E+04  0.13655458397E+04  0.00000000000E+00 0. -1.
         -1   -1    0    0    0  501 -0.00000000000E+00 -0.00000000000E+00 -0.66088265368E+03  0.66088265368E+03  0.00000000000E+00 0.  1.
         23    2    1    2    0    0 -0.21642321399E+03 -0.31556086657E+03  0.93217498180E+03  0.10118683594E+04  0.92248100610E+02 0.  0.
        254    2    1    2    0    0  0.21642321399E+03  0.31556086657E+03 -0.22751179573E+03  0.10145601340E+04  0.91167591842E+03 0.  0.
         23    2    4    4    0    0  0.52678753958E+03  0.49488156224E+02 -0.25609812867E+03  0.59492365888E+03  0.91617241454E+02 0.  0.
         23    2    4    4    0    0 -0.31036432559E+03  0.26607271034E+03  0.28586332935E+02  0.41963647511E+03  0.90315508207E+02 0.  0.
          2    1    3    3  502    0 -0.22007637056E+03 -0.31376957966E+03  0.93207991701E+03  0.10077985561E+04  0.00000000000E+00 0. -1.
         -2    1    3    3    0  502  0.36531565759E+01 -0.17912869080E+01  0.95064785333E-01  0.40698033206E+01  0.00000000000E+00 0.  1.
         11    1    5    5    0    0  0.34344405155E+03 -0.29962199668E+01 -0.19344720934E+03  0.39418855473E+03  0.00000000000E+00 0. -1.
        -11    1    5    5    0    0  0.18334348803E+03  0.52484376191E+02 -0.62650919322E+02  0.20073510415E+03  0.00000000000E+00 0.  1.
          3    1    6    6  503    0 -0.17962517317E+03  0.20862506237E+03  0.85322898725E+01  0.27543133346E+03  0.00000000000E+00 0. -1.
         -3    1    6    6    0  503 -0.13073915242E+03  0.57447647978E+02  0.20054043062E+02  0.14420514164E+03  0.00000000000E+00 0.  1.
<mgrwt>
<rscale>  0 0.18999637E+04</rscale>
<asrwt>0</asrwt>
<pdfrwt beam="1">  1        1 0.21008397E+00 0.18999637E+04</pdfrwt>
<pdfrwt beam="2">  1       -1 0.10167425E+00 0.18999637E+04</pdfrwt>
<totfact> 0.69739460E+00</totfact>
</mgrwt>
</event>
<event>
12    2  0.3518828E-008  0.1567453E+04  0.7818608E-02  0.8840796E-01
          1   -1    0    0  501    0  0.00000000000E+00  0.00000000000E+00  0.17365331011E+04  0.17365331011E+04  0.00000000000E+00 0. -1.
         -1   -1    0    0    0  501 -0.00000000000E+00 -0.00000000000E+00 -0.35370877577E+03  0.35370877577E+03  0.00000000000E+00 0.  1.
         23    2    1    2    0    0 -0.22803037438E+03  0.46827941904E+03  0.54561525433E+03  0.75952322213E+03  0.88859739195E+02 0.  0.
        254    2    1    2    0    0  0.22803037438E+03 -0.46827941904E+03  0.83720907102E+03  0.13307186548E+04  0.89364962015E+03 0.  0.
         23    2    4    4    0    0  0.21421927504E+03 -0.49965147604E+03  0.99983177619E+03  0.11416712519E+04  0.90598959852E+02 0.  0.
         23    2    4    4    0    0  0.13811099345E+02  0.31372057006E+02 -0.16262270517E+03  0.18904740282E+03  0.90098966968E+02 0.  0.
          4    1    3    3  502    0 -0.15613314791E+03  0.26124819860E+03  0.36713260016E+03  0.47687999250E+03  0.00000000000E+00 0. -1.
         -4    1    3    3    0  502 -0.71897226468E+02  0.20703122044E+03  0.17848265417E+03  0.28264322962E+03  0.00000000000E+00 0.  1.
         11    1    5    5    0    0  0.10809419612E+03 -0.18800434270E+03  0.47441303550E+03  0.52162986529E+03  0.00000000000E+00 0.  1.
        -11    1    5    5    0    0  0.10612507892E+03 -0.31164713335E+03  0.52541874069E+03  0.62004138665E+03  0.00000000000E+00 0. -1.
          3    1    6    6  503    0  0.13831898937E+02  0.55338460938E+02 -0.56626676107E+02  0.80375662574E+02  0.00000000000E+00 0. -1.
         -3    1    6    6    0  503 -0.20799592130E-01 -0.23966403932E+02 -0.10599602906E+03  0.10867174024E+03  0.00000000000E+00 0.  1.
<mgrwt>
<rscale>  0 0.15674527E+04</rscale>
<asrwt>0</asrwt>
<pdfrwt beam="1">  1        1 0.26715893E+00 0.15674527E+04</pdfrwt>
<pdfrwt beam="2">  1       -1 0.54416736E-01 0.15674527E+04</pdfrwt>
<totfact> 0.14768904E+01</totfact>
</mgrwt>
</event>
<event>
12    2  0.3518828E-008  0.2849961E+04  0.7818608E-02  0.8287923E-01
          2   -1    0    0  501    0  0.00000000000E+00  0.00000000000E+00  0.14788638068E+04  0.14788638068E+04  0.00000000000E+00 0. -1.
         -2   -1    0    0    0  501 -0.00000000000E+00 -0.00000000000E+00 -0.13730607991E+04  0.13730607991E+04  0.00000000000E+00 0.  1.
         23    2    1    2    0    0  0.49077010694E+02 -0.52597039582E+03 -0.11208138659E+04  0.12424150920E+04  0.91203775863E+02 0.  0.
        254    2    1    2    0    0 -0.49077010694E+02  0.52597039582E+03  0.12266168736E+04  0.16095095138E+04  0.89826416513E+03 0.  0.
         23    2    4    4    0    0  0.39979899544E+03  0.11404254869E+03  0.47324464799E+03  0.63663255148E+03  0.92171411448E+02 0.  0.
         23    2    4    4    0    0 -0.44887600613E+03  0.41192784714E+03  0.75337222558E+03  0.97287696236E+03  0.88009394343E+02 0.  0.
          4    1    3    3  502    0  0.49884541761E+02 -0.11816223036E+03 -0.26719631622E+03  0.29638598413E+03  0.00000000000E+00 0. -1.
         -4    1    3    3    0  502 -0.80753106721E+00 -0.40780816547E+03 -0.85361754966E+03  0.94602910791E+03  0.00000000000E+00 0.  1.
         11    1    5    5    0    0  0.12318001939E+03  0.69947971458E+02  0.20196760208E+03  0.24669201077E+03  0.00000000000E+00 0. -1.
        -11    1    5    5    0    0  0.27661897605E+03  0.44094577231E+02  0.27127704591E+03  0.38994054071E+03  0.00000000000E+00 0.  1.
          2    1    6    6  503    0 -0.40104874105E+03  0.33766243895E+03  0.67582788262E+03  0.85533580674E+03  0.00000000000E+00 0.  1.
         -2    1    6    6    0  503 -0.47827265084E+02  0.74265408191E+02  0.77544342960E+02  0.11754115562E+03  0.00000000000E+00 0. -1.
<mgrwt>
<rscale>  0 0.28499613E+04</rscale>
<asrwt>0</asrwt>
<pdfrwt beam="1">  1        2 0.22751751E+00 0.28499613E+04</pdfrwt>
<pdfrwt beam="2">  1       -2 0.21124012E+00 0.28499613E+04</pdfrwt>
<totfact> 0.12713584E+00</totfact>
</mgrwt>
</event>
<event>
12    2  0.3518828E-008  0.1813306E+04  0.7818608E-02  0.8699255E-01
          1   -1    0    0  501    0  0.00000000000E+00  0.00000000000E+00  0.27334779933E+04  0.27334779933E+04  0.00000000000E+00 0. -1.
         -1   -1    0    0    0  501 -0.00000000000E+00 -0.00000000000E+00 -0.30072299346E+03  0.30072299346E+03  0.00000000000E+00 0.  1.
         23    2    1    2    0    0 -0.52198958301E+03 -0.18495208486E+03  0.25065381567E+03  0.61458965523E+03  0.90624006415E+02 0.  0.
        254    2    1    2    0    0  0.52198958301E+03  0.18495208486E+03  0.21821011841E+04  0.24196113315E+04  0.88672037262E+03 0.  0.
         23    2    4    4    0    0  0.28065464937E+03  0.52610861076E+03  0.10678517769E+04  0.12263789011E+04  0.90224659600E+02 0.  0.
         23    2    4    4    0    0  0.24133493364E+03 -0.34115652590E+03  0.11142494073E+04  0.11932324304E+04  0.87301580532E+02 0.  0.
          2    1    3    3  502    0 -0.87008012713E+02 -0.65121992647E+02  0.32522816120E+02  0.11344162274E+03  0.00000000000E+00 0. -1.
         -2    1    3    3    0  502 -0.43498157030E+03 -0.11983009222E+03  0.21813099955E+03  0.50114803248E+03  0.00000000000E+00 0.  1.
         11    1    5    5    0    0  0.83974614467E+02  0.83995332894E+02  0.22896262516E+03  0.25793571979E+03  0.00000000000E+00 0. -1.
        -11    1    5    5    0    0  0.19668003491E+03  0.44211327787E+03  0.83888915171E+03  0.96844318133E+03  0.00000000000E+00 0.  1.
          4    1    6    6  503    0 -0.48110841011E+01  0.72702328130E+00  0.67908016432E+01  0.83540457286E+01  0.00000000000E+00 0. -1.
         -4    1    6    6    0  503  0.24614601774E+03 -0.34188354918E+03  0.11074586056E+04  0.11848783846E+04  0.00000000000E+00 0.  1.
<mgrwt>
<rscale>  0 0.18133060E+04</rscale>
<asrwt>0</asrwt>
<pdfrwt beam="1">  1        1 0.42053506E+00 0.18133060E+04</pdfrwt>
<pdfrwt beam="2">  1       -1 0.46265078E-01 0.18133060E+04</pdfrwt>
<totfact> 0.40798021E+00</totfact>
</mgrwt>
</event>
<event>
12    2  0.3518828E-008  0.1677086E+04  0.7818608E-02  0.8774542E-01
          1   -1    0    0  501    0  0.00000000000E+00  0.00000000000E+00  0.46825522210E+04  0.46825522210E+04  0.00000000000E+00 0. -1.
         -1   -1    0    0    0  501 -0.00000000000E+00 -0.00000000000E+00 -0.15016482562E+03  0.15016482562E+03  0.00000000000E+00 0.  1.
         23    2    1    2    0    0 -0.53293222260E+03  0.14588141729E+03  0.22599220139E+04  0.23282555534E+04  0.90709820136E+02 0.  0.
        254    2    1    2    0    0  0.53293222260E+03 -0.14588141729E+03  0.22724653815E+04  0.25044614932E+04  0.89606379182E+03 0.  0.
         23    2    4    4    0    0 -0.11738280058E+03 -0.33375467631E+03  0.89991632960E+03  0.97128329527E+03  0.91492806094E+02 0.  0.
         23    2    4    4    0    0  0.65031502318E+03  0.18787325902E+03  0.13725490519E+04  0.15331781980E+04  0.92403982046E+02 0.  0.
          1    1    3    3  502    0 -0.42108763753E+03  0.15164185831E+03  0.17722942224E+04  0.18279324009E+04  0.00000000000E+00 0. -1.
         -1    1    3    3    0  502 -0.11184458507E+03 -0.57604410201E+01  0.48762779148E+03  0.50032315249E+03  0.00000000000E+00 0.  1.
         11    1    5    5    0    0 -0.87680204259E+02 -0.22810985807E+03  0.49914471628E+03  0.55575837678E+03  0.00000000000E+00 0. -1.
        -11    1    5    5    0    0 -0.29702596324E+02 -0.10564481824E+03  0.40077161332E+03  0.41552491849E+03  0.00000000000E+00 0.  1.
          4    1    6    6  503    0  0.43205726022E+03  0.15323720931E+03  0.99889110753E+03  0.10990625838E+04  0.00000000000E+00 0. -1.
         -4    1    6    6    0  503  0.21825776296E+03  0.34636049710E+02  0.37365794441E+03  0.43411561415E+03  0.00000000000E+00 0.  1.
<mgrwt>
<rscale>  0 0.16770863E+04</rscale>
<asrwt>0</asrwt>
<pdfrwt beam="1">  1        1 0.72039254E+00 0.16770863E+04</pdfrwt>
<pdfrwt beam="2">  1       -1 0.23102284E-01 0.16770863E+04</pdfrwt>
<totfact> 0.32323470E-01</totfact>
</mgrwt>
</event>
<event>
12    2  0.3518828E-008  0.1368868E+04  0.7818608E-02  0.8976667E-01
          1   -1    0    0  501    0  0.00000000000E+00  0.00000000000E+00  0.72594236757E+03  0.72594236757E+03  0.00000000000E+00 0. -1.
         -1   -1    0    0    0  501 -0.00000000000E+00 -0.00000000000E+00 -0.64529916809E+03  0.64529916809E+03  0.00000000000E+00 0.  1.
         23    2    1    2    0    0 -0.12560547723E+03 -0.33290905613E+03 -0.99957300801E+02  0.38223624050E+03  0.97508491965E+02 0.  0.
        254    2    1    2    0    0  0.12560547723E+03  0.33290905613E+03  0.18060050028E+03  0.98900529516E+03  0.90493632792E+03 0.  0.
         23    2    4    4    0    0 -0.21242285143E+03  0.45668983924E+03 -0.10385692282E+03  0.52088499950E+03  0.82739623006E+02 0.  0.
         23    2    4    4    0    0  0.33802832866E+03 -0.12378078311E+03  0.28445742310E+03  0.46812029565E+03  0.92928749070E+02 0.  0.
          2    1    3    3  502    0 -0.74178163178E+02 -0.22903535666E+03 -0.20314020836E+02  0.24160350564E+03  0.00000000000E+00 0. -1.
         -2    1    3    3    0  502 -0.51427314051E+02 -0.10387369947E+03 -0.79643279964E+02  0.14063273486E+03  0.00000000000E+00 0.  1.
         11    1    5    5    0    0 -0.16170813301E+03  0.33038658656E+03 -0.11207331791E+03  0.38453250246E+03  0.00000000000E+00 0.  1.
        -11    1    5    5    0    0 -0.50714718417E+02  0.12630325268E+03  0.82163950872E+01  0.13635249705E+03  0.00000000000E+00 0. -1.
          2    1    6    6  503    0  0.32888773994E+02  0.11174430927E+02  0.47681533632E+02  0.58992101258E+02  0.00000000000E+00 0. -1.
         -2    1    6    6    0  503  0.30513955466E+03 -0.13495521404E+03  0.23677588947E+03  0.40912819439E+03  0.00000000000E+00 0.  1.
<mgrwt>
<rscale>  0 0.13688682E+04</rscale>
<asrwt>0</asrwt>
<pdfrwt beam="1">  1        1 0.11168344E+00 0.13688682E+04</pdfrwt>
<pdfrwt beam="2">  1       -1 0.99276795E-01 0.13688682E+04</pdfrwt>
<totfact> 0.24415657E+01</totfact>
</mgrwt>
</event>
<event>
12    2  0.3518828E-008  0.2259473E+04  0.7818608E-02  0.8494074E-01
          1   -1    0    0  501    0  0.00000000000E+00  0.00000000000E+00  0.12533782881E+04  0.12533782881E+04  0.00000000000E+00 0. -1.
         -1   -1    0    0    0  501 -0.00000000000E+00 -0.00000000000E+00 -0.10182915229E+04  0.10182915229E+04  0.00000000000E+00 0.  1.
         23    2    1    2    0    0 -0.72605646376E+03  0.34008666698E+03  0.60189993764E+03  0.10073968080E+04  0.98731272612E+02 0.  0.
        254    2    1    2    0    0  0.72605646376E+03 -0.34008666698E+03 -0.36681317240E+03  0.12642730030E+04  0.90610010103E+03 0.  0.
         23    2    4    4    0    0 -0.17089648374E+03  0.70110987434E+02 -0.13688673699E+03  0.24681551371E+03  0.89770598352E+02 0.  0.
         23    2    4    4    0    0  0.89695294750E+03 -0.41019765441E+03 -0.22992643540E+03  0.10174574893E+04  0.97810383620E+02 0.  0.
          4    1    3    3  502    0 -0.62033723941E+03  0.25323338499E+03  0.51779993941E+03  0.84679526163E+03  0.00000000000E+00 0. -1.
         -4    1    3    3    0  502 -0.10571922435E+03  0.86853281990E+02  0.84099998232E+02  0.16060154635E+03  0.00000000000E+00 0.  1.
         11    1    5    5    0    0 -0.46019257532E+02 -0.21209980836E+02 -0.33749726314E+02  0.60882504688E+02  0.00000000000E+00 0. -1.
        -11    1    5    5    0    0 -0.12487722620E+03  0.91320968270E+02 -0.10313701068E+03  0.18593300902E+03  0.00000000000E+00 0.  1.
          2    1    6    6  503    0  0.32071941277E+03 -0.10051258226E+03 -0.58057754574E+02  0.34107832500E+03  0.00000000000E+00 0. -1.
         -2    1    6    6    0  503  0.57623353472E+03 -0.30968507215E+03 -0.17186868083E+03  0.67637916430E+03  0.00000000000E+00 0.  1.
<mgrwt>
<rscale>  0 0.22594729E+04</rscale>
<asrwt>0</asrwt>
<pdfrwt beam="1">  1        1 0.19282743E+00 0.22594729E+04</pdfrwt>
<pdfrwt beam="2">  1       -1 0.15666023E+00 0.22594729E+04</pdfrwt>
<totfact> 0.27468664E+00</totfact>
</mgrwt>
</event>
<event>
12    2  0.3518828E-008  0.1459270E+04  0.7818608E-02  0.8911999E-01
          2   -1    0    0  501    0  0.00000000000E+00  0.00000000000E+00  0.28405468829E+04  0.28405468829E+04  0.00000000000E+00 0.  1.
         -2   -1    0    0    0  501 -0.00000000000E+00 -0.00000000000E+00 -0.18741720762E+03  0.18741720762E+03  0.00000000000E+00 0. -1.
         23    2    1    2    0    0  0.13385214566E+03  0.89225822353E+02  0.16901244936E+04  0.17003360857E+04  0.93511262911E+02 0.  0.
        254    2    1    2    0    0 -0.13385214566E+03 -0.89225822353E+02  0.96300518164E+03  0.13276280048E+04  0.89963297787E+03 0.  0.
         23    2    4    4    0    0  0.13946775888E+03 -0.42134121412E+03  0.34428862553E+03  0.56845970359E+03  0.87361905040E+02 0.  0.
         23    2    4    4    0    0 -0.27331990454E+03  0.33211539177E+03  0.61871655611E+03  0.75916830117E+03  0.92314294813E+02 0.  0.
          2    1    3    3  502    0  0.43868768723E+02  0.67455509480E+02  0.48207313134E+03  0.48874248699E+03  0.00000000000E+00 0. -1.
         -2    1    3    3    0  502  0.89983376932E+02  0.21770312873E+02  0.12080513623E+04  0.12115935987E+04  0.00000000000E+00 0.  1.
         11    1    5    5    0    0  0.96845957324E+02 -0.16811084316E+03  0.17151623680E+03  0.25895600886E+03  0.00000000000E+00 0.  1.
        -11    1    5    5    0    0  0.42621801558E+02 -0.25323037096E+03  0.17277238872E+03  0.30950369473E+03  0.00000000000E+00 0. -1.
          2    1    6    6  503    0 -0.20794755375E+03  0.30484750844E+03  0.52388956519E+03  0.64080766617E+03  0.00000000000E+00 0. -1.
         -2    1    6    6    0  503 -0.65372350790E+02  0.27267883324E+02  0.94826990922E+02  0.11836063499E+03  0.00000000000E+00 0.  1.
<mgrwt>
<rscale>  0 0.14592702E+04</rscale>
<asrwt>0</asrwt>
<pdfrwt beam="1">  1        2 0.43700718E+00 0.14592702E+04</pdfrwt>
<pdfrwt beam="2">  1       -2 0.28833419E-01 0.14592702E+04</pdfrwt>
<totfact> 0.23523410E+01</totfact>
</mgrwt>
</event>
<event>
12    2  0.3518828E-008  0.2010336E+04  0.7818608E-02  0.8601804E-01
          1   -1    0    0  501    0  0.00000000000E+00  0.00000000000E+00  0.68266305749E+03  0.68266305749E+03  0.00000000000E+00 0.  1.
         -1   -1    0    0    0  501 -0.00000000000E+00 -0.00000000000E+00 -0.14800308965E+04  0.14800308965E+04  0.00000000000E+00 0. -1.
         23    2    1    2    0    0 -0.46698932868E+03  0.28301835378E+03  0.30941433788E+03  0.63409750766E+03  0.90354828674E+02 0.  0.
        254    2    1    2    0    0  0.46698932868E+03 -0.28301835378E+03 -0.11067821769E+04  0.15285964463E+04  0.90192121993E+03 0.  0.
         23    2    4    4    0    0 -0.43801479230E+02 -0.11411978562E+03  0.11453186744E+03  0.19096624981E+03  0.91698772363E+02 0.  0.
         23    2    4    4    0    0  0.51079080791E+03 -0.16889856816E+03 -0.12213140443E+04  0.13376301965E+04  0.90623241992E+02 0.  0.
          1    1    3    3  502    0 -0.23489719138E+02 -0.57762602723E+01  0.15350859273E+02  0.28649275180E+02  0.00000000000E+00 0. -1.
         -1    1    3    3    0  502 -0.44349960954E+03  0.28879461405E+03  0.29406347860E+03  0.60544823248E+03  0.00000000000E+00 0.  1.
         11    1    5    5    0    0  0.13399943621E+02 -0.19791331238E+00  0.42464265482E+02  0.44528771617E+02  0.00000000000E+00 0. -1.
        -11    1    5    5    0    0 -0.57201422851E+02 -0.11392187231E+03  0.72067601960E+02  0.14643747819E+03  0.00000000000E+00 0.  1.
          1    1    6    6  503    0  0.26588094178E+03 -0.61881926669E+02 -0.52389222456E+03  0.59074961787E+03  0.00000000000E+00 0.  1.
         -1    1    6    6    0  503  0.24490986613E+03 -0.10701664149E+03 -0.69742181974E+03  0.74688057863E+03  0.00000000000E+00 0. -1.
<mgrwt>
<rscale>  0 0.20103357E+04</rscale>
<asrwt>0</asrwt>
<pdfrwt beam="1">  1        1 0.10502509E+00 0.20103357E+04</pdfrwt>
<pdfrwt beam="2">  1       -1 0.22769706E+00 0.20103357E+04</pdfrwt>
<totfact> 0.25642882E+00</totfact>
</mgrwt>
</event>
<event>
12    2  0.3518828E-008  0.2207077E+04  0.7818608E-02  0.8515488E-01
         -1   -1    0    0    0  501 -0.00000000000E+00  0.00000000000E+00  0.21711057872E+04  0.21711057872E+04  0.00000000000E+00 0.  1.
          1   -1    0    0  501    0  0.00000000000E+00 -0.00000000000E+00 -0.56091097334E+03  0.56091097334E+03  0.00000000000E+00 0. -1.
         23    2    1    2    0    0  0.11342843733E+03  0.31713460709E+02  0.17863517177E+04  0.17925794980E+04  0.91744447070E+02 0.  0.
        254    2    1    2    0    0 -0.11342843733E+03 -0.31713460709E+02 -0.17615690380E+03  0.93943726252E+03  0.91522639902E+03 0.  0.
         23    2    4    4    0    0 -0.30809750921E+03 -0.96303049566E+02 -0.46499073278E+03  0.57355871067E+03  0.92492488758E+02 0.  0.
         23    2    4    4    0    0  0.19466907188E+03  0.64589588857E+02  0.28883382898E+03  0.36587855185E+03  0.91511045277E+02 0.  0.
          1    1    3    3  502    0 -0.10322267325E+02 -0.97478491886E+01  0.35686765904E+03  0.35714996267E+03  0.00000000000E+00 0. -1.
         -1    1    3    3    0  502  0.12375070466E+03  0.41461309897E+02  0.14294840586E+04  0.14354295354E+04  0.00000000000E+00 0.  1.
         11    1    5    5    0    0 -0.25012509785E+03 -0.47696761346E+02 -0.39813421444E+03  0.47259750140E+03  0.00000000000E+00 0. -1.
        -11    1    5    5    0    0 -0.57972411359E+02 -0.48606288220E+02 -0.66856518334E+02  0.10096120927E+03  0.00000000000E+00 0.  1.
          4    1    6    6  503    0  0.14911917542E+03  0.45910409451E+02  0.27250234723E+03  0.31400927282E+03  0.00000000000E+00 0. -1.
         -4    1    6    6    0  503  0.45549896458E+02  0.18679179407E+02  0.16331481748E+02  0.51869279026E+02  0.00000000000E+00 0.  1.
<mgrwt>
<rscale>  0 0.22070769E+04</rscale>
<asrwt>0</asrwt>
<pdfrwt beam="1">  1        1 0.86293997E-01 0.22070769E+04</pdfrwt>
<pdfrwt beam="2">  1       -1 0.33401627E+00 0.22070769E+04</pdfrwt>
<totfact> 0.68148509E-01</totfact>
</mgrwt>
</event>
<event>
12    2  0.3518828E-008  0.1268168E+04  0.7818608E-02  0.9055196E-01
         -1   -1    0    0    0  501 -0.00000000000E+00  0.00000000000E+00  0.30494798054E+03  0.30494798054E+03  0.00000000000E+00 0.  1.
          1   -1    0    0  501    0  0.00000000000E+00 -0.00000000000E+00 -0.13184624689E+04  0.13184624689E+04  0.00000000000E+00 0. -1.
         23    2    1    2    0    0  0.21217694861E+02 -0.14884369618E+02  0.13231528381E+03  0.16512267132E+03  0.95322752892E+02 0.  0.
        254    2    1    2    0    0 -0.21217694861E+02  0.14884369618E+02 -0.11458297722E+04  0.14582877782E+04  0.90166825497E+03 0.  0.
         23    2    4    4    0    0  0.20787784005E+03  0.13420522414E+03  0.16768846563E+02  0.26364060542E+03  0.89447951585E+02 0.  0.
         23    2    4    4    0    0 -0.22909553491E+03 -0.11932085452E+03 -0.11625986188E+04  0.11946471727E+04  0.93936619698E+02 0.  0.
          3    1    3    3  502    0 -0.47668195918E+01 -0.40794355621E+02  0.17604838644E+02  0.44685930261E+02  0.00000000000E+00 0. -1.
         -3    1    3    3    0  502  0.25984514453E+02  0.25909986003E+02  0.11471044517E+03  0.12043674106E+03  0.00000000000E+00 0.  1.
         11    1    5    5    0    0  0.20128842733E+03  0.93858923475E+02  0.11150650804E+02  0.22237550563E+03  0.00000000000E+00 0. -1.
        -11    1    5    5    0    0  0.65894127240E+01  0.40346300663E+02  0.56181957594E+01  0.41265099791E+02  0.00000000000E+00 0.  1.
          4    1    6    6  503    0 -0.20147820562E+03 -0.82821962430E+02 -0.10622112720E+04  0.10843180950E+04  0.00000000000E+00 0. -1.
         -4    1    6    6    0  503 -0.27617329289E+02 -0.36498892089E+02 -0.10038734680E+03  0.11032907775E+03  0.00000000000E+00 0.  1.
<mgrwt>
<rscale>  0 0.12681679E+04</rscale>
<asrwt>0</asrwt>
<pdfrwt beam="1">  1        1 0.20284038E+00 0.12681679E+04</pdfrwt>
<pdfrwt beam="2">  1       -1 0.46915075E-01 0.12681679E+04</pdfrwt>
<totfact> 0.39127791E+01</totfact>
</mgrwt>
</event>
<event>
12    2  0.3518828E-008  0.1962243E+04  0.7818608E-02  0.8624480E-01
          2   -1    0    0  501    0  0.00000000000E+00  0.00000000000E+00  0.56595912499E+03  0.56595912499E+03  0.00000000000E+00 0. -1.
         -2   -1    0    0    0  501 -0.00000000000E+00 -0.00000000000E+00 -0.17008282833E+04  0.17008282833E+04  0.00000000000E+00 0.  1.
         23    2    1    2    0    0 -0.12274622550E+03  0.59278297025E+02  0.42593924046E+03  0.45625896028E+03  0.90373944792E+02 0.  0.
        254    2    1    2    0    0  0.12274622550E+03 -0.59278297025E+02 -0.15608083988E+04  0.18105284480E+04  0.90736423284E+03 0.  0.
         23    2    4    4    0    0 -0.64946891746E+02 -0.12949091311E+03 -0.15803649123E+04  0.15894793222E+04  0.88911553948E+02 0.  0.
         23    2    4    4    0    0  0.18769311725E+03  0.70212616084E+02  0.19556513529E+02  0.22104912580E+03  0.91223577397E+02 0.  0.
          2    1    3    3  502    0 -0.80301644995E+02  0.64352657845E+01  0.32384466002E+03  0.33371414512E+03  0.00000000000E+00 0. -1.
         -2    1    3    3    0  502 -0.42444580510E+02  0.52843031240E+02  0.10209458044E+03  0.12254481515E+03  0.00000000000E+00 0.  1.
         11    1    5    5    0    0 -0.36655023165E+02 -0.44576420339E+02 -0.27192547635E+03  0.27798221645E+03  0.00000000000E+00 0. -1.
        -11    1    5    5    0    0 -0.28291868581E+02 -0.84914492770E+02 -0.13084394359E+04  0.13114971058E+04  0.00000000000E+00 0.  1.
          3    1    6    6  503    0  0.27232765903E+02  0.13882693831E+02 -0.31097383149E+02  0.43605045183E+02  0.00000000000E+00 0. -1.
         -3    1    6    6    0  503  0.16046035135E+03  0.56329922253E+02  0.50653896679E+02  0.17744408061E+03  0.00000000000E+00 0.  1.
<mgrwt>
<rscale>  0 0.19622429E+04</rscale>
<asrwt>0</asrwt>
<pdfrwt beam="1">  1        2 0.87070636E-01 0.19622429E+04</pdfrwt>
<pdfrwt beam="2">  1       -2 0.26166589E+00 0.19622429E+04</pdfrwt>
<totfact> 0.27024638E+00</totfact>
</mgrwt>
</event>
<event>
12    2  0.3518828E-008  0.2266648E+04  0.7818608E-02  0.8491189E-01
          2   -1    0    0  501    0  0.00000000000E+00  0.00000000000E+00  0.12705153012E+04  0.12705153012E+04  0.00000000000E+00 0.  1.
         -2   -1    0    0    0  501 -0.00000000000E+00 -0.00000000000E+00 -0.10109467324E+04  0.10109467324E+04  0.00000000000E+00 0. -1.
         23    2    1    2    0    0  0.93730792904E+03 -0.65437786842E+02  0.18932995446E+03  0.96364701597E+03  0.99706980421E+02 0.  0.
        254    2    1    2    0    0 -0.93730792904E+03  0.65437786842E+02  0.70238614293E+02  0.13178150176E+04  0.92134396391E+03 0.  0.
         23    2    4    4    0    0  0.17584876957E+03 -0.71344055915E-01  0.16769882885E+02  0.19780801101E+03  0.89016770321E+02 0.  0.
         23    2    4    4    0    0 -0.11131566986E+04  0.65509130898E+02  0.53468731408E+02  0.11200070066E+04  0.90263545494E+02 0.  0.
          4    1    3    3  502    0  0.27389731721E+03  0.14719928852E+02  0.86075017368E+02  0.28748099988E+03  0.00000000000E+00 0. -1.
         -4    1    3    3    0  502  0.66341061184E+03 -0.80157715694E+02  0.10325493709E+03  0.67616601609E+03  0.00000000000E+00 0.  1.
         11    1    5    5    0    0  0.23051573577E+02 -0.31474115916E+02 -0.81066664257E+01  0.39846117221E+02  0.00000000000E+00 0.  1.
        -11    1    5    5    0    0  0.15279719599E+03  0.31402771860E+02  0.24876549311E+02  0.15796189379E+03  0.00000000000E+00 0. -1.
          1    1    6    6  503    0 -0.75325189221E+03  0.19779124045E+02  0.15548136831E+01  0.75351313480E+03  0.00000000000E+00 0. -1.
         -1    1    6    6    0  503 -0.35990480640E+03  0.45730006853E+02  0.51913917725E+02  0.36649387178E+03  0.00000000000E+00 0.  1.
<mgrwt>
<rscale>  0 0.22666480E+04</rscale>
<asrwt>0</asrwt>
<pdfrwt beam="1">  1        2 0.19546389E+00 0.22666480E+04</pdfrwt>
<pdfrwt beam="2">  1       -2 0.15553027E+00 0.22666480E+04</pdfrwt>
<totfact> 0.42541978E+00</totfact>
</mgrwt>
</event>
<event>
12    2  0.3518828E-008  0.2082251E+04  0.7818608E-02  0.8569103E-01
         -1   -1    0    0    0  501 -0.00000000000E+00  0.00000000000E+00  0.78723676140E+03  0.78723676140E+03  0.00000000000E+00 0.  1.
          1   -1    0    0  501    0  0.00000000000E+00 -0.00000000000E+00 -0.13768944075E+04  0.13768944075E+04  0.00000000000E+00 0. -1.
         23    2    1    2    0    0  0.55892921522E+02  0.78437346533E+03 -0.55570153504E+03  0.96602631790E+03  0.77697484067E+02 0.  0.
        254    2    1    2    0    0 -0.55892921522E+02 -0.78437346533E+03 -0.33956111028E+02  0.11981048510E+04  0.90329201516E+03 0.  0.
         23    2    4    4    0    0  0.13859620856E+03 -0.35279565983E+03  0.39337220113E+03  0.55395163058E+03  0.91907745966E+02 0.  0.
         23    2    4    4    0    0 -0.19448913008E+03 -0.43157780550E+03 -0.42732831216E+03  0.64415322039E+03  0.90765968586E+02 0.  0.
          3    1    3    3  502    0  0.69946393727E+02  0.62492138205E+03 -0.46468082398E+03  0.78188714014E+03  0.00000000000E+00 0. -1.
         -3    1    3    3    0  502 -0.14053472205E+02  0.15945208328E+03 -0.91020711063E+02  0.18413917776E+03  0.00000000000E+00 0.  1.
         11    1    5    5    0    0  0.83678040872E+02 -0.15342417189E+03  0.12366663746E+03  0.21408976684E+03  0.00000000000E+00 0.  1.
        -11    1    5    5    0    0  0.54918167688E+02 -0.19937148794E+03  0.26970556367E+03  0.33986186374E+03  0.00000000000E+00 0. -1.
          4    1    6    6  503    0 -0.35652156386E+02 -0.18374343742E+03 -0.17996734827E+03  0.25965549001E+03  0.00000000000E+00 0. -1.
         -4    1    6    6    0  503 -0.15883697370E+03 -0.24783436808E+03 -0.24736096389E+03  0.38449773038E+03  0.00000000000E+00 0.  1.
<mgrwt>
<rscale>  0 0.20822506E+04</rscale>
<asrwt>0</asrwt>
<pdfrwt beam="1">  1        1 0.21182991E+00 0.20822506E+04</pdfrwt>
<pdfrwt beam="2">  1       -1 0.12111335E+00 0.20822506E+04</pdfrwt>
<totfact> 0.44463926E+00</totfact>
</mgrwt>
</event>
<event>
12    2  0.3518828E-008  0.1294268E+04  0.7818608E-02  0.9034123E-01
          1   -1    0    0  501    0  0.00000000000E+00  0.00000000000E+00  0.12426123776E+04  0.12426123776E+04  0.00000000000E+00 0. -1.
         -1   -1    0    0    0  501 -0.00000000000E+00 -0.00000000000E+00 -0.33701768063E+03  0.33701768063E+03  0.00000000000E+00 0.  1.
         23    2    1    2    0    0 -0.21267706626E+03  0.17323798105E+03  0.48986387623E+03  0.56917377622E+03  0.93537359966E+02 0.  0.
        254    2    1    2    0    0  0.21267706626E+03 -0.17323798105E+03  0.41573082072E+03  0.10104562820E+04  0.87917395885E+03 0.  0.
         23    2    4    4    0    0  0.38519803604E+02  0.17582388456E+03 -0.19463602114E+03  0.28022029640E+03  0.90787775274E+02 0.  0.
         23    2    4    4    0    0  0.17415726266E+03 -0.34906186560E+03  0.61036684186E+03  0.73023598559E+03  0.92314543000E+02 0.  0.
          4    1    3    3  502    0 -0.21459728072E+03  0.15876672989E+03  0.48531073711E+03  0.55388209844E+03  0.00000000000E+00 0. -1.
         -4    1    3    3    0  502  0.19202144608E+01  0.14471251153E+02  0.45531391183E+01  0.15291677781E+02  0.00000000000E+00 0.  1.
         11    1    5    5    0    0 -0.25789165486E+02  0.38547357646E+02 -0.69993691925E+02  0.83964854238E+02  0.00000000000E+00 0.  1.
        -11    1    5    5    0    0  0.64308969090E+02  0.13727652691E+03 -0.12464232921E+03  0.19625544216E+03  0.00000000000E+00 0. -1.
          1    1    6    6  503    0  0.10577120732E+03 -0.27324683203E+03  0.50268347846E+03  0.58184367233E+03  0.00000000000E+00 0. -1.
         -1    1    6    6    0  503  0.68386055342E+02 -0.75815033578E+02  0.10768336339E+03  0.14839231326E+03  0.00000000000E+00 0.  1.
<mgrwt>
<rscale>  0 0.12942679E+04</rscale>
<asrwt>0</asrwt>
<pdfrwt beam="1">  1        1 0.19117113E+00 0.12942679E+04</pdfrwt>
<pdfrwt beam="2">  1       -1 0.51848874E-01 0.12942679E+04</pdfrwt>
<totfact> 0.36609742E+01</totfact>
</mgrwt>
</event>
<event>
12    2  0.3518828E-008  0.3665257E+04  0.7818608E-02  0.8075705E-01
         -1   -1    0    0    0  501 -0.00000000000E+00  0.00000000000E+00  0.35150836649E+04  0.35150836649E+04  0.00000000000E+00 0.  1.
          1   -1    0    0  501    0  0.00000000000E+00 -0.00000000000E+00 -0.95546154688E+03  0.95546154688E+03  0.00000000000E+00 0. -1.
         23    2    1    2    0    0 -0.62166171813E+03 -0.15794785660E+04  0.86447975661E+03  0.19074679899E+04  0.99463814914E+02 0.  0.
        254    2    1    2    0    0  0.62166171813E+03  0.15794785660E+04  0.16951423614E+04  0.25630772219E+04  0.90257486538E+03 0.  0.
         23    2    4    4    0    0  0.16477623838E+03  0.55223509609E+03  0.11941100632E+04  0.13290361179E+04  0.91232392714E+02 0.  0.
         23    2    4    4    0    0  0.45688547975E+03  0.10272434699E+04  0.50103229821E+03  0.12340411040E+04  0.88603580173E+02 0.  0.
          2    1    3    3  502    0 -0.22749339219E+03 -0.49963157362E+03  0.32080866551E+03  0.63584837242E+03  0.00000000000E+00 0. -1.
         -2    1    3    3    0  502 -0.39416832594E+03 -0.10798469924E+04  0.54367109110E+03  0.12716196175E+04  0.00000000000E+00 0.  1.
         11    1    5    5    0    0  0.12575917085E+03  0.49282260948E+03  0.99194022717E+03  0.11147353532E+04  0.00000000000E+00 0. -1.
        -11    1    5    5    0    0  0.39017067527E+02  0.59412486610E+02  0.20216983605E+03  0.21430076466E+03  0.00000000000E+00 0.  1.
          3    1    6    6  503    0  0.21773057498E+03  0.44422849873E+03  0.17680063367E+03  0.52536085354E+03  0.00000000000E+00 0. -1.
         -3    1    6    6    0  503  0.23915490476E+03  0.58301497121E+03  0.32423166454E+03  0.70868025048E+03  0.00000000000E+00 0.  1.
<mgrwt>
<rscale>  0 0.36652570E+04</rscale>
<asrwt>0</asrwt>
<pdfrwt beam="1">  1        1 0.14699409E+00 0.36652570E+04</pdfrwt>
<pdfrwt beam="2">  1       -1 0.54078209E+00 0.36652570E+04</pdfrwt>
<totfact> 0.11122591E-02</totfact>
</mgrwt>
</event>
<event>
12    2  0.3518828E-008  0.1952244E+04  0.7818608E-02  0.8629279E-01
         -2   -1    0    0    0  501 -0.00000000000E+00  0.00000000000E+00  0.10885977906E+04  0.10885977906E+04  0.00000000000E+00 0.  1.
          2   -1    0    0  501    0  0.00000000000E+00 -0.00000000000E+00 -0.87526744897E+03  0.87526744897E+03  0.00000000000E+00 0. -1.
         23    2    1    2    0    0 -0.35508487876E+03  0.25030270046E+03 -0.55359107412E+03  0.70986747512E+03  0.93338319595E+02 0.  0.
        254    2    1    2    0    0  0.35508487876E+03 -0.25030270046E+03  0.76692141578E+03  0.12539977645E+04  0.89196705228E+03 0.  0.
         23    2    4    4    0    0  0.61060859734E+02 -0.26657162308E+03 -0.12186535378E+03  0.31312025467E+03  0.91674809036E+02 0.  0.
         23    2    4    4    0    0  0.29402401903E+03  0.16268922621E+02  0.88878676957E+03  0.94087750981E+03  0.92702562573E+02 0.  0.
          2    1    3    3  502    0 -0.20045113635E+03  0.12039785781E+03 -0.36543939872E+03  0.43384589011E+03  0.00000000000E+00 0. -1.
         -2    1    3    3    0  502 -0.15463374241E+03  0.12990484264E+03 -0.18815167540E+03  0.27602158501E+03  0.00000000000E+00 0.  1.
         11    1    5    5    0    0  0.47290183566E+02 -0.16710215462E+03 -0.12280400537E+03  0.21269770867E+03  0.00000000000E+00 0.  1.
        -11    1    5    5    0    0  0.13770676168E+02 -0.99469468461E+02  0.93865159115E+00  0.10042254600E+03  0.00000000000E+00 0. -1.
          3    1    6    6  503    0  0.12467597458E+03  0.52934472208E+02  0.38872852994E+03  0.41165036982E+03  0.00000000000E+00 0. -1.
         -3    1    6    6    0  503  0.16934804445E+03 -0.36665549587E+02  0.50005823962E+03  0.52922713999E+03  0.00000000000E+00 0.  1.
<mgrwt>
<rscale>  0 0.19522441E+04</rscale>
<asrwt>0</asrwt>
<pdfrwt beam="1">  1        2 0.13465653E+00 0.19522441E+04</pdfrwt>
<pdfrwt beam="2">  1       -2 0.16747658E+00 0.19522441E+04</pdfrwt>
<totfact> 0.63144444E+00</totfact>
</mgrwt>
</event>
<event>
12    2  0.3518828E-008  0.1411431E+04  0.7818608E-02  0.8945585E-01
          1   -1    0    0  501    0  0.00000000000E+00  0.00000000000E+00  0.87492705627E+03  0.87492705627E+03  0.00000000000E+00 0. -1.
         -1   -1    0    0    0  501 -0.00000000000E+00 -0.00000000000E+00 -0.56922983042E+03  0.56922983042E+03  0.00000000000E+00 0.  1.
         23    2    1    2    0    0 -0.15064451387E+03 -0.38418475716E+03  0.79778619740E+02  0.43015255259E+03  0.91514442251E+02 0.  0.
        254    2    1    2    0    0  0.15064451387E+03  0.38418475716E+03  0.22591860611E+03  0.10140043341E+04  0.89826158539E+03 0.  0.
         23    2    4    4    0    0  0.75619245695E+02 -0.22375091216E+03  0.29742843598E+03  0.39050735922E+03  0.90827209948E+02 0.  0.
         23    2    4    4    0    0  0.75025268171E+02  0.60793566933E+03 -0.71509829867E+02  0.62349697487E+03  0.91761936588E+02 0.  0.
          4    1    3    3  502    0 -0.45528226319E+02 -0.19268156187E+03  0.74782031925E+02  0.21163968431E+03  0.00000000000E+00 0. -1.
         -4    1    3    3    0  502 -0.10511628755E+03 -0.19150319529E+03  0.49965878149E+01  0.21851286828E+03  0.00000000000E+00 0.  1.
         11    1    5    5    0    0  0.40974833743E+02 -0.15760045432E+03  0.26048315692E+03  0.30719426304E+03  0.00000000000E+00 0.  1.
        -11    1    5    5    0    0  0.34644411952E+02 -0.66150457837E+02  0.36945279057E+02  0.83313096186E+02  0.00000000000E+00 0. -1.
          3    1    6    6  503    0  0.15630734632E+02  0.25404541849E+03  0.12937327142E+02  0.25485440737E+03  0.00000000000E+00 0. -1.
         -3    1    6    6    0  503  0.59394533539E+02  0.35389025084E+03 -0.84447157009E+02  0.36864256751E+03  0.00000000000E+00 0.  1.
<mgrwt>
<rscale>  0 0.14114313E+04</rscale>
<asrwt>0</asrwt>
<pdfrwt beam="1">  1        1 0.13460416E+00 0.14114313E+04</pdfrwt>
<pdfrwt beam="2">  1       -1 0.87573820E-01 0.14114313E+04</pdfrwt>
<totfact> 0.23861073E+01</totfact>
</mgrwt>
</event>
<event>
12    2  0.3518828E-008  0.1980463E+04  0.7818608E-02  0.8615810E-01
         -2   -1    0    0    0  501 -0.00000000000E+00  0.00000000000E+00  0.11940272966E+04  0.11940272966E+04  0.00000000000E+00 0.  1.
          2   -1    0    0  501    0  0.00000000000E+00 -0.00000000000E+00 -0.82121962269E+03  0.82121962269E+03  0.00000000000E+00 0. -1.
         23    2    1    2    0    0  0.29224488041E+03  0.30732678256E+03  0.81347675994E+03  0.92205154888E+03  0.92616404726E+02 0.  0.
        254    2    1    2    0    0 -0.29224488041E+03 -0.30732678256E+03 -0.44066908605E+03  0.10931953704E+04  0.90610708696E+03 0.  0.
         23    2    4    4    0    0  0.22495363845E+03 -0.81481291253E+01  0.11882376844E+03  0.26949847522E+03  0.88542694444E+02 0.  0.
         23    2    4    4    0    0 -0.51719851886E+03 -0.29917865344E+03 -0.55949285450E+03  0.82369689517E+03  0.91881153150E+02 0.  0.
          2    1    3    3  502    0  0.12447144096E+03  0.92884750096E+02  0.22219679215E+03  0.27109432096E+03  0.00000000000E+00 0. -1.
         -2    1    3    3    0  502  0.16777343945E+03  0.21444203247E+03  0.59127996779E+03  0.65095722792E+03  0.00000000000E+00 0.  1.
         11    1    5    5    0    0  0.67496684000E+02 -0.17897409788E+02  0.81615632644E+02  0.10741150367E+03  0.00000000000E+00 0. -1.
        -11    1    5    5    0    0  0.15745695445E+03  0.97492806630E+01  0.37208135801E+02  0.16208697155E+03  0.00000000000E+00 0.  1.
          2    1    6    6  503    0 -0.40282706611E+02 -0.75896128226E+01 -0.67795264437E+02  0.79224343195E+02  0.00000000000E+00 0. -1.
         -2    1    6    6    0  503 -0.47691581225E+03 -0.29158904062E+03 -0.49169759006E+03  0.74447255198E+03  0.00000000000E+00 0.  1.
<mgrwt>
<rscale>  0 0.19804632E+04</rscale>
<asrwt>0</asrwt>
<pdfrwt beam="1">  1        2 0.12634148E+00 0.19804632E+04</pdfrwt>
<pdfrwt beam="2">  1       -2 0.18369651E+00 0.19804632E+04</pdfrwt>
<totfact> 0.52901032E+00</totfact>
</mgrwt>
</event>
<event>
12    2  0.3518828E-008  0.1494606E+04  0.7818608E-02  0.8888048E-01
          1   -1    0    0  501    0  0.00000000000E+00  0.00000000000E+00  0.86440213573E+03  0.86440213573E+03  0.00000000000E+00 0. -1.
         -1   -1    0    0    0  501 -0.00000000000E+00 -0.00000000000E+00 -0.64606712356E+03  0.64606712356E+03  0.00000000000E+00 0.  1.
         23    2    1    2    0    0  0.33189745947E+02  0.29503487026E+03 -0.29717269951E+03  0.43015456841E+03  0.92597005817E+02 0.  0.
        254    2    1    2    0    0 -0.33189745947E+02 -0.29503487026E+03  0.51550771168E+03  0.10803146909E+04  0.90176742934E+03 0.  0.
         23    2    4    4    0    0  0.27907988954E+03 -0.44625750392E+03  0.12273753663E+03  0.54828630506E+03  0.92314813881E+02 0.  0.
         23    2    4    4    0    0 -0.31226963549E+03  0.15122263366E+03  0.39277017505E+03  0.53202838582E+03  0.91679783659E+02 0.  0.
          4    1    3    3  502    0  0.27688752416E+02  0.77494234889E+02 -0.34972101551E+02  0.89415162798E+02  0.00000000000E+00 0. -1.
         -4    1    3    3    0  502  0.55009935309E+01  0.21754063537E+03 -0.26220059796E+03  0.34073940562E+03  0.00000000000E+00 0.  1.
         11    1    5    5    0    0  0.19268337591E+03 -0.37735209538E+03  0.91842189314E+02  0.43353947338E+03  0.00000000000E+00 0. -1.
        -11    1    5    5    0    0  0.86396513635E+02 -0.68905408540E+02  0.30895347319E+02  0.11474683168E+03  0.00000000000E+00 0.  1.
          1    1    6    6  503    0 -0.19736539997E+03  0.50280043082E+02  0.19451033775E+03  0.28162999721E+03  0.00000000000E+00 0. -1.
         -1    1    6    6    0  503 -0.11490423552E+03  0.10094259058E+03  0.19825983729E+03  0.25039838860E+03  0.00000000000E+00 0.  1.
<mgrwt>
<rscale>  0 0.14946060E+04</rscale>
<asrwt>0</asrwt>
<pdfrwt beam="1">  1        1 0.13298494E+00 0.14946060E+04</pdfrwt>
<pdfrwt beam="2">  1       -1 0.99394942E-01 0.14946060E+04</pdfrwt>
<totfact> 0.18222740E+01</totfact>
</mgrwt>
</event>
<event>
12    2  0.3518828E-008  0.2035910E+04  0.7818608E-02  0.8590013E-01
          1   -1    0    0  501    0  0.00000000000E+00  0.00000000000E+00  0.12450165074E+04  0.12450165074E+04  0.00000000000E+00 0. -1.
         -1   -1    0    0    0  501 -0.00000000000E+00 -0.00000000000E+00 -0.83230411618E+03  0.83230411618E+03  0.00000000000E+00 0.  1.
         23    2    1    2    0    0  0.11463172839E+03 -0.34473091442E+03  0.91185357848E+03  0.98578772415E+03  0.91217607886E+02 0.  0.
        254    2    1    2    0    0 -0.11463172839E+03  0.34473091442E+03 -0.49914118728E+03  0.10915328994E+04  0.90017904283E+03 0.  0.
         23    2    4    4    0    0 -0.46114369118E+03  0.38266965688E+03 -0.32977119321E+03  0.69170742669E+03  0.10305607240E+03 0.  0.
         23    2    4    4    0    0  0.34651196280E+03 -0.37938742452E+02 -0.16936999407E+03  0.39982547272E+03  0.98307299847E+02 0.  0.
          2    1    3    3  502    0  0.12287037689E+03 -0.33653570522E+03  0.90202477485E+03  0.97056792902E+03  0.00000000000E+00 0. -1.
         -2    1    3    3    0  502 -0.82386485013E+01 -0.81952092022E+01  0.98288036362E+01  0.15219795134E+02  0.00000000000E+00 0.  1.
         11    1    5    5    0    0 -0.22704844391E+03  0.23817347739E+03 -0.21829289370E+03  0.39487895444E+03  0.00000000000E+00 0.  1.
        -11    1    5    5    0    0 -0.23409524727E+03  0.14449617948E+03 -0.11147829951E+03  0.29682847226E+03  0.00000000000E+00 0. -1.
          2    1    6    6  503    0  0.31629534496E+03 -0.36760386976E+02 -0.18232415278E+03  0.36692801472E+03  0.00000000000E+00 0. -1.
         -2    1    6    6    0  503  0.30216617834E+02 -0.11783554761E+01  0.12954158714E+02  0.32897458002E+02  0.00000000000E+00 0.  1.
<mgrwt>
<rscale>  0 0.20359100E+04</rscale>
<asrwt>0</asrwt>
<pdfrwt beam="1">  1        1 0.19154100E+00 0.20359100E+04</pdfrwt>
<pdfrwt beam="2">  1       -1 0.12804679E+00 0.20359100E+04</pdfrwt>
<totfact> 0.48284966E+00</totfact>
</mgrwt>
</event>
<event>
12    2  0.3518828E-008  0.1728968E+04  0.7818608E-02  0.8745013E-01
          1   -1    0    0  501    0  0.00000000000E+00  0.00000000000E+00  0.23910611941E+04  0.23910611941E+04  0.00000000000E+00 0. -1.
         -1   -1    0    0    0  501 -0.00000000000E+00 -0.00000000000E+00 -0.31255284894E+03  0.31255284894E+03  0.00000000000E+00 0.  1.
         23    2    1    2    0    0  0.58767633721E+02 -0.25133109495E+03 -0.13304451802E+03  0.30431708444E+03  0.91033455626E+02 0.  0.
        254    2    1    2    0    0 -0.58767633721E+02  0.25133109495E+03  0.22115528632E+04  0.23992969586E+04  0.89388974424E+03 0.  0.
         23    2    4    4    0    0 -0.33873577065E+02 -0.23413626397E+03  0.18780930255E+03  0.31601506645E+03  0.92876147469E+02 0.  0.
         23    2    4    4    0    0 -0.24894056656E+02  0.48546735893E+03  0.20237435606E+04  0.20832818921E+04  0.90703761446E+02 0.  0.
          1    1    3    3  502    0 -0.19685965950E+02 -0.11076266206E+03 -0.60685495364E+02  0.12782266586E+03  0.00000000000E+00 0. -1.
         -1    1    3    3    0  502  0.78453599671E+02 -0.14056843290E+03 -0.72359022655E+02  0.17649441857E+03  0.00000000000E+00 0.  1.
         11    1    5    5    0    0 -0.32774520168E+02 -0.24061136140E+03  0.19077465755E+03  0.30880894801E+03  0.00000000000E+00 0. -1.
        -11    1    5    5    0    0 -0.10990568967E+01  0.64750974228E+01 -0.29653550045E+01  0.72061184419E+01  0.00000000000E+00 0.  1.
          1    1    6    6  503    0  0.86025137628E+01  0.42064100747E+03  0.17643681136E+04  0.18138378375E+04  0.00000000000E+00 0. -1.
         -1    1    6    6    0  503 -0.33496570419E+02  0.64826351458E+02  0.25937544700E+03  0.26944405464E+03  0.00000000000E+00 0.  1.
<mgrwt>
<rscale>  0 0.17289685E+04</rscale>
<asrwt>0</asrwt>
<pdfrwt beam="1">  1        1 0.36785556E+00 0.17289685E+04</pdfrwt>
<pdfrwt beam="2">  1       -1 0.48085055E-01 0.17289685E+04</pdfrwt>
<totfact> 0.66198862E+00</totfact>
</mgrwt>
</event>
<event>
12    2  0.3518828E-008  0.2024156E+04  0.7818608E-02  0.8595409E-01
         -2   -1    0    0    0  501 -0.00000000000E+00  0.00000000000E+00  0.63793883849E+03  0.63793883849E+03  0.00000000000E+00 0.  1.
          2   -1    0    0  501    0  0.00000000000E+00 -0.00000000000E+00 -0.16056434351E+04  0.16056434351E+04  0.00000000000E+00 0. -1.
         23    2    1    2    0    0  0.77536633456E+03 -0.17373988104E+03 -0.22856033335E+03  0.83228601531E+03  0.95297881752E+02 0.  0.
        254    2    1    2    0    0 -0.77536633456E+03  0.17373988104E+03 -0.73914426327E+03  0.14112962583E+04  0.90224408432E+03 0.  0.
         23    2    4    4    0    0 -0.61175235141E+03  0.46928646415E+03 -0.72187318889E+03  0.10610849166E+04  0.10163451470E+03 0.  0.
         23    2    4    4    0    0 -0.16361398315E+03 -0.29554658310E+03 -0.17271074384E+02  0.35021134166E+03  0.90732439333E+02 0.  0.
          3    1    3    3  502    0  0.48434878239E+03 -0.12305352903E+03 -0.18885737369E+03  0.53423124357E+03  0.00000000000E+00 0. -1.
         -3    1    3    3    0  502  0.29101755217E+03 -0.50686352014E+02 -0.39702959658E+02  0.29805477174E+03  0.00000000000E+00 0.  1.
         11    1    5    5    0    0 -0.60227763026E+03  0.47364653281E+03 -0.71772267439E+03  0.10498596189E+04  0.00000000000E+00 0.  1.
        -11    1    5    5    0    0 -0.94747211503E+01 -0.43600686677E+01 -0.41505144989E+01  0.11225297781E+02  0.00000000000E+00 0. -1.
          1    1    6    6  503    0 -0.10223575466E+02 -0.65892720947E+02 -0.31350591392E+02  0.73683320703E+02  0.00000000000E+00 0. -1.
         -1    1    6    6    0  503 -0.15339040769E+03 -0.22965386216E+03  0.14079517009E+02  0.27652802095E+03  0.00000000000E+00 0.  1.
<mgrwt>
<rscale>  0 0.20241564E+04</rscale>
<asrwt>0</asrwt>
<pdfrwt beam="1">  1        2 0.24702206E+00 0.20241564E+04</pdfrwt>
<pdfrwt beam="2">  1       -2 0.98144438E-01 0.20241564E+04</pdfrwt>
<totfact> 0.88638686E+00</totfact>
</mgrwt>
</event>
<event>
12    2  0.3518828E-008  0.2441505E+04  0.7818608E-02  0.8424126E-01
          2   -1    0    0  501    0  0.00000000000E+00  0.00000000000E+00  0.26075639048E+04  0.26075639048E+04  0.00000000000E+00 0. -1.
         -2   -1    0    0    0  501 -0.00000000000E+00 -0.00000000000E+00 -0.57150521179E+03  0.57150521179E+03  0.00000000000E+00 0.  1.
         23    2    1    2    0    0 -0.25797264051E+03 -0.46460521285E+03  0.20786544984E+04  0.21473972225E+04  0.90013445626E+02 0.  0.
        254    2    1    2    0    0  0.25797264051E+03  0.46460521285E+03 -0.42595805401E+02  0.10316718941E+04  0.88324662884E+03 0.  0.
         23    2    4    4    0    0  0.36668536190E+02 -0.22264785604E+03  0.14102152156E+03  0.28112479313E+03  0.90705184107E+02 0.  0.
         23    2    4    4    0    0  0.22130410432E+03  0.68725306889E+03 -0.18361732696E+03  0.75054710096E+03  0.91177523046E+02 0.  0.
          1    1    3    3  502    0 -0.19882672170E+03 -0.27522071051E+03  0.12460283321E+04  0.12914585201E+04  0.00000000000E+00 0. -1.
         -1    1    3    3    0  502 -0.59145918807E+02 -0.18938450233E+03  0.83262616628E+03  0.85593870237E+03  0.00000000000E+00 0.  1.
         11    1    5    5    0    0  0.55496743380E+02 -0.21265903311E+03  0.13821043098E+03  0.25962641645E+03  0.00000000000E+00 0. -1.
        -11    1    5    5    0    0 -0.18828207190E+02 -0.99888229321E+01  0.28110905828E+01  0.21498376679E+02  0.00000000000E+00 0.  1.
          3    1    6    6  503    0  0.20580198108E+03  0.59247491394E+03 -0.12991486787E+03  0.64051452127E+03  0.00000000000E+00 0. -1.
         -3    1    6    6    0  503  0.15502123245E+02  0.94778154947E+02 -0.53702459088E+02  0.11003257969E+03  0.00000000000E+00 0.  1.
<mgrwt>
<rscale>  0 0.24415048E+04</rscale>
<asrwt>0</asrwt>
<pdfrwt beam="1">  1        2 0.40116367E+00 0.24415048E+04</pdfrwt>
<pdfrwt beam="2">  1       -2 0.87923880E-01 0.24415048E+04</pdfrwt>
<totfact> 0.30101082E+00</totfact>
</mgrwt>
</event>
<event>
12    2  0.3518828E-008  0.1256511E+04  0.7818608E-02  0.9064781E-01
          1   -1    0    0  501    0  0.00000000000E+00  0.00000000000E+00  0.26208055441E+04  0.26208055441E+04  0.00000000000E+00 0. -1.
         -1   -1    0    0    0  501 -0.00000000000E+00 -0.00000000000E+00 -0.15060455223E+03  0.15060455223E+03  0.00000000000E+00 0.  1.
         23    2    1    2    0    0  0.38993633368E+02 -0.63281726446E+02 -0.22342707906E+02  0.11873882831E+03  0.89858958408E+02 0.  0.
        254    2    1    2    0    0 -0.38993633368E+02  0.63281726446E+02  0.24925436998E+04  0.26526712681E+04  0.90463566175E+03 0.  0.
         23    2    4    4    0    0 -0.35345439232E+03 -0.18332475032E+03  0.66973511578E+03  0.78434732285E+03  0.90097869205E+02 0.  0.
         23    2    4    4    0    0  0.31446075895E+03  0.24660647676E+03  0.18228085840E+04  0.18683239452E+04  0.91120287860E+02 0.  0.
          1    1    3    3  502    0 -0.20165454546E+01  0.16725862137E+02 -0.23391686695E+02  0.28826930572E+02  0.00000000000E+00 0. -1.
         -1    1    3    3    0  502  0.41010178822E+02 -0.80007588583E+02  0.10489787887E+01  0.89911897736E+02  0.00000000000E+00 0.  1.
         11    1    5    5    0    0 -0.69118363772E+02 -0.27164611993E+02  0.67772772039E+02  0.10054060366E+03  0.00000000000E+00 0. -1.
        -11    1    5    5    0    0 -0.28433602854E+03 -0.15616013833E+03  0.60196234374E+03  0.68380671919E+03  0.00000000000E+00 0.  1.
          2    1    6    6  503    0  0.42344545868E+02  0.16173284739E+02  0.35212793008E+03  0.35503339963E+03  0.00000000000E+00 0. -1.
         -2    1    6    6    0  503  0.27211621308E+03  0.23043319203E+03  0.14706806540E+04  0.15132905456E+04  0.00000000000E+00 0.  1.
<mgrwt>
<rscale>  0 0.12565114E+04</rscale>
<asrwt>0</asrwt>
<pdfrwt beam="1">  1        1 0.40320082E+00 0.12565114E+04</pdfrwt>
<pdfrwt beam="2">  1       -1 0.23169933E-01 0.12565114E+04</pdfrwt>
<totfact> 0.17659266E+01</totfact>
</mgrwt>
</event>
<event>
12    2  0.3518828E-008  0.2184008E+04  0.7818608E-02  0.8525114E-01
         -2   -1    0    0    0  501 -0.00000000000E+00  0.00000000000E+00  0.61259957698E+03  0.61259957698E+03  0.00000000000E+00 0.  1.
          2   -1    0    0  501    0  0.00000000000E+00 -0.00000000000E+00 -0.19465781513E+04  0.19465781513E+04  0.00000000000E+00 0. -1.
         23    2    1    2    0    0  0.59566098040E+03 -0.44760397274E+03 -0.10985613993E+04  0.13304830148E+04  0.90479747168E+02 0.  0.
        254    2    1    2    0    0 -0.59566098040E+03  0.44760397274E+03 -0.23541717492E+03  0.12286947134E+04  0.94821312610E+03 0.  0.
         23    2    4    4    0    0 -0.19384518454E+03  0.47222466012E+03  0.26332498026E+03  0.58136433086E+03  0.89846284105E+02 0.  0.
         23    2    4    4    0    0 -0.40181579586E+03 -0.24620687383E+02 -0.49874215518E+03  0.64733038254E+03  0.90723617392E+02 0.  0.
          4    1    3    3  502    0  0.47658791862E+03 -0.32335856544E+03 -0.79770092406E+03  0.98388188837E+03  0.00000000000E+00 0. -1.
         -4    1    3    3    0  502  0.11907306178E+03 -0.12424540730E+03 -0.30086047529E+03  0.34660112646E+03  0.00000000000E+00 0.  1.
         11    1    5    5    0    0 -0.19755284645E+03  0.46555600392E+03  0.26805849296E+03  0.57238525101E+03  0.00000000000E+00 0.  1.
        -11    1    5    5    0    0  0.37076619133E+01  0.66686562059E+01 -0.47335126996E+01  0.89790798489E+01  0.00000000000E+00 0. -1.
          1    1    6    6  503    0 -0.99336676148E+02 -0.34409394888E+02 -0.87767664568E+02  0.13694869342E+03  0.00000000000E+00 0. -1.
         -1    1    6    6    0  503 -0.30247911971E+03  0.97887075054E+01 -0.41097449062E+03  0.51038168912E+03  0.00000000000E+00 0.  1.
<mgrwt>
<rscale>  0 0.21840082E+04</rscale>
<asrwt>0</asrwt>
<pdfrwt beam="1">  1        2 0.29947356E+00 0.21840082E+04</pdfrwt>
<pdfrwt beam="2">  1       -2 0.94246089E-01 0.21840082E+04</pdfrwt>
<totfact> 0.62169745E+00</totfact>
</mgrwt>
</event>
<event>
12    2  0.3518828E-008  0.1807819E+04  0.7818608E-02  0.8702152E-01
          2   -1    0    0  501    0  0.00000000000E+00  0.00000000000E+00  0.14406248428E+04  0.14406248428E+04  0.00000000000E+00 0. -1.
         -2   -1    0    0    0  501 -0.00000000000E+00 -0.00000000000E+00 -0.56715153824E+03  0.56715153824E+03  0.00000000000E+00 0.  1.
         23    2    1    2    0    0 -0.40998047289E+03 -0.12255603156E+03 -0.26096627858E+03  0.50895549160E+03  0.88477821259E+02 0.  0.
        254    2    1    2    0    0  0.40998047289E+03  0.12255603156E+03  0.11344395832E+04  0.14988208895E+04  0.88113955865E+03 0.  0.
         23    2    4    4    0    0  0.35478713517E+03  0.44681440063E+03  0.94838248361E+03  0.11105307952E+04  0.91281388627E+02 0.  0.
         23    2    4    4    0    0  0.55193337717E+02 -0.32425836907E+03  0.18605709955E+03  0.38829009429E+03  0.89230928446E+02 0.  0.
          2    1    3    3  502    0 -0.40316966462E+02 -0.15810607566E+02  0.12669167484E+01  0.43324798608E+02  0.00000000000E+00 0. -1.
         -2    1    3    3    0  502 -0.36966350642E+03 -0.10674542399E+03 -0.26223319532E+03  0.46563069299E+03  0.00000000000E+00 0.  1.
         11    1    5    5    0    0  0.32467613874E+03  0.38634538838E+03  0.87983821648E+03  0.10142941592E+04  0.00000000000E+00 0.  1.
        -11    1    5    5    0    0  0.30110996429E+02  0.60469012247E+02  0.68544267136E+02  0.96236635983E+02  0.00000000000E+00 0. -1.
          1    1    6    6  503    0  0.74771880636E+02 -0.17835378623E+03  0.11230168103E+03  0.22363491400E+03  0.00000000000E+00 0. -1.
         -1    1    6    6    0  503 -0.19578542919E+02 -0.14590458284E+03  0.73755418520E+02  0.16465518029E+03  0.00000000000E+00 0.  1.
<mgrwt>
<rscale>  0 0.18078192E+04</rscale>
<asrwt>0</asrwt>
<pdfrwt beam="1">  1        2 0.22163459E+00 0.18078192E+04</pdfrwt>
<pdfrwt beam="2">  1       -2 0.87254083E-01 0.18078192E+04</pdfrwt>
<totfact> 0.14689323E+01</totfact>
</mgrwt>
</event>
<event>
12    2  0.3518828E-008  0.2526265E+04  0.7818608E-02  0.8393688E-01
          1   -1    0    0  501    0  0.00000000000E+00  0.00000000000E+00  0.11156232579E+04  0.11156232579E+04  0.00000000000E+00 0. -1.
         -1   -1    0    0    0  501 -0.00000000000E+00 -0.00000000000E+00 -0.14301459478E+04  0.14301459478E+04  0.00000000000E+00 0.  1.
         23    2    1    2    0    0  0.55669408076E+02  0.43031705319E+03 -0.11564829487E+04  0.12383239839E+04  0.87872801272E+02 0.  0.
        254    2    1    2    0    0 -0.55669408076E+02 -0.43031705319E+03  0.84196025882E+03  0.13074452218E+04  0.90124584954E+03 0.  0.
         23    2    4    4    0    0 -0.44970281819E+03 -0.84922822139E+02  0.40141644982E+03  0.61571085289E+03  0.92304809066E+02 0.  0.
         23    2    4    4    0    0  0.39403341012E+03 -0.34539423105E+03  0.44054380901E+03  0.69173436891E+03  0.99287896233E+02 0.  0.
          3    1    3    3  502    0 -0.19424098047E+02  0.49290854782E+02 -0.17339828110E+03  0.18131146637E+03  0.00000000000E+00 0. -1.
         -3    1    3    3    0  502  0.75093506123E+02  0.38102619841E+03 -0.98308466763E+03  0.10570125176E+04  0.00000000000E+00 0.  1.
         11    1    5    5    0    0 -0.26185800492E+03 -0.93488430605E+02  0.25679943202E+03  0.37849128086E+03  0.00000000000E+00 0. -1.
        -11    1    5    5    0    0 -0.18784481327E+03  0.85656084663E+01  0.14461701780E+03  0.23721957204E+03  0.00000000000E+00 0.  1.
          3    1    6    6  503    0  0.34133955844E+03 -0.24833641562E+03  0.33393740868E+03  0.53823587989E+03  0.00000000000E+00 0. -1.
         -3    1    6    6    0  503  0.52693851674E+02 -0.97057815431E+02  0.10660640032E+03  0.15349848902E+03  0.00000000000E+00 0.  1.
<mgrwt>
<rscale>  0 0.25262653E+04</rscale>
<asrwt>0</asrwt>
<pdfrwt beam="1">  1        1 0.17163435E+00 0.25262653E+04</pdfrwt>
<pdfrwt beam="2">  1       -1 0.22002245E+00 0.25262653E+04</pdfrwt>
<totfact> 0.12033194E+00</totfact>
</mgrwt>
</event>
<event>
12    2  0.3518828E-008  0.1858884E+04  0.7818608E-02  0.8675598E-01
          1   -1    0    0  501    0  0.00000000000E+00  0.00000000000E+00  0.13535971256E+04  0.13535971256E+04  0.00000000000E+00 0. -1.
         -1   -1    0    0    0  501 -0.00000000000E+00 -0.00000000000E+00 -0.63819758339E+03  0.63819758339E+03  0.00000000000E+00 0.  1.
         23    2    1    2    0    0  0.26051766557E+03  0.63374232535E+03  0.41838814679E+03  0.80816210806E+03  0.92620529701E+02 0.  0.
        254    2    1    2    0    0 -0.26051766557E+03 -0.63374232535E+03  0.29701139546E+03  0.11836326010E+04  0.91829819559E+03 0.  0.
         23    2    4    4    0    0 -0.94235018259E+02 -0.39611546329E+03  0.61514835539E+03  0.74331886169E+03  0.91256408508E+02 0.  0.
         23    2    4    4    0    0 -0.16628264731E+03 -0.23762686206E+03 -0.31813695993E+03  0.44031373927E+03  0.92458744003E+02 0.  0.
          3    1    3    3  502    0  0.17245045705E+01  0.75860559407E+02  0.35978625018E+02  0.83977734238E+02  0.00000000000E+00 0. -1.
         -3    1    3    3    0  502  0.25879316100E+03  0.55788176594E+03  0.38240952177E+03  0.72418437382E+03  0.00000000000E+00 0.  1.
         11    1    5    5    0    0 -0.73617626734E+02 -0.38298374917E+03  0.59604165625E+03  0.71229331253E+03  0.00000000000E+00 0.  1.
        -11    1    5    5    0    0 -0.20617391524E+02 -0.13131714120E+02  0.19106699142E+02  0.31025549167E+02  0.00000000000E+00 0. -1.
          2    1    6    6  503    0 -0.20494162951E+02 -0.15714078558E-01 -0.47717881774E+02  0.51932718040E+02  0.00000000000E+00 0. -1.
         -2    1    6    6    0  503 -0.14578848436E+03 -0.23761114798E+03 -0.27041907816E+03  0.38838102123E+03  0.00000000000E+00 0.  1.
<mgrwt>
<rscale>  0 0.18588840E+04</rscale>
<asrwt>0</asrwt>
<pdfrwt beam="1">  1        1 0.20824571E+00 0.18588840E+04</pdfrwt>
<pdfrwt beam="2">  1       -1 0.98184244E-01 0.18588840E+04</pdfrwt>
<totfact> 0.77305081E+00</totfact>
</mgrwt>
</event>
<event>
12    2  0.3518828E-008  0.1891738E+04  0.7818608E-02  0.8658980E-01
         -2   -1    0    0    0  501 -0.00000000000E+00  0.00000000000E+00  0.34451644702E+03  0.34451644702E+03  0.00000000000E+00 0. -1.
          2   -1    0    0  501    0  0.00000000000E+00 -0.00000000000E+00 -0.25968804157E+04  0.25968804157E+04  0.00000000000E+00 0.  1.
         23    2    1    2    0    0  0.16349431599E+03  0.70937347191E+03 -0.79898654502E+03  0.10831954355E+04  0.70652235798E+02 0.  0.
        254    2    1    2    0    0 -0.16349431599E+03 -0.70937347191E+03 -0.14533774236E+04  0.18582014272E+04  0.90036964320E+03 0.  0.
         23    2    4    4    0    0 -0.18581129120E+03 -0.47731261765E+02  0.44830828976E+02  0.21756456148E+03  0.92306153089E+02 0.  0.
         23    2    4    4    0    0  0.22316975212E+02 -0.66164221015E+03 -0.14982082526E+04  0.16406368657E+04  0.93770439132E+02 0.  0.
          2    1    3    3  502    0  0.73577680657E+02  0.36577261308E+03 -0.45920419372E+03  0.59166863285E+03  0.00000000000E+00 0. -1.
         -2    1    3    3    0  502  0.89916635328E+02  0.34360085883E+03 -0.33978235130E+03  0.49152680268E+03  0.00000000000E+00 0.  1.
         11    1    5    5    0    0 -0.24767469502E+02  0.25414992796E+02  0.18240978587E+01  0.35534162961E+02  0.00000000000E+00 0.  1.
        -11    1    5    5    0    0 -0.16104382170E+03 -0.73146254561E+02  0.43006731117E+02  0.18203039852E+03  0.00000000000E+00 0. -1.
          1    1    6    6  503    0  0.25428671439E+02 -0.21590258750E+03 -0.59387825260E+03  0.63241752311E+03  0.00000000000E+00 0. -1.
         -1    1    6    6    0  503 -0.31116962273E+01 -0.44573962264E+03 -0.90433000001E+03  0.10082193426E+04  0.00000000000E+00 0.  1.
<mgrwt>
<rscale>  0 0.18917378E+04</rscale>
<asrwt>0</asrwt>
<pdfrwt beam="1">  1        2 0.39952004E+00 0.18917378E+04</pdfrwt>
<pdfrwt beam="2">  1       -2 0.53002533E-01 0.18917378E+04</pdfrwt>
<totfact> 0.96260147E+00</totfact>
</mgrwt>
</event>
<event>
12    2  0.3518828E-008  0.1311440E+04  0.7818608E-02  0.9020542E-01
         -3   -1    0    0    0  501 -0.00000000000E+00  0.00000000000E+00  0.10387551170E+04  0.10387551170E+04  0.00000000000E+00 0.  1.
          3   -1    0    0  501    0  0.00000000000E+00 -0.00000000000E+00 -0.41392678758E+03  0.41392678758E+03  0.00000000000E+00 0. -1.
         23    2    1    2    0    0  0.77328432136E+02  0.46244657529E+02 -0.14743237903E+03  0.19658675259E+03  0.93764546283E+02 0.  0.
        254    2    1    2    0    0 -0.77328432136E+02 -0.46244657529E+02  0.77226070841E+03  0.12560951520E+04  0.98654456272E+03 0.  0.
         23    2    4    4    0    0  0.40106206289E+03 -0.97804937684E+02  0.60483301077E+03  0.73765758031E+03  0.88877166616E+02 0.  0.
         23    2    4    4    0    0 -0.47839049503E+03  0.51560280154E+02  0.16742769764E+03  0.51843757164E+03  0.96070565367E+02 0.  0.
          3    1    3    3  502    0  0.92351490267E+02  0.49608680696E+02 -0.14778081535E+03  0.18118771575E+03  0.00000000000E+00 0. -1.
         -3    1    3    3    0  502 -0.15023058131E+02 -0.33640231670E+01  0.34843632072E+00  0.15399036832E+02  0.00000000000E+00 0.  1.
         11    1    5    5    0    0  0.23859797483E+03 -0.10243396781E+03  0.36465196155E+03  0.44765250409E+03  0.00000000000E+00 0.  1.
        -11    1    5    5    0    0  0.16246408806E+03  0.46290301295E+01  0.24018104922E+03  0.29000507622E+03  0.00000000000E+00 0. -1.
          2    1    6    6  503    0  0.80016276147E+00  0.39252073304E+01  0.11643847144E+02  0.12313678952E+02  0.00000000000E+00 0.  1.
         -2    1    6    6    0  503 -0.47919065779E+03  0.47635072824E+02  0.15578385050E+03  0.50612389269E+03  0.00000000000E+00 0. -1.
<mgrwt>
<rscale>  0 0.13114398E+04</rscale>
<asrwt>0</asrwt>
<pdfrwt beam="1">  1        3 0.63681045E-01 0.13114398E+04</pdfrwt>
<pdfrwt beam="2">  1       -3 0.15980848E+00 0.13114398E+04</pdfrwt>
<totfact> 0.16772551E+00</totfact>
</mgrwt>
</event>
<event>
12    2  0.3518828E-008  0.1921418E+04  0.7818608E-02  0.8644268E-01
         -2   -1    0    0    0  501 -0.00000000000E+00  0.00000000000E+00  0.25749840698E+04  0.25749840698E+04  0.00000000000E+00 0.  1.
          2   -1    0    0  501    0  0.00000000000E+00 -0.00000000000E+00 -0.35843410853E+03  0.35843410853E+03  0.00000000000E+00 0. -1.
         23    2    1    2    0    0  0.18741365811E+03 -0.11733212041E+03 -0.22012611258E+03  0.32502786456E+03  0.91087329380E+02 0.  0.
        254    2    1    2    0    0 -0.18741365811E+03  0.11733212041E+03  0.24366760739E+04  0.26083903138E+04  0.90411229083E+03 0.  0.
         23    2    4    4    0    0 -0.40601187117E+03 -0.82288788258E+02  0.53944856478E+03  0.68621836083E+03  0.90960433694E+02 0.  0.
         23    2    4    4    0    0  0.21859821307E+03  0.19962090867E+03  0.18972275091E+04  0.19221719530E+04  0.87401999875E+02 0.  0.
          3    1    3    3  502    0  0.14296738396E+03 -0.11106030035E+03 -0.21306323045E+03  0.27958899005E+03  0.00000000000E+00 0. -1.
         -3    1    3    3    0  502  0.44446274144E+02 -0.62718200637E+01 -0.70628821346E+01  0.45438874505E+02  0.00000000000E+00 0.  1.
         11    1    5    5    0    0 -0.16773129761E+03 -0.79637535410E+02  0.24571869452E+03  0.30798311980E+03  0.00000000000E+00 0.  1.
        -11    1    5    5    0    0 -0.23828057356E+03 -0.26512528480E+01  0.29372987026E+03  0.37823524104E+03  0.00000000000E+00 0. -1.
          1    1    6    6  503    0  0.22089371473E+03  0.18653036413E+03  0.16927021051E+04  0.17172151951E+04  0.00000000000E+00 0. -1.
         -1    1    6    6    0  503 -0.22955016580E+01  0.13090544543E+02  0.20452540402E+03  0.20495675781E+03  0.00000000000E+00 0.  1.
<mgrwt>
<rscale>  0 0.19214184E+04</rscale>
<asrwt>0</asrwt>
<pdfrwt beam="1">  1        2 0.55143711E-01 0.19214184E+04</pdfrwt>
<pdfrwt beam="2">  1       -2 0.39615138E+00 0.19214184E+04</pdfrwt>
<totfact> 0.66397786E-01</totfact>
</mgrwt>
</event>
<event>
12    2  0.3518828E-008  0.1343552E+04  0.7818608E-02  0.8995724E-01
         -2   -1    0    0    0  501 -0.00000000000E+00  0.00000000000E+00  0.48233307781E+03  0.48233307781E+03  0.00000000000E+00 0.  1.
          2   -1    0    0  501    0  0.00000000000E+00 -0.00000000000E+00 -0.93562480431E+03  0.93562480431E+03  0.00000000000E+00 0. -1.
         23    2    1    2    0    0  0.21140076478E+03  0.22790940390E+03 -0.32363235713E+03  0.45768834259E+03  0.90042971025E+02 0.  0.
        254    2    1    2    0    0 -0.21140076478E+03 -0.22790940390E+03 -0.12965936937E+03  0.96026953953E+03  0.89926250714E+03 0.  0.
         23    2    4    4    0    0 -0.34476391465E+03 -0.37620328371E+03  0.20680201335E+03  0.55861698156E+03  0.94312204079E+02 0.  0.
         23    2    4    4    0    0  0.13336314987E+03  0.14829387981E+03 -0.33646138272E+03  0.40165255797E+03  0.91332966282E+02 0.  0.
          1    1    3    3  502    0  0.20740225220E+03  0.20933054232E+03 -0.26590634396E+03  0.39691454234E+03  0.00000000000E+00 0. -1.
         -1    1    3    3    0  502  0.39985125766E+01  0.18578861580E+02 -0.57726013168E+02  0.60773800249E+02  0.00000000000E+00 0.  1.
         11    1    5    5    0    0 -0.22358430771E+02 -0.78626405485E+00  0.18899483669E+02  0.29286654310E+02  0.00000000000E+00 0. -1.
        -11    1    5    5    0    0 -0.32240548388E+03 -0.37541701966E+03  0.18790252968E+03  0.52933032725E+03  0.00000000000E+00 0.  1.
          2    1    6    6  503    0  0.51220640248E+02  0.63514650574E+02 -0.22484768662E+03  0.23919478883E+03  0.00000000000E+00 0. -1.
         -2    1    6    6    0  503  0.82142509619E+02  0.84779229240E+02 -0.11161369610E+03  0.16245776914E+03  0.00000000000E+00 0.  1.
<mgrwt>
<rscale>  0 0.13435517E+04</rscale>
<asrwt>0</asrwt>
<pdfrwt beam="1">  1        2 0.14394228E+00 0.13435517E+04</pdfrwt>
<pdfrwt beam="2">  1       -2 0.74205089E-01 0.13435517E+04</pdfrwt>
<totfact> 0.44352861E+01</totfact>
</mgrwt>
</event>
<event>
12    2  0.3518828E-008  0.1366818E+04  0.7818608E-02  0.8978194E-01
          1   -1    0    0  501    0  0.00000000000E+00  0.00000000000E+00  0.14984731898E+04  0.14984731898E+04  0.00000000000E+00 0. -1.
         -1   -1    0    0    0  501 -0.00000000000E+00 -0.00000000000E+00 -0.31168242668E+03  0.31168242668E+03  0.00000000000E+00 0.  1.
         23    2    1    2    0    0  0.21106132058E+03 -0.62254125464E+02  0.74531236160E+03  0.78210999257E+03  0.88221692002E+02 0.  0.
        254    2    1    2    0    0 -0.21106132058E+03  0.62254125464E+02  0.44147840155E+03  0.10280456239E+04  0.90197126822E+03 0.  0.
         23    2    4    4    0    0 -0.41496111784E+03  0.21328384239E+03 -0.39194692843E+02  0.47702559003E+03  0.91293279332E+02 0.  0.
         23    2    4    4    0    0  0.20389979726E+03 -0.15102971693E+03  0.48067309440E+03  0.55102003391E+03  0.90506084761E+02 0.  0.
          3    1    3    3  502    0  0.18827140019E+03 -0.68269989446E+02  0.72079894174E+03  0.74810295147E+03  0.00000000000E+00 0. -1.
         -3    1    3    3    0  502  0.22789920391E+02  0.60158639823E+01  0.24513419858E+02  0.34007041095E+02  0.00000000000E+00 0.  1.
         11    1    5    5    0    0 -0.28103563026E+03  0.18334921501E+03 -0.49742013228E+01  0.33559306131E+03  0.00000000000E+00 0. -1.
        -11    1    5    5    0    0 -0.13392548759E+03  0.29934627383E+02 -0.34220491520E+02  0.14143252872E+03  0.00000000000E+00 0.  1.
          2    1    6    6  503    0  0.71917535754E+02 -0.34981760831E+02  0.24025456121E+03  0.25321554005E+03  0.00000000000E+00 0.  1.
         -2    1    6    6    0  503  0.13198226150E+03 -0.11604795610E+03  0.24041853319E+03  0.29780449386E+03  0.00000000000E+00 0. -1.
<mgrwt>
<rscale>  0 0.13668179E+04</rscale>
<asrwt>0</asrwt>
<pdfrwt beam="1">  1        1 0.23053433E+00 0.13668179E+04</pdfrwt>
<pdfrwt beam="2">  1       -1 0.47951144E-01 0.13668179E+04</pdfrwt>
<totfact> 0.27856728E+01</totfact>
</mgrwt>
</event>
<event>
12    2  0.3518828E-008  0.1763859E+04  0.7818608E-02  0.8725758E-01
         -1   -1    0    0    0  501 -0.00000000000E+00  0.00000000000E+00  0.24403651283E+03  0.24403651283E+03  0.00000000000E+00 0.  1.
          1   -1    0    0  501    0  0.00000000000E+00 -0.00000000000E+00 -0.31872273122E+04  0.31872273122E+04  0.00000000000E+00 0. -1.
         23    2    1    2    0    0  0.10777555109E+01  0.60077341096E+03 -0.61025543039E+03  0.86070561077E+03  0.86444231839E+02 0.  0.
        254    2    1    2    0    0 -0.10777555109E+01 -0.60077341096E+03 -0.23329353690E+04  0.25705582143E+04  0.89680111741E+03 0.  0.
         23    2    4    4    0    0 -0.24452464699E+02  0.20166813051E+03 -0.88392689511E+03  0.91144049938E+03  0.90161355990E+02 0.  0.
         23    2    4    4    0    0  0.23374709188E+02 -0.80244154146E+03 -0.14490084739E+04  0.16591177149E+04  0.92667308106E+02 0.  0.
          2    1    3    3  502    0  0.23158228654E+02  0.50049944941E+03 -0.53787385170E+03  0.73508114025E+03  0.00000000000E+00 0.  1.
         -2    1    3    3    0  502 -0.22080473143E+02  0.10027396155E+03 -0.72381578690E+02  0.12562447051E+03  0.00000000000E+00 0. -1.
         11    1    5    5    0    0 -0.37756547371E+02  0.15843514739E+03 -0.52524923891E+03  0.54992182697E+03  0.00000000000E+00 0.  1.
        -11    1    5    5    0    0  0.13304082672E+02  0.43232983117E+02 -0.35867765620E+03  0.36151867241E+03  0.00000000000E+00 0. -1.
          2    1    6    6  503    0 -0.98006921092E+00 -0.35696294682E+02 -0.32811932652E+02  0.48495452509E+02  0.00000000000E+00 0. -1.
         -2    1    6    6    0  503  0.24354778399E+02 -0.76674524678E+03 -0.14161965412E+04  0.16106222624E+04  0.00000000000E+00 0.  1.
<mgrwt>
<rscale>  0 0.17638592E+04</rscale>
<asrwt>0</asrwt>
<pdfrwt beam="1">  1        1 0.49034265E+00 0.17638592E+04</pdfrwt>
<pdfrwt beam="2">  1       -1 0.37544080E-01 0.17638592E+04</pdfrwt>
<totfact> 0.28251276E+00</totfact>
</mgrwt>
</event>
<event>
12    2  0.3518828E-008  0.2808263E+04  0.7818608E-02  0.8300708E-01
         -2   -1    0    0    0  501 -0.00000000000E+00  0.00000000000E+00  0.20755329062E+04  0.20755329062E+04  0.00000000000E+00 0.  1.
          2   -1    0    0  501    0  0.00000000000E+00 -0.00000000000E+00 -0.94991772286E+03  0.94991772286E+03  0.00000000000E+00 0. -1.
         23    2    1    2    0    0 -0.77006435817E+02 -0.97099245732E+03 -0.35573313103E+03  0.10407474837E+04  0.88616708862E+02 0.  0.
        254    2    1    2    0    0  0.77006435817E+02  0.97099245732E+03  0.14813483144E+04  0.19847031453E+04  0.89213082180E+03 0.  0.
         23    2    4    4    0    0 -0.37313798402E+03  0.23118333928E+03  0.45768468736E+03  0.64081027671E+03  0.92113224987E+02 0.  0.
         23    2    4    4    0    0  0.45014441983E+03  0.73980911804E+03  0.10236636270E+04  0.13438928686E+04  0.90627209912E+02 0.  0.
          3    1    3    3  502    0 -0.18711364805E+02 -0.31400774898E+03 -0.15900368628E+03  0.35246723798E+03  0.00000000000E+00 0. -1.
         -3    1    3    3    0  502 -0.58295071012E+02 -0.65698470833E+03 -0.19672944474E+03  0.68828024577E+03  0.00000000000E+00 0.  1.
         11    1    5    5    0    0 -0.35226310231E+03  0.19535833291E+03  0.38542856679E+03  0.55750278168E+03  0.00000000000E+00 0. -1.
        -11    1    5    5    0    0 -0.20874881702E+02  0.35825006367E+02  0.72256120571E+02  0.83307495025E+02  0.00000000000E+00 0.  1.
          3    1    6    6  503    0  0.29458529771E+03  0.56086790615E+03  0.75367695160E+03  0.98457211678E+03  0.00000000000E+00 0. -1.
         -3    1    6    6    0  503  0.15555912213E+03  0.17894121189E+03  0.26998667543E+03  0.35932075184E+03  0.00000000000E+00 0.  1.
<mgrwt>
<rscale>  0 0.28082632E+04</rscale>
<asrwt>0</asrwt>
<pdfrwt beam="1">  1        2 0.14614119E+00 0.28082632E+04</pdfrwt>
<pdfrwt beam="2">  1       -2 0.31931275E+00 0.28082632E+04</pdfrwt>
<totfact> 0.57091019E-01</totfact>
</mgrwt>
</event>
<event>
12    2  0.3518828E-008  0.1532764E+04  0.7818608E-02  0.8862953E-01
          1   -1    0    0  501    0  0.00000000000E+00  0.00000000000E+00  0.60666385845E+03  0.60666385845E+03  0.00000000000E+00 0. -1.
         -1   -1    0    0    0  501 -0.00000000000E+00 -0.00000000000E+00 -0.96814897079E+03  0.96814897079E+03  0.00000000000E+00 0.  1.
         23    2    1    2    0    0 -0.36300012347E+03  0.34032317125E+03 -0.66202580444E+02  0.51050319460E+03  0.92961172027E+02 0.  0.
        254    2    1    2    0    0  0.36300012347E+03 -0.34032317125E+03 -0.29528253190E+03  0.10643096346E+04  0.89329405809E+03 0.  0.
         23    2    4    4    0    0  0.36937422770E+03 -0.14690818688E+03 -0.57944836043E+03  0.70857771420E+03  0.91118819135E+02 0.  0.
         23    2    4    4    0    0 -0.63741042303E+01 -0.19341498437E+03  0.28416582853E+03  0.35573192044E+03  0.91350948196E+02 0.  0.
          3    1    3    3  502    0 -0.32936302714E+03  0.26589469374E+03 -0.68452598961E+02  0.42879569740E+03  0.00000000000E+00 0. -1.
         -3    1    3    3    0  502 -0.33637096330E+02  0.74428477513E+02  0.22500185166E+01  0.81707497195E+02  0.00000000000E+00 0.  1.
         11    1    5    5    0    0  0.24659920100E+03 -0.82595576083E+02 -0.44536385778E+03  0.51573458381E+03  0.00000000000E+00 0. -1.
        -11    1    5    5    0    0  0.12277502670E+03 -0.64312610798E+02 -0.13408450265E+03  0.19284313039E+03  0.00000000000E+00 0.  1.
          1    1    6    6  503    0 -0.22707830481E+02 -0.18202877760E+03  0.20951765505E+03  0.27847400097E+03  0.00000000000E+00 0. -1.
         -1    1    6    6    0  503  0.16333726251E+02 -0.11386206773E+02  0.74648173476E+02  0.77257919473E+02  0.00000000000E+00 0.  1.
<mgrwt>
<rscale>  0 0.15327635E+04</rscale>
<asrwt>0</asrwt>
<pdfrwt beam="1">  1        1 0.93332901E-01 0.15327635E+04</pdfrwt>
<pdfrwt beam="2">  1       -1 0.14894600E+00 0.15327635E+04</pdfrwt>
<totfact> 0.11563969E+01</totfact>
</mgrwt>
</event>
<event>
12    2  0.3518828E-008  0.2142147E+04  0.7818608E-02  0.8542901E-01
         -3   -1    0    0    0  501 -0.00000000000E+00  0.00000000000E+00  0.16747202638E+04  0.16747202638E+04  0.00000000000E+00 0.  1.
          3   -1    0    0  501    0  0.00000000000E+00 -0.00000000000E+00 -0.68500906966E+03  0.68500906966E+03  0.00000000000E+00 0. -1.
         23    2    1    2    0    0 -0.44288321239E+02 -0.17789144351E+03 -0.53746721536E+03  0.57470305622E+03  0.88350292405E+02 0.  0.
        254    2    1    2    0    0  0.44288321239E+02  0.17789144351E+03  0.15271784095E+04  0.17850262772E+04  0.90578037893E+03 0.  0.
         23    2    4    4    0    0  0.39524925790E+03  0.20725632960E+03  0.12415411072E+04  0.13224841462E+04  0.91448532603E+02 0.  0.
         23    2    4    4    0    0 -0.35096093666E+03 -0.29364886088E+02  0.28563730230E+03  0.46254213100E+03  0.91217755323E+02 0.  0.
          3    1    3    3  502    0 -0.20421228414E+02 -0.17761927693E+03 -0.48940790088E+03  0.52104292294E+03  0.00000000000E+00 0. -1.
         -3    1    3    3    0  502 -0.23867092826E+02 -0.27216657598E+00 -0.48059314488E+02  0.53660133280E+02  0.00000000000E+00 0.  1.
         11    1    5    5    0    0  0.94870766757E+02  0.51489561155E+02  0.19875449721E+03  0.22617468349E+03  0.00000000000E+00 0. -1.
        -11    1    5    5    0    0  0.30037849114E+03  0.15576676844E+03  0.10427866100E+04  0.10963094627E+04  0.00000000000E+00 0.  1.
          3    1    6    6  503    0 -0.24212508744E+02  0.22399691347E+02  0.26070023646E+02  0.42043285849E+02  0.00000000000E+00 0. -1.
         -3    1    6    6    0  503 -0.32674842792E+03 -0.51764577435E+02  0.25956727865E+03  0.42049884515E+03  0.00000000000E+00 0.  1.
<mgrwt>
<rscale>  0 0.21421471E+04</rscale>
<asrwt>0</asrwt>
<pdfrwt beam="1">  1        3 0.10538601E+00 0.21421471E+04</pdfrwt>
<pdfrwt beam="2">  1       -3 0.25764927E+00 0.21421471E+04</pdfrwt>
<totfact> 0.12245485E-01</totfact>
</mgrwt>
</event>
<event>
12    2  0.3518828E-008  0.1555210E+04  0.7818608E-02  0.8848547E-01
         -2   -1    0    0    0  501 -0.00000000000E+00  0.00000000000E+00  0.91601318251E+03  0.91601318251E+03  0.00000000000E+00 0. -1.
          2   -1    0    0  501    0  0.00000000000E+00 -0.00000000000E+00 -0.66011003042E+03  0.66011003042E+03  0.00000000000E+00 0.  1.
         23    2    1    2    0    0  0.22510573683E+03 -0.46975957617E+03  0.31809368388E+02  0.52976662319E+03  0.91072427059E+02 0.  0.
        254    2    1    2    0    0 -0.22510573683E+03  0.46975957617E+03  0.22409378371E+03  0.10463565897E+04  0.87937332052E+03 0.  0.
         23    2    4    4    0    0 -0.29251614358E+03  0.10682009891E+03 -0.27047283365E+03  0.42240713652E+03  0.91082421217E+02 0.  0.
         23    2    4    4    0    0  0.67410406753E+02  0.36293947725E+03  0.49456661736E+03  0.62394945322E+03  0.91910576557E+02 0.  0.
          1    1    3    3  502    0  0.12669079617E+03 -0.19680343534E+03  0.48892876148E+02  0.23910805786E+03  0.00000000000E+00 0. -1.
         -1    1    3    3    0  502  0.98414940665E+02 -0.27295614083E+03 -0.17083507760E+02  0.29065856533E+03  0.00000000000E+00 0.  1.
         11    1    5    5    0    0 -0.25840256331E+03  0.60034741824E+02 -0.23569614395E+03  0.35486437863E+03  0.00000000000E+00 0. -1.
        -11    1    5    5    0    0 -0.34113580278E+02  0.46785357086E+02 -0.34776689700E+02  0.67542757891E+02  0.00000000000E+00 0.  1.
          2    1    6    6  503    0  0.22680414464E+02  0.17722967583E+03  0.16598058089E+03  0.24387355828E+03  0.00000000000E+00 0. -1.
         -2    1    6    6    0  503  0.44729992289E+02  0.18570980142E+03  0.32858603646E+03  0.38007589494E+03  0.00000000000E+00 0.  1.
<mgrwt>
<rscale>  0 0.15552099E+04</rscale>
<asrwt>0</asrwt>
<pdfrwt beam="1">  1        2 0.10155539E+00 0.15552099E+04</pdfrwt>
<pdfrwt beam="2">  1       -2 0.14092511E+00 0.15552099E+04</pdfrwt>
<totfact> 0.14976333E+01</totfact>
</mgrwt>
</event>
<event>
12    2  0.3518828E-008  0.1363869E+04  0.7818608E-02  0.8980396E-01
          1   -1    0    0  501    0  0.00000000000E+00  0.00000000000E+00  0.18658008456E+04  0.18658008456E+04  0.00000000000E+00 0. -1.
         -1   -1    0    0    0  501 -0.00000000000E+00 -0.00000000000E+00 -0.24924123453E+03  0.24924123453E+03  0.00000000000E+00 0.  1.
         23    2    1    2    0    0 -0.27318933001E+03 -0.20438713045E+03  0.66282212425E+03  0.75113536494E+03  0.92003581141E+02 0.  0.
        254    2    1    2    0    0  0.27318933001E+03  0.20438713045E+03  0.95373748683E+03  0.13639067152E+04  0.91335635151E+03 0.  0.
         23    2    4    4    0    0 -0.21807362816E+03 -0.10357168299E+03  0.65671870031E+03  0.70606814668E+03  0.94707843438E+02 0.  0.
         23    2    4    4    0    0  0.49126295817E+03  0.30795881343E+03  0.29701878652E+03  0.65783856851E+03  0.91397471719E+02 0.  0.
          3    1    3    3  502    0 -0.27503887763E+03 -0.20280362962E+03  0.61751070634E+03  0.70575857688E+03  0.00000000000E+00 0. -1.
         -3    1    3    3    0  502  0.18495476239E+01 -0.15835008234E+01  0.45311417912E+02  0.45376788058E+02  0.00000000000E+00 0.  1.
         11    1    5    5    0    0 -0.48949749566E+02 -0.42797644210E+02  0.86578494847E+02  0.10827535316E+03  0.00000000000E+00 0.  1.
        -11    1    5    5    0    0 -0.16912387859E+03 -0.60774038775E+02  0.57014020547E+03  0.59779279352E+03  0.00000000000E+00 0. -1.
          4    1    6    6  503    0  0.20180972448E+03  0.12532200417E+03  0.71959550528E+02  0.24821552436E+03  0.00000000000E+00 0. -1.
         -4    1    6    6    0  503  0.28945323369E+03  0.18263680926E+03  0.22505923599E+03  0.40962304414E+03  0.00000000000E+00 0.  1.
<mgrwt>
<rscale>  0 0.13638688E+04</rscale>
<asrwt>0</asrwt>
<pdfrwt beam="1">  1        1 0.28704627E+00 0.13638688E+04</pdfrwt>
<pdfrwt beam="2">  1       -1 0.38344807E-01 0.13638688E+04</pdfrwt>
<totfact> 0.23659685E+01</totfact>
</mgrwt>
</event>
<event>
12    2  0.3518828E-008  0.1516884E+04  0.7818608E-02  0.8873302E-01
          1   -1    0    0  501    0  0.00000000000E+00  0.00000000000E+00  0.11220504525E+04  0.11220504525E+04  0.00000000000E+00 0. -1.
         -1   -1    0    0    0  501 -0.00000000000E+00 -0.00000000000E+00 -0.51266362140E+03  0.51266362140E+03  0.00000000000E+00 0.  1.
         23    2    1    2    0    0  0.40399040767E+03  0.27020022303E+03  0.21047436503E+03  0.53693364164E+03  0.88214892022E+02 0.  0.
        254    2    1    2    0    0 -0.40399040767E+03 -0.27020022303E+03  0.39891246610E+03  0.10977804323E+04  0.89987460897E+03 0.  0.
         23    2    4    4    0    0  0.15471879700E+03  0.88188711220E+01 -0.17068628319E+03  0.24774031711E+03  0.90696079407E+02 0.  0.
         23    2    4    4    0    0 -0.55870920467E+03 -0.27901909416E+03  0.56959874929E+03  0.85004011516E+03  0.90099011671E+02 0.  0.
          1    1    3    3  502    0  0.90915493572E+02  0.74707945774E+02  0.13163611149E+02  0.11840686125E+03  0.00000000000E+00 0. -1.
         -1    1    3    3    0  502  0.31307491410E+03  0.19549227726E+03  0.19731075388E+03  0.41852678039E+03  0.00000000000E+00 0.  1.
         11    1    5    5    0    0  0.14996808692E+03 -0.16473200522E+02 -0.12779158779E+03  0.19771819173E+03  0.00000000000E+00 0.  1.
        -11    1    5    5    0    0  0.47507100802E+01  0.25292071644E+02 -0.42894695405E+02  0.50022125386E+02  0.00000000000E+00 0. -1.
          2    1    6    6  503    0 -0.22042680463E+03 -0.11291887482E+03  0.16777499418E+03  0.29914394054E+03  0.00000000000E+00 0. -1.
         -2    1    6    6    0  503 -0.33828240004E+03 -0.16610021934E+03  0.40182375511E+03  0.55089617462E+03  0.00000000000E+00 0.  1.
<mgrwt>
<rscale>  0 0.15168842E+04</rscale>
<asrwt>0</asrwt>
<pdfrwt beam="1">  1        1 0.17262315E+00 0.15168842E+04</pdfrwt>
<pdfrwt beam="2">  1       -1 0.78871327E-01 0.15168842E+04</pdfrwt>
<totfact> 0.18957840E+01</totfact>
</mgrwt>
</event>
<event>
12    2  0.3518828E-008  0.1069584E+04  0.7818608E-02  0.9235355E-01
         -2   -1    0    0    0  501 -0.00000000000E+00  0.00000000000E+00  0.13426066961E+04  0.13426066961E+04  0.00000000000E+00 0.  1.
          2   -1    0    0  501    0  0.00000000000E+00 -0.00000000000E+00 -0.21302036133E+03  0.21302036133E+03  0.00000000000E+00 0. -1.
         23    2    1    2    0    0  0.82566545573E+02 -0.13026004328E+03  0.47124095378E+03  0.50421210191E+03  0.91525372816E+02 0.  0.
        254    2    1    2    0    0 -0.82566545573E+02  0.13026004328E+03  0.65834538100E+03  0.10514149555E+04  0.80515206931E+03 0.  0.
         23    2    4    4    0    0 -0.18254025767E+03 -0.30363195622E+03  0.27876946404E+03  0.45983247977E+03  0.90665235160E+02 0.  0.
         23    2    4    4    0    0  0.99973712098E+02  0.43389199949E+03  0.37957591697E+03  0.59158247576E+03  0.87378135441E+02 0.  0.
          3    1    3    3  502    0 -0.14250434413E+01  0.86744282091E+01  0.82010482892E+02  0.82480274961E+02  0.00000000000E+00 0. -1.
         -3    1    3    3    0  502  0.83991589015E+02 -0.13893447149E+03  0.38923047089E+03  0.42173182695E+03  0.00000000000E+00 0.  1.
         11    1    5    5    0    0 -0.74013106403E+02 -0.11671002258E+03  0.55061710926E+02  0.14876478514E+03  0.00000000000E+00 0.  1.
        -11    1    5    5    0    0 -0.10852715127E+03 -0.18692193364E+03  0.22370775311E+03  0.31106769463E+03  0.00000000000E+00 0. -1.
          2    1    6    6  503    0  0.65319004799E+02  0.37692353691E+03  0.29064647040E+03  0.48043032358E+03  0.00000000000E+00 0. -1.
         -2    1    6    6    0  503  0.34654707298E+02  0.56968462589E+02  0.88929446569E+02  0.11115215218E+03  0.00000000000E+00 0.  1.
<mgrwt>
<rscale>  0 0.10695842E+04</rscale>
<asrwt>0</asrwt>
<pdfrwt beam="1">  1        2 0.32772364E-01 0.10695842E+04</pdfrwt>
<pdfrwt beam="2">  1       -2 0.20655487E+00 0.10695842E+04</pdfrwt>
<totfact> 0.19328613E+01</totfact>
</mgrwt>
</event>
<event>
12    2  0.3518828E-008  0.1528987E+04  0.7818608E-02  0.8865402E-01
         -2   -1    0    0    0  501 -0.00000000000E+00  0.00000000000E+00  0.11461511598E+04  0.11461511598E+04  0.00000000000E+00 0.  1.
          2   -1    0    0  501    0  0.00000000000E+00 -0.00000000000E+00 -0.50992437632E+03  0.50992437632E+03  0.00000000000E+00 0. -1.
         23    2    1    2    0    0  0.69739247983E+02  0.40729698665E+03 -0.10168837224E+03  0.43530695214E+03  0.91636343731E+02 0.  0.
        254    2    1    2    0    0 -0.69739247983E+02 -0.40729698665E+03  0.73791515574E+03  0.12207685840E+04  0.88034241099E+03 0.  0.
         23    2    4    4    0    0  0.10155398826E+03 -0.31169567452E+03  0.89338623385E+03  0.95577072583E+03  0.88833053974E+02 0.  0.
         23    2    4    4    0    0 -0.17129323624E+03 -0.95601312125E+02 -0.15547107810E+03  0.26499785818E+03  0.87015085188E+02 0.  0.
          4    1    3    3  502    0  0.60881380674E+02  0.38884066108E+03 -0.11601412172E+03  0.41032045849E+03  0.00000000000E+00 0. -1.
         -4    1    3    3    0  502  0.88578673083E+01  0.18456325573E+02  0.14325749477E+02  0.24986493651E+02  0.00000000000E+00 0.  1.
         11    1    5    5    0    0  0.11332156278E+03 -0.30628541763E+03  0.85422468548E+03  0.91452301608E+03  0.00000000000E+00 0. -1.
        -11    1    5    5    0    0 -0.11767574517E+02 -0.54102568897E+01  0.39161548364E+02  0.41247709753E+02  0.00000000000E+00 0.  1.
          3    1    6    6  503    0 -0.12735723112E+03 -0.25347390619E+02 -0.11169501558E+03  0.17128377342E+03  0.00000000000E+00 0. -1.
         -3    1    6    6    0  503 -0.43936005119E+02 -0.70253921506E+02 -0.43776062526E+02  0.93714084763E+02  0.00000000000E+00 0.  1.
<mgrwt>
<rscale>  0 0.15289871E+04</rscale>
<asrwt>0</asrwt>
<pdfrwt beam="1">  1        2 0.78449904E-01 0.15289871E+04</pdfrwt>
<pdfrwt beam="2">  1       -2 0.17633095E+00 0.15289871E+04</pdfrwt>
<totfact> 0.11145894E+01</totfact>
</mgrwt>
</event>
<event>
12    2  0.3518828E-008  0.1923920E+04  0.7818608E-02  0.8643040E-01
         -2   -1    0    0    0  501 -0.00000000000E+00  0.00000000000E+00  0.55560439955E+03  0.55560439955E+03  0.00000000000E+00 0.  1.
          2   -1    0    0  501    0  0.00000000000E+00 -0.00000000000E+00 -0.16655150606E+04  0.16655150606E+04  0.00000000000E+00 0. -1.
         23    2    1    2    0    0  0.20376183212E+03  0.73953280563E+03 -0.39690755202E+03  0.86846839072E+03  0.90962003057E+02 0.  0.
        254    2    1    2    0    0 -0.20376183212E+03 -0.73953280563E+03 -0.71300310900E+03  0.13526510694E+04  0.85607466219E+03 0.  0.
         23    2    4    4    0    0  0.29646712889E+03 -0.43304857524E+03 -0.20235355178E+03  0.56949837621E+03  0.89205456983E+02 0.  0.
         23    2    4    4    0    0 -0.50022896100E+03 -0.30648423039E+03 -0.51064955721E+03  0.78315269318E+03  0.91671007652E+02 0.  0.
          2    1    3    3  502    0  0.20670225905E+03  0.69651372562E+03 -0.39063319316E+03  0.82489483297E+03  0.00000000000E+00 0. -1.
         -2    1    3    3    0  502 -0.29404269331E+01  0.43019080016E+02 -0.62743588653E+01  0.43573557752E+02  0.00000000000E+00 0.  1.
         11    1    5    5    0    0  0.15813507853E+03 -0.24098523996E+03 -0.63730623991E+02  0.29519854568E+03  0.00000000000E+00 0. -1.
        -11    1    5    5    0    0  0.13833205036E+03 -0.19206333528E+03 -0.13862292779E+03  0.27429983053E+03  0.00000000000E+00 0.  1.
          3    1    6    6  503    0 -0.30611069901E+03 -0.22122461561E+03 -0.37003949499E+03  0.52874693234E+03  0.00000000000E+00 0. -1.
         -3    1    6    6    0  503 -0.19411826199E+03 -0.85259614779E+02 -0.14061006222E+03  0.25440576084E+03  0.00000000000E+00 0.  1.
<mgrwt>
<rscale>  0 0.19239205E+04</rscale>
<asrwt>0</asrwt>
<pdfrwt beam="1">  1        2 0.25623308E+00 0.19239205E+04</pdfrwt>
<pdfrwt beam="2">  1       -2 0.85477602E-01 0.19239205E+04</pdfrwt>
<totfact> 0.11398381E+01</totfact>
</mgrwt>
</event>
<event>
12    2  0.3518828E-008  0.1572649E+04  0.7818608E-02  0.8837529E-01
          3   -1    0    0  501    0  0.00000000000E+00  0.00000000000E+00  0.12216258340E+04  0.12216258340E+04  0.00000000000E+00 0. -1.
         -3   -1    0    0    0  501 -0.00000000000E+00 -0.00000000000E+00 -0.50613392965E+03  0.50613392965E+03  0.00000000000E+00 0.  1.
         23    2    1    2    0    0  0.10089251885E+03  0.34972480515E+03  0.64833910698E+03  0.74888148755E+03  0.89404390568E+02 0.  0.
        254    2    1    2    0    0 -0.10089251885E+03 -0.34972480515E+03  0.67152797330E+02  0.97887827606E+03  0.90620441483E+03 0.  0.
         23    2    4    4    0    0 -0.40302194829E+03 -0.19213282019E+03  0.30966676160E+03  0.55112530790E+03  0.92216540654E+02 0.  0.
         23    2    4    4    0    0  0.30212942944E+03 -0.15759198496E+03 -0.24251396427E+03  0.42775296816E+03  0.89678052184E+02 0.  0.
          2    1    3    3  502    0  0.11629717145E+03  0.30230300426E+03  0.54147422249E+03  0.63095679098E+03  0.00000000000E+00 0. -1.
         -2    1    3    3    0  502 -0.15404652602E+02  0.47421800894E+02  0.10686488449E+03  0.11792469656E+03  0.00000000000E+00 0.  1.
         11    1    5    5    0    0 -0.34848284131E+03 -0.17095734092E+03  0.22639877713E+03  0.44935855326E+03  0.00000000000E+00 0. -1.
        -11    1    5    5    0    0 -0.54539106983E+02 -0.21175479273E+02  0.83267984469E+02  0.10176675464E+03  0.00000000000E+00 0.  1.
          3    1    6    6  503    0  0.20005589413E+03 -0.65946718585E+02 -0.11274444623E+03  0.23891973679E+03  0.00000000000E+00 0. -1.
         -3    1    6    6    0  503  0.10207353531E+03 -0.91645266371E+02 -0.12976951803E+03  0.18883323137E+03  0.00000000000E+00 0.  1.
<mgrwt>
<rscale>  0 0.15726491E+04</rscale>
<asrwt>0</asrwt>
<pdfrwt beam="1">  1        3 0.18794244E+00 0.15726491E+04</pdfrwt>
<pdfrwt beam="2">  1       -3 0.77866759E-01 0.15726491E+04</pdfrwt>
<totfact> 0.68402963E-01</totfact>
</mgrwt>
</event>
<event>
12    2  0.3518828E-008  0.2410521E+04  0.7818608E-02  0.8435575E-01
         -1   -1    0    0    0  501 -0.00000000000E+00  0.00000000000E+00  0.52994310373E+03  0.52994310373E+03  0.00000000000E+00 0.  1.
          1   -1    0    0  501    0  0.00000000000E+00 -0.00000000000E+00 -0.27411493439E+04  0.27411493439E+04  0.00000000000E+00 0. -1.
         23    2    1    2    0    0 -0.69855708008E+03 -0.73626314017E+03 -0.66992340504E+03  0.12195417385E+04  0.91756621885E+02 0.  0.
        254    2    1    2    0    0  0.69855708008E+03  0.73626314017E+03 -0.15412828351E+04  0.20515507091E+04  0.89623776336E+03 0.  0.
         23    2    4    4    0    0 -0.13156605379E+03 -0.10184758629E+02 -0.48891868121E+03  0.51462712971E+03  0.91576470650E+02 0.  0.
         23    2    4    4    0    0  0.83012313387E+03  0.74644789880E+03 -0.10523641539E+04  0.15369235794E+04  0.91514443934E+02 0.  0.
          4    1    3    3  502    0 -0.65132014424E+03 -0.68998274894E+03 -0.59666035302E+03  0.11208468678E+04  0.00000000000E+00 0. -1.
         -4    1    3    3    0  502 -0.47236935834E+02 -0.46280391229E+02 -0.73263052017E+02  0.98694870739E+02  0.00000000000E+00 0.  1.
         11    1    5    5    0    0 -0.11187682421E+03 -0.40133116750E+02 -0.30687244569E+03  0.32908629382E+03  0.00000000000E+00 0.  1.
        -11    1    5    5    0    0 -0.19689229583E+02  0.29948358121E+02 -0.18204623552E+03  0.18554083589E+03  0.00000000000E+00 0. -1.
          1    1    6    6  503    0  0.71897121582E+03  0.62463910357E+03 -0.85656166389E+03  0.12809338402E+04  0.00000000000E+00 0. -1.
         -1    1    6    6    0  503  0.11115191805E+03  0.12180879523E+03 -0.19580249002E+03  0.25598973921E+03  0.00000000000E+00 0.  1.
<mgrwt>
<rscale>  0 0.24105213E+04</rscale>
<asrwt>0</asrwt>
<pdfrwt beam="1">  1        1 0.42171530E+00 0.24105213E+04</pdfrwt>
<pdfrwt beam="2">  1       -1 0.81529704E-01 0.24105213E+04</pdfrwt>
<totfact> 0.12306866E+00</totfact>
</mgrwt>
</event>
<event>
12    2  0.3518828E-008  0.1523693E+04  0.7818608E-02  0.8868849E-01
         -1   -1    0    0    0  501 -0.00000000000E+00  0.00000000000E+00  0.37378580862E+03  0.37378580862E+03  0.00000000000E+00 0.  1.
          1   -1    0    0  501    0  0.00000000000E+00 -0.00000000000E+00 -0.15527871988E+04  0.15527871988E+04  0.00000000000E+00 0. -1.
         23    2    1    2    0    0 -0.23569368621E+03  0.25833975747E+03 -0.80526993583E+03  0.88257085121E+03  0.90447188119E+02 0.  0.
        254    2    1    2    0    0  0.23569368621E+03 -0.25833975747E+03 -0.37373145432E+03  0.10440021562E+04  0.90993096340E+03 0.  0.
         23    2    4    4    0    0  0.44786656425E+03 -0.42361983261E+03 -0.68008370231E+02  0.62694745095E+03  0.91650127555E+02 0.  0.
         23    2    4    4    0    0 -0.21217287804E+03  0.16528007514E+03 -0.30572308409E+03  0.41705470523E+03  0.90184198140E+02 0.  0.
          3    1    3    3  502    0 -0.19504162697E+03  0.23966831457E+03 -0.75198817502E+03  0.81299960187E+03  0.00000000000E+00 0. -1.
         -3    1    3    3    0  502 -0.40652059234E+02  0.18671442903E+02 -0.53281760810E+02  0.69571249342E+02  0.00000000000E+00 0.  1.
         11    1    5    5    0    0  0.19742546295E+03 -0.23288035920E+03 -0.64909233473E+02  0.31212703137E+03  0.00000000000E+00 0. -1.
        -11    1    5    5    0    0  0.25044110130E+03 -0.19073947341E+03 -0.30991367571E+01  0.31482041958E+03  0.00000000000E+00 0.  1.
          1    1    6    6  503    0 -0.81038285788E+00  0.22389983039E+02 -0.55036803908E+01  0.23070729479E+02  0.00000000000E+00 0. -1.
         -1    1    6    6    0  503 -0.21136249518E+03  0.14289009210E+03 -0.30021940370E+03  0.39398397575E+03  0.00000000000E+00 0.  1.
<mgrwt>
<rscale>  0 0.15236926E+04</rscale>
<asrwt>0</asrwt>
<pdfrwt beam="1">  1        1 0.23889035E+00 0.15236926E+04</pdfrwt>
<pdfrwt beam="2">  1       -1 0.57505507E-01 0.15236926E+04</pdfrwt>
<totfact> 0.17782468E+01</totfact>
</mgrwt>
</event>
<event>
12    2  0.3518828E-008  0.2497173E+04  0.7818608E-02  0.8403994E-01
          2   -1    0    0  501    0  0.00000000000E+00  0.00000000000E+00  0.14911225824E+04  0.14911225824E+04  0.00000000000E+00 0. -1.
         -2   -1    0    0    0  501 -0.00000000000E+00 -0.00000000000E+00 -0.10454993450E+04  0.10454993450E+04  0.00000000000E+00 0.  1.
         23    2    1    2    0    0  0.82138471603E+03  0.61028385789E+03  0.59720269073E+03  0.11884097623E+04  0.92452530433E+02 0.  0.
        254    2    1    2    0    0 -0.82138471603E+03 -0.61028385789E+03 -0.15157945335E+03  0.13482121650E+04  0.86462736041E+03 0.  0.
         23    2    4    4    0    0 -0.55109647526E+03 -0.40681982703E+03  0.31994777593E+03  0.76099307363E+03  0.86799666299E+02 0.  0.
         23    2    4    4    0    0 -0.27028824077E+03 -0.20346403085E+03 -0.47152722928E+03  0.58721909141E+03  0.89638096907E+02 0.  0.
          1    1    3    3  502    0  0.69382526064E+03  0.51236017627E+03  0.46275808737E+03  0.97880104718E+03  0.00000000000E+00 0. -1.
         -1    1    3    3    0  502  0.12755945539E+03  0.97923681611E+02  0.13444460337E+03  0.20960871512E+03  0.00000000000E+00 0.  1.
         11    1    5    5    0    0 -0.76521870723E+02 -0.44735753274E+02  0.73659576143E+02  0.11525023851E+03  0.00000000000E+00 0.  1.
        -11    1    5    5    0    0 -0.47457460454E+03 -0.36208407376E+03  0.24628819979E+03  0.64574283511E+03  0.00000000000E+00 0. -1.
          2    1    6    6  503    0 -0.77331515454E+02 -0.10873311658E+03 -0.20835551166E+03  0.24741680048E+03  0.00000000000E+00 0. -1.
         -2    1    6    6    0  503 -0.19295672531E+03 -0.94730914266E+02 -0.26317171763E+03  0.33980229093E+03  0.00000000000E+00 0.  1.
<mgrwt>
<rscale>  0 0.24971725E+04</rscale>
<asrwt>0</asrwt>
<pdfrwt beam="1">  1        2 0.22940347E+00 0.24971725E+04</pdfrwt>
<pdfrwt beam="2">  1       -2 0.16084605E+00 0.24971725E+04</pdfrwt>
<totfact> 0.28448134E+00</totfact>
</mgrwt>
</event>
<event>
12    2  0.3518828E-008  0.1456012E+04  0.7818608E-02  0.8914243E-01
         -1   -1    0    0    0  501 -0.00000000000E+00  0.00000000000E+00  0.23653644370E+03  0.23653644370E+03  0.00000000000E+00 0.  1.
          1   -1    0    0  501    0  0.00000000000E+00 -0.00000000000E+00 -0.22406387291E+04  0.22406387291E+04  0.00000000000E+00 0. -1.
         23    2    1    2    0    0 -0.15125772712E+03 -0.30231103772E+03 -0.11768339876E+04  0.12277124469E+04  0.89826246099E+02 0.  0.
        254    2    1    2    0    0  0.15125772712E+03  0.30231103772E+03 -0.82726829785E+03  0.12494627259E+04  0.87322013446E+03 0.  0.
         23    2    4    4    0    0 -0.34250852282E+03  0.54011310234E+02 -0.44435312949E+03  0.57070022318E+03  0.89552952013E+02 0.  0.
         23    2    4    4    0    0  0.49376624994E+03  0.24829972749E+03 -0.38291516835E+03  0.67876250271E+03  0.92933549769E+02 0.  0.
          1    1    3    3  502    0 -0.82923559670E+02 -0.20493467730E+03 -0.89296912159E+03  0.91992847049E+03  0.00000000000E+00 0. -1.
         -1    1    3    3    0  502 -0.68334167449E+02 -0.97376360419E+02 -0.28386486597E+03  0.30778397642E+03  0.00000000000E+00 0.  1.
         11    1    5    5    0    0 -0.56562453384E+02  0.36123172335E+02 -0.52133915661E+02  0.84983174067E+02  0.00000000000E+00 0. -1.
        -11    1    5    5    0    0 -0.28594606944E+03  0.17888137898E+02 -0.39221921383E+03  0.48571704912E+03  0.00000000000E+00 0.  1.
          2    1    6    6  503    0  0.20979339404E+03  0.65088708267E+02 -0.11791123057E+03  0.24930476614E+03  0.00000000000E+00 0. -1.
         -2    1    6    6    0  503  0.28397285590E+03  0.18321101922E+03 -0.26500393779E+03  0.42945773656E+03  0.00000000000E+00 0.  1.
<mgrwt>
<rscale>  0 0.14560120E+04</rscale>
<asrwt>0</asrwt>
<pdfrwt beam="1">  1        1 0.34471365E+00 0.14560120E+04</pdfrwt>
<pdfrwt beam="2">  1       -1 0.36390223E-01 0.14560120E+04</pdfrwt>
<totfact> 0.14375953E+01</totfact>
</mgrwt>
</event>
<event>
12    2  0.3518828E-008  0.1873045E+04  0.7818608E-02  0.8668391E-01
          4   -1    0    0  501    0  0.00000000000E+00  0.00000000000E+00  0.88502309017E+03  0.88502309017E+03  0.00000000000E+00 0. -1.
         -4   -1    0    0    0  501 -0.00000000000E+00 -0.00000000000E+00 -0.99101879938E+03  0.99101879938E+03  0.00000000000E+00 0.  1.
         23    2    1    2    0    0  0.57176234749E+03 -0.25547335907E+03 -0.39623577391E+03  0.74662902195E+03  0.90957620319E+02 0.  0.
        254    2    1    2    0    0 -0.57176234749E+03  0.25547335907E+03  0.29024006470E+03  0.11294128676E+04  0.89395487086E+03 0.  0.
         23    2    4    4    0    0  0.47616230584E+02  0.30060829325E+03  0.37944937956E+03  0.49466363263E+03  0.89875616347E+02 0.  0.
         23    2    4    4    0    0 -0.61937857808E+03 -0.45134934178E+02 -0.89209314866E+02  0.63474923496E+03  0.96339525467E+02 0.  0.
          1    1    3    3  502    0  0.88242411529E+02 -0.26631381506E+02 -0.25029831716E+02  0.95511497471E+02  0.00000000000E+00 0. -1.
         -1    1    3    3    0  502  0.48351993596E+03 -0.22884197756E+03 -0.37120594220E+03  0.65111752448E+03  0.00000000000E+00 0.  1.
         11    1    5    5    0    0 -0.79058036326E+01  0.20697417946E+02  0.71362578463E+02  0.74722837510E+02  0.00000000000E+00 0. -1.
        -11    1    5    5    0    0  0.55522034217E+02  0.27991087530E+03  0.30808680110E+03  0.41994079512E+03  0.00000000000E+00 0.  1.
          1    1    6    6  503    0 -0.70967908134E+02 -0.22944722376E+02  0.15016297709E+02  0.76081492275E+02  0.00000000000E+00 0. -1.
         -1    1    6    6    0  503 -0.54841066994E+03 -0.22190211802E+02 -0.10422561258E+03  0.55866774269E+03  0.00000000000E+00 0.  1.
<mgrwt>
<rscale>  0 0.18730451E+04</rscale>
<asrwt>0</asrwt>
<pdfrwt beam="1">  1        4 0.13615740E+00 0.18730451E+04</pdfrwt>
<pdfrwt beam="2">  1       -4 0.15246443E+00 0.18730451E+04</pdfrwt>
<totfact> 0.20578041E-01</totfact>
</mgrwt>
</event>
<event>
12    2  0.3518828E-008  0.1244685E+04  0.7818608E-02  0.9074619E-01
          1   -1    0    0  501    0  0.00000000000E+00  0.00000000000E+00  0.20225479573E+04  0.20225479573E+04  0.00000000000E+00 0. -1.
         -1   -1    0    0    0  501 -0.00000000000E+00 -0.00000000000E+00 -0.19149602375E+03  0.19149602375E+03  0.00000000000E+00 0.  1.
         23    2    1    2    0    0  0.65204201076E+02 -0.19611751501E+03  0.71518086073E+02  0.23673815982E+03  0.90644647628E+02 0.  0.
        254    2    1    2    0    0 -0.65204201076E+02  0.19611751501E+03  0.17595338474E+04  0.19773058212E+04  0.87810323012E+03 0.  0.
         23    2    4    4    0    0  0.13930725049E+03 -0.13392752876E+03  0.14675102838E+04  0.14829254956E+04  0.90213633606E+02 0.  0.
         23    2    4    4    0    0 -0.20451145156E+03  0.33004504377E+03  0.29202356366E+03  0.49438032554E+03  0.91539498635E+02 0.  0.
          1    1    3    3  502    0  0.16726147342E+02  0.32413672506E+01 -0.50149908290E+01  0.17760084447E+02  0.00000000000E+00 0. -1.
         -1    1    3    3    0  502  0.48478053735E+02 -0.19935888227E+03  0.76533076902E+02  0.21897807537E+03  0.00000000000E+00 0.  1.
         11    1    5    5    0    0  0.13517152327E+03 -0.12891031036E+03  0.14633135359E+04  0.14751866706E+04  0.00000000000E+00 0. -1.
        -11    1    5    5    0    0  0.41357272197E+01 -0.50172183959E+01  0.41967478458E+01  0.77388250110E+01  0.00000000000E+00 0.  1.
          2    1    6    6  503    0 -0.20988310294E+03  0.32992901349E+03  0.27919661210E+03  0.48047353627E+03  0.00000000000E+00 0. -1.
         -2    1    6    6    0  503  0.53716513797E+01  0.11603027901E+00  0.12826951560E+02  0.13906789273E+02  0.00000000000E+00 0.  1.
<mgrwt>
<rscale>  0 0.12446845E+04</rscale>
<asrwt>0</asrwt>
<pdfrwt beam="1">  1        1 0.31116121E+00 0.12446845E+04</pdfrwt>
<pdfrwt beam="2">  1       -1 0.29460928E-01 0.12446845E+04</pdfrwt>
<totfact> 0.29947183E+01</totfact>
</mgrwt>
</event>
<event>
12    2  0.3518828E-008  0.1611705E+04  0.7818608E-02  0.8813389E-01
         -1   -1    0    0    0  501 -0.00000000000E+00  0.00000000000E+00  0.53899224400E+03  0.53899224400E+03  0.00000000000E+00 0.  1.
          1   -1    0    0  501    0  0.00000000000E+00 -0.00000000000E+00 -0.12048384560E+04  0.12048384560E+04  0.00000000000E+00 0. -1.
         23    2    1    2    0    0 -0.74175926119E+01 -0.54857719686E+03 -0.24541042940E+03  0.60732305039E+03  0.87310062856E+02 0.  0.
        254    2    1    2    0    0  0.74175926119E+01  0.54857719686E+03 -0.42043578262E+03  0.11365076496E+04  0.90215931450E+03 0.  0.
         23    2    4    4    0    0 -0.14499875998E+03  0.47109820475E+03 -0.65997443958E+03  0.82853092283E+03  0.89101460580E+02 0.  0.
         23    2    4    4    0    0  0.15241635259E+03  0.77478992116E+02  0.23953865696E+03  0.30797672679E+03  0.90758786387E+02 0.  0.
          3    1    3    3  502    0  0.38279739860E+01 -0.37670647454E+03 -0.12405353647E+03  0.39662539160E+03  0.00000000000E+00 0. -1.
         -3    1    3    3    0  502 -0.11245566598E+02 -0.17187072232E+03 -0.12135689293E+03  0.21069765879E+03  0.00000000000E+00 0.  1.
         11    1    5    5    0    0 -0.24055190575E+02  0.17314262269E+03 -0.28729226638E+03  0.33629431501E+03  0.00000000000E+00 0. -1.
        -11    1    5    5    0    0 -0.12094356941E+03  0.29795558205E+03 -0.37268217319E+03  0.49223660782E+03  0.00000000000E+00 0.  1.
          2    1    6    6  503    0  0.14189832675E+03  0.96237024191E+02  0.22000101669E+03  0.27892139987E+03  0.00000000000E+00 0. -1.
         -2    1    6    6    0  503  0.10518025840E+02 -0.18758032075E+02  0.19537640270E+02  0.29055326917E+02  0.00000000000E+00 0.  1.
<mgrwt>
<rscale>  0 0.16117054E+04</rscale>
<asrwt>0</asrwt>
<pdfrwt beam="1">  1        1 0.18535976E+00 0.16117054E+04</pdfrwt>
<pdfrwt beam="2">  1       -1 0.82921884E-01 0.16117054E+04</pdfrwt>
<totfact> 0.14676956E+01</totfact>
</mgrwt>
</event>
<event>
12    2  0.3518828E-008  0.1934989E+04  0.7818608E-02  0.8637633E-01
          2   -1    0    0  501    0  0.00000000000E+00  0.00000000000E+00  0.28368439464E+04  0.28368439464E+04  0.00000000000E+00 0. -1.
         -2   -1    0    0    0  501 -0.00000000000E+00 -0.00000000000E+00 -0.32996031484E+03  0.32996031484E+03  0.00000000000E+00 0.  1.
         23    2    1    2    0    0 -0.21157268034E+03 -0.39063931912E+03 -0.14200379803E+02  0.45500775504E+03  0.97305342353E+02 0.  0.
        254    2    1    2    0    0  0.21157268034E+03  0.39063931912E+03  0.25210840113E+04  0.27117965062E+04  0.89477015038E+03 0.  0.
         23    2    4    4    0    0 -0.16373609842E+03 -0.81677352548E+02  0.12687969277E+03  0.24109849902E+03  0.92462586733E+02 0.  0.
         23    2    4    4    0    0  0.37530877877E+03  0.47231667167E+03  0.23942043186E+04  0.24706980072E+04  0.90524061948E+02 0.  0.
          3    1    3    3  502    0 -0.15760660506E+03 -0.25444336773E+03 -0.51825862633E+02  0.30375514708E+03  0.00000000000E+00 0. -1.
         -3    1    3    3    0  502 -0.53966075283E+02 -0.13619595139E+03  0.37625482831E+02  0.15125260796E+03  0.00000000000E+00 0.  1.
         11    1    5    5    0    0  0.11339636610E+02 -0.97479743456E+01  0.41638115915E+01  0.15522489790E+02  0.00000000000E+00 0. -1.
        -11    1    5    5    0    0 -0.17507573503E+03 -0.71929378202E+02  0.12271588118E+03  0.22557600923E+03  0.00000000000E+00 0.  1.
          4    1    6    6  503    0  0.36962026889E+02  0.35205960290E+02  0.12248296720E+03  0.13269411564E+03  0.00000000000E+00 0. -1.
         -4    1    6    6    0  503  0.33834675188E+03  0.43711071138E+03  0.22717213514E+04  0.23380038915E+04  0.00000000000E+00 0.  1.
<mgrwt>
<rscale>  0 0.19349893E+04</rscale>
<asrwt>0</asrwt>
<pdfrwt beam="1">  1        2 0.43643751E+00 0.19349893E+04</pdfrwt>
<pdfrwt beam="2">  1       -2 0.50763127E-01 0.19349893E+04</pdfrwt>
<totfact> 0.75402785E+00</totfact>
</mgrwt>
</event>
<event>
12    2  0.3518828E-008  0.1300379E+04  0.7818608E-02  0.9029264E-01
          1   -1    0    0  501    0  0.00000000000E+00  0.00000000000E+00  0.10100798820E+04  0.10100798820E+04  0.00000000000E+00 0. -1.
         -1   -1    0    0    0  501 -0.00000000000E+00 -0.00000000000E+00 -0.41852785135E+03  0.41852785135E+03  0.00000000000E+00 0.  1.
         23    2    1    2    0    0 -0.76457641195E+02  0.18329930333E+03 -0.14000126793E+03  0.26018908850E+03  0.93024734651E+02 0.  0.
        254    2    1    2    0    0  0.76457641195E+02 -0.18329930333E+03  0.73155329855E+03  0.11684186448E+04  0.88914987231E+03 0.  0.
         23    2    4    4    0    0  0.34617989271E+03 -0.13233185097E+03  0.78600139892E+03  0.87384274426E+03  0.91927719914E+02 0.  0.
         23    2    4    4    0    0 -0.26972225151E+03 -0.50967452356E+02 -0.54448100369E+02  0.29457590056E+03  0.91992344218E+02 0.  0.
          3    1    3    3  502    0  0.16450716820E+02  0.44278064443E+02 -0.55375496486E+02  0.72784742122E+02  0.00000000000E+00 0. -1.
         -3    1    3    3    0  502 -0.92908358016E+02  0.13902123888E+03 -0.84625771441E+02  0.18740434638E+03  0.00000000000E+00 0.  1.
         11    1    5    5    0    0  0.21088269857E+03 -0.87019617131E+02  0.37680765802E+03  0.44048602415E+03  0.00000000000E+00 0. -1.
        -11    1    5    5    0    0  0.13529719414E+03 -0.45312233839E+02  0.40919374090E+03  0.43335672011E+03  0.00000000000E+00 0.  1.
          2    1    6    6  503    0 -0.21026715383E+03 -0.68006617272E+02 -0.15605340523E+02  0.22154164987E+03  0.00000000000E+00 0. -1.
         -2    1    6    6    0  503 -0.59455097680E+02  0.17039164916E+02 -0.38842759846E+02  0.73034250689E+02  0.00000000000E+00 0.  1.
<mgrwt>
<rscale>  0 0.13003793E+04</rscale>
<asrwt>0</asrwt>
<pdfrwt beam="1">  1        1 0.15539690E+00 0.13003793E+04</pdfrwt>
<pdfrwt beam="2">  1       -1 0.64388901E-01 0.13003793E+04</pdfrwt>
<totfact> 0.35710391E+01</totfact>
</mgrwt>
</event>
<event>
12    2  0.3518828E-008  0.1141732E+04  0.7818608E-02  0.9165445E-01
          2   -1    0    0  501    0  0.00000000000E+00  0.00000000000E+00  0.13139495693E+04  0.13139495693E+04  0.00000000000E+00 0. -1.
         -2   -1    0    0    0  501 -0.00000000000E+00 -0.00000000000E+00 -0.24802172461E+03  0.24802172461E+03  0.00000000000E+00 0.  1.
         23    2    1    2    0    0  0.17900753401E+03  0.49720686430E+02  0.29218194867E+03  0.35794006387E+03  0.90746648972E+02 0.  0.
        254    2    1    2    0    0 -0.17900753401E+03 -0.49720686430E+02  0.77374589601E+03  0.12040312300E+04  0.90359982705E+03 0.  0.
         23    2    4    4    0    0 -0.48363275333E+03 -0.19739206270E+03  0.63400070733E+03  0.82644925777E+03  0.90538457378E+02 0.  0.
         23    2    4    4    0    0  0.30462521932E+03  0.14767137627E+03  0.13974518868E+03  0.37758197227E+03  0.91848072431E+02 0.  0.
          4    1    3    3  502    0  0.49853714775E+02 -0.25913762473E+02  0.65403122248E+02  0.86223455986E+02  0.00000000000E+00 0.  1.
         -4    1    3    3    0  502  0.12915381924E+03  0.75634448904E+02  0.22677882643E+03  0.27171660788E+03  0.00000000000E+00 0. -1.
         11    1    5    5    0    0 -0.15229301081E+03 -0.18650199115E+02  0.17229993495E+03  0.23071250216E+03  0.00000000000E+00 0. -1.
        -11    1    5    5    0    0 -0.33133974253E+03 -0.17874186359E+03  0.46170077238E+03  0.59573675562E+03  0.00000000000E+00 0.  1.
          1    1    6    6  503    0  0.11447237581E+03  0.10359301140E+03  0.77188636896E+02  0.17260800243E+03  0.00000000000E+00 0. -1.
         -1    1    6    6    0  503  0.19015284351E+03  0.44078364871E+02  0.62556551786E+02  0.20497396985E+03  0.00000000000E+00 0.  1.
<mgrwt>
<rscale>  0 0.11417321E+04</rscale>
<asrwt>0</asrwt>
<pdfrwt beam="1">  1        2 0.20214608E+00 0.11417321E+04</pdfrwt>
<pdfrwt beam="2">  1       -2 0.38157189E-01 0.11417321E+04</pdfrwt>
<totfact> 0.10411842E+02</totfact>
</mgrwt>
</event>
<event>
12    2  0.3518828E-008  0.1425731E+04  0.7818608E-02  0.8935401E-01
         -2   -1    0    0    0  501 -0.00000000000E+00  0.00000000000E+00  0.13929429931E+03  0.13929429931E+03  0.00000000000E+00 0.  1.
          2   -1    0    0  501    0  0.00000000000E+00 -0.00000000000E+00 -0.36482249150E+04  0.36482249150E+04  0.00000000000E+00 0. -1.
         23    2    1    2    0    0  0.26680100945E+03 -0.30801580520E+03 -0.12715731873E+04  0.13409869880E+04  0.12365765777E+03 0.  0.
        254    2    1    2    0    0 -0.26680100945E+03  0.30801580520E+03 -0.22373574284E+04  0.24465322264E+04  0.90205052924E+03 0.  0.
         23    2    4    4    0    0 -0.39851218311E+03  0.93466811184E+02 -0.21070170731E+04  0.21486006269E+04  0.97034542885E+02 0.  0.
         23    2    4    4    0    0  0.13171117366E+03  0.21454899401E+03 -0.13034035535E+03  0.29793159955E+03  0.91627101227E+02 0.  0.
          1    1    3    3  502    0  0.12692629198E+03 -0.89411717525E+02 -0.63141543240E+03  0.65022318253E+03  0.00000000000E+00 0. -1.
         -1    1    3    3    0  502  0.13987471747E+03 -0.21860408767E+03 -0.64015775489E+03  0.69076380542E+03  0.00000000000E+00 0.  1.
         11    1    5    5    0    0 -0.43684576924E+02 -0.18731298834E+02 -0.28946998927E+03  0.29334634565E+03  0.00000000000E+00 0. -1.
        -11    1    5    5    0    0 -0.35482760618E+03  0.11219811002E+03 -0.18175470838E+04  0.18552542812E+04  0.00000000000E+00 0.  1.
          3    1    6    6  503    0  0.12215352087E+02  0.10053603025E+03 -0.64855826076E+02  0.12026215689E+03  0.00000000000E+00 0. -1.
         -3    1    6    6    0  503  0.11949582157E+03  0.11401296376E+03 -0.65484529276E+02  0.17766944266E+03  0.00000000000E+00 0.  1.
<mgrwt>
<rscale>  0 0.14257306E+04</rscale>
<asrwt>0</asrwt>
<pdfrwt beam="1">  1        2 0.56126534E+00 0.14257306E+04</pdfrwt>
<pdfrwt beam="2">  1       -2 0.21429893E-01 0.14257306E+04</pdfrwt>
<totfact> 0.11936550E+01</totfact>
</mgrwt>
</event>
<event>
12    2  0.3518828E-008  0.1928943E+04  0.7818608E-02  0.8640582E-01
         -2   -1    0    0    0  501 -0.00000000000E+00  0.00000000000E+00  0.12766226248E+04  0.12766226248E+04  0.00000000000E+00 0.  1.
          2   -1    0    0  501    0  0.00000000000E+00 -0.00000000000E+00 -0.72864508297E+03  0.72864508297E+03  0.00000000000E+00 0. -1.
         23    2    1    2    0    0  0.18543899766E+03  0.64917119272E+02 -0.54392441604E+03  0.58626784063E+03  0.96199565311E+02 0.  0.
        254    2    1    2    0    0 -0.18543899766E+03 -0.64917119272E+02  0.10919019579E+04  0.14189998672E+04  0.88470836049E+03 0.  0.
         23    2    4    4    0    0 -0.35547020137E+03  0.20983503468E+03  0.97686359328E+03  0.10643792121E+04  0.90834032429E+02 0.  0.
         23    2    4    4    0    0  0.17003120372E+03 -0.27475215395E+03  0.11503836463E+03  0.35462065507E+03  0.90125619689E+02 0.  0.
          4    1    3    3  502    0  0.64424640765E+02 -0.23225963806E+02 -0.19079291634E+03  0.20271141225E+03  0.00000000000E+00 0. -1.
         -4    1    3    3    0  502  0.12101435689E+03  0.88143083078E+02 -0.35313149971E+03  0.38355642838E+03  0.00000000000E+00 0.  1.
         11    1    5    5    0    0  0.36295704715E+00  0.11367865939E+02  0.98886494742E+01  0.15071347061E+02  0.00000000000E+00 0. -1.
        -11    1    5    5    0    0 -0.35583315842E+03  0.19846716874E+03  0.96697494381E+03  0.10493078650E+04  0.00000000000E+00 0.  1.
          3    1    6    6  503    0  0.24078564045E+02 -0.26961353288E+02  0.46657741885E+02  0.59022340646E+02  0.00000000000E+00 0. -1.
         -3    1    6    6    0  503  0.14595263967E+03 -0.24779080066E+03  0.68380622746E+02  0.29559831442E+03  0.00000000000E+00 0.  1.
<mgrwt>
<rscale>  0 0.19289425E+04</rscale>
<asrwt>0</asrwt>
<pdfrwt beam="1">  1        2 0.11209924E+00 0.19289425E+04</pdfrwt>
<pdfrwt beam="2">  1       -2 0.19640348E+00 0.19289425E+04</pdfrwt>
<totfact> 0.51061075E+00</totfact>
</mgrwt>
</event>
<event>
12    2  0.3518828E-008  0.2523435E+04  0.7818608E-02  0.8394684E-01
         -2   -1    0    0    0  501 -0.00000000000E+00  0.00000000000E+00  0.33638870809E+03  0.33638870809E+03  0.00000000000E+00 0.  1.
          2   -1    0    0  501    0  0.00000000000E+00 -0.00000000000E+00 -0.47324141232E+04  0.47324141232E+04  0.00000000000E+00 0. -1.
         23    2    1    2    0    0 -0.13852258917E+03 -0.83899517151E+02  0.25321436852E+03  0.31336994845E+03  0.88631661823E+02 0.  0.
        254    2    1    2    0    0  0.13852258917E+03  0.83899517151E+02 -0.46492397836E+04  0.47554328828E+04  0.98614588220E+03 0.  0.
         23    2    4    4    0    0 -0.36842476668E+03  0.17554304920E+03 -0.13019007263E+04  0.13674883522E+04  0.92340247793E+02 0.  0.
         23    2    4    4    0    0  0.50694735585E+03 -0.91643532052E+02 -0.33473390573E+04  0.33879445307E+04  0.89973438853E+02 0.  0.
          3    1    3    3  502    0 -0.35924906412E+01  0.97381495164E+01  0.54919661461E+02  0.55891920346E+02  0.00000000000E+00 0. -1.
         -3    1    3    3    0  502 -0.13493009853E+03 -0.93637666667E+02  0.19829470705E+03  0.25747802810E+03  0.00000000000E+00 0.  1.
         11    1    5    5    0    0 -0.10926632567E+03  0.71284457627E+02 -0.55312143171E+03  0.56829914837E+03  0.00000000000E+00 0. -1.
        -11    1    5    5    0    0 -0.25915844101E+03  0.10425859158E+03 -0.74877929458E+03  0.79918920379E+03  0.00000000000E+00 0.  1.
          3    1    6    6  503    0  0.45660697210E+03 -0.75424075863E+02 -0.27923586478E+04  0.28304497057E+04  0.00000000000E+00 0. -1.
         -3    1    6    6    0  503  0.50340383752E+02 -0.16219456189E+02 -0.55498040945E+03  0.55749482497E+03  0.00000000000E+00 0.  1.
<mgrwt>
<rscale>  0 0.25234347E+04</rscale>
<asrwt>0</asrwt>
<pdfrwt beam="1">  1        2 0.72806367E+00 0.25234347E+04</pdfrwt>
<pdfrwt beam="2">  1       -2 0.51752112E-01 0.25234347E+04</pdfrwt>
<totfact> 0.22371654E-01</totfact>
</mgrwt>
</event>
<event>
12    2  0.3518828E-008  0.2730655E+04  0.7818608E-02  0.8325126E-01
         -4   -1    0    0    0  501 -0.00000000000E+00  0.00000000000E+00  0.24561973309E+04  0.24561973309E+04  0.00000000000E+00 0.  1.
          4   -1    0    0  501    0  0.00000000000E+00 -0.00000000000E+00 -0.75894531991E+03  0.75894531991E+03  0.00000000000E+00 0. -1.
         23    2    1    2    0    0  0.40911716423E+03 -0.82599719845E+02 -0.57739712396E+03  0.71998103451E+03  0.10385414538E+03 0.  0.
        254    2    1    2    0    0 -0.40911716423E+03  0.82599719845E+02  0.22746491349E+04  0.24951616163E+04  0.93680480172E+03 0.  0.
         23    2    4    4    0    0  0.20113993564E+03  0.21964485439E+02  0.11225400280E+03  0.24565118438E+03  0.82485337562E+02 0.  0.
         23    2    4    4    0    0 -0.61025709988E+03  0.60635234406E+02  0.21623951321E+04  0.22495104319E+04  0.90852166556E+02 0.  0.
          1    1    3    3  502    0  0.16180593772E+03 -0.75929339442E+02 -0.29115917621E+03  0.34164322320E+03  0.00000000000E+00 0. -1.
         -1    1    3    3    0  502  0.24731122651E+03 -0.66703804034E+01 -0.28623794775E+03  0.37833781131E+03  0.00000000000E+00 0.  1.
         11    1    5    5    0    0  0.17108079930E+03  0.18440481239E+02  0.54583434272E+02  0.18052158467E+03  0.00000000000E+00 0.  1.
        -11    1    5    5    0    0  0.30059136346E+02  0.35240042001E+01  0.57670568533E+02  0.65129599710E+02  0.00000000000E+00 0. -1.
          4    1    6    6  503    0 -0.12951303712E+03  0.43973875816E+02  0.40509856564E+03  0.42756540602E+03  0.00000000000E+00 0. -1.
         -4    1    6    6    0  503 -0.48074406275E+03  0.16661358590E+02  0.17572965665E+04  0.18219450259E+04  0.00000000000E+00 0.  1.
<mgrwt>
<rscale>  0 0.27306552E+04</rscale>
<asrwt>0</asrwt>
<pdfrwt beam="1">  1        4 0.11676082E+00 0.27306552E+04</pdfrwt>
<pdfrwt beam="2">  1       -4 0.37787651E+00 0.27306552E+04</pdfrwt>
<totfact> 0.95503420E-03</totfact>
</mgrwt>
</event>
<event>
12    2  0.3518828E-008  0.2321946E+04  0.7818608E-02  0.8469318E-01
          1   -1    0    0  501    0  0.00000000000E+00  0.00000000000E+00  0.26678670402E+04  0.26678670402E+04  0.00000000000E+00 0. -1.
         -1   -1    0    0    0  501 -0.00000000000E+00 -0.00000000000E+00 -0.50521965127E+03  0.50521965127E+03  0.00000000000E+00 0.  1.
         23    2    1    2    0    0  0.50250323258E+03 -0.46912923846E+03  0.18794218611E+04  0.20032328299E+04  0.90130447971E+02 0.  0.
        254    2    1    2    0    0 -0.50250323258E+03  0.46912923846E+03  0.28322552783E+03  0.11698538616E+04  0.90318858313E+03 0.  0.
         23    2    4    4    0    0 -0.41314798839E+03  0.40248481865E+03 -0.23689833335E+03  0.63040012146E+03  0.92726496995E+02 0.  0.
         23    2    4    4    0    0 -0.89355244194E+02  0.66644419811E+02  0.52012386118E+03  0.53945374011E+03  0.89753375415E+02 0.  0.
          3    1    3    3  502    0  0.21219009432E+03 -0.14597935359E+03  0.63949900536E+03  0.68941539412E+03  0.00000000000E+00 0. -1.
         -3    1    3    3    0  502  0.29031313826E+03 -0.32314988487E+03  0.12399228558E+04  0.13138174358E+04  0.00000000000E+00 0.  1.
         11    1    5    5    0    0 -0.27013166997E+03  0.30185481569E+03 -0.12992112017E+03  0.42540209960E+03  0.00000000000E+00 0.  1.
        -11    1    5    5    0    0 -0.14301631842E+03  0.10063000296E+03 -0.10697721318E+03  0.20499802187E+03  0.00000000000E+00 0. -1.
          3    1    6    6  503    0  0.18236211207E+02  0.49534305054E+01  0.78806404554E+02  0.81040392840E+02  0.00000000000E+00 0. -1.
         -3    1    6    6    0  503 -0.10759145540E+03  0.61690989306E+02  0.44131745662E+03  0.45841334727E+03  0.00000000000E+00 0.  1.
<mgrwt>
<rscale>  0 0.23219465E+04</rscale>
<asrwt>0</asrwt>
<pdfrwt beam="1">  1        1 0.41044107E+00 0.23219465E+04</pdfrwt>
<pdfrwt beam="2">  1       -1 0.77726102E-01 0.23219465E+04</pdfrwt>
<totfact> 0.15470039E+00</totfact>
</mgrwt>
</event>
<event>
12    2  0.3518828E-008  0.1174106E+04  0.7818608E-02  0.9135828E-01
          2   -1    0    0  501    0  0.00000000000E+00  0.00000000000E+00  0.15722080368E+04  0.15722080368E+04  0.00000000000E+00 0. -1.
         -2   -1    0    0    0  501 -0.00000000000E+00 -0.00000000000E+00 -0.21920218322E+03  0.21920218322E+03  0.00000000000E+00 0.  1.
         23    2    1    2    0    0  0.11482080161E+03  0.11080118839E+03  0.37579310267E+02  0.18792920026E+03  0.91893742549E+02 0.  0.
        254    2    1    2    0    0 -0.11482080161E+03 -0.11080118839E+03  0.13154265433E+04  0.16034810198E+04  0.90296382542E+03 0.  0.
         23    2    4    4    0    0  0.27836802259E+03 -0.26963601457E+03  0.29905311655E+03  0.49830680006E+03  0.93191008766E+02 0.  0.
         23    2    4    4    0    0 -0.39318882420E+03  0.15883482618E+03  0.10163734268E+04  0.11051742197E+04  0.92569756214E+02 0.  0.
          4    1    3    3  502    0 -0.88986524850E+01  0.17990858220E+02  0.25984125705E+02  0.32833394344E+02  0.00000000000E+00 0. -1.
         -4    1    3    3    0  502  0.12371945410E+03  0.92810330171E+02  0.11595184563E+02  0.15509580592E+03  0.00000000000E+00 0.  1.
         11    1    5    5    0    0  0.14887089702E+03 -0.15329781491E+03  0.10659651310E+03  0.23880029447E+03  0.00000000000E+00 0. -1.
        -11    1    5    5    0    0  0.12949712556E+03 -0.11633819966E+03  0.19245660345E+03  0.25950650558E+03  0.00000000000E+00 0.  1.
          4    1    6    6  503    0 -0.32969981445E+03  0.12733148674E+03  0.74324385410E+03  0.82299860378E+03  0.00000000000E+00 0.  1.
         -4    1    6    6    0  503 -0.63489009749E+02  0.31503339437E+02  0.27312957266E+03  0.28217561591E+03  0.00000000000E+00 0. -1.
<mgrwt>
<rscale>  0 0.11741064E+04</rscale>
<asrwt>0</asrwt>
<pdfrwt beam="1">  1        2 0.24187815E+00 0.11741064E+04</pdfrwt>
<pdfrwt beam="2">  1       -2 0.33723414E-01 0.11741064E+04</pdfrwt>
<totfact> 0.93913182E+01</totfact>
</mgrwt>
</event>
<event>
12    2  0.3518828E-008  0.2411647E+04  0.7818608E-02  0.8435156E-01
         -1   -1    0    0    0  501 -0.00000000000E+00  0.00000000000E+00  0.56425505920E+03  0.56425505920E+03  0.00000000000E+00 0.  1.
          1   -1    0    0  501    0  0.00000000000E+00 -0.00000000000E+00 -0.25768679226E+04  0.25768679226E+04  0.00000000000E+00 0. -1.
         23    2    1    2    0    0 -0.24859362178E+03  0.72780391618E+03 -0.17342831651E+04  0.18993930042E+04  0.91969333355E+02 0.  0.
        254    2    1    2    0    0  0.24859362178E+03 -0.72780391618E+03 -0.27832969824E+03  0.12417299776E+04  0.93430647388E+03 0.  0.
         23    2    4    4    0    0 -0.20400045027E+03  0.82632663984E+02  0.67172258942E+02  0.24714640697E+03  0.90138189682E+02 0.  0.
         23    2    4    4    0    0  0.45259407205E+03 -0.81043658016E+03 -0.34550195718E+03  0.99458357063E+03  0.90421413522E+02 0.  0.
          1    1    3    3  502    0 -0.20875444714E+03  0.53091583888E+03 -0.13550808229E+04  0.14702700717E+04  0.00000000000E+00 0. -1.
         -1    1    3    3    0  502 -0.39839174644E+02  0.19688807730E+03 -0.37920234223E+03  0.42912293247E+03  0.00000000000E+00 0.  1.
         11    1    5    5    0    0 -0.30620474439E+02  0.51749917736E+02  0.48125043908E+01  0.60322695887E+02  0.00000000000E+00 0. -1.
        -11    1    5    5    0    0 -0.17337997583E+03  0.30882746248E+02  0.62359754551E+02  0.18682371108E+03  0.00000000000E+00 0.  1.
          2    1    6    6  503    0  0.39936137314E+03 -0.72121820119E+03 -0.33603378815E+03  0.89026058369E+03  0.00000000000E+00 0. -1.
         -2    1    6    6    0  503  0.53232698906E+02 -0.89218378973E+02 -0.94681690321E+01  0.10432298694E+03  0.00000000000E+00 0.  1.
<mgrwt>
<rscale>  0 0.24116474E+04</rscale>
<asrwt>0</asrwt>
<pdfrwt beam="1">  1        1 0.39644122E+00 0.24116474E+04</pdfrwt>
<pdfrwt beam="2">  1       -1 0.86808470E-01 0.24116474E+04</pdfrwt>
<totfact> 0.14017653E+00</totfact>
</mgrwt>
</event>
<event>
12    2  0.3518828E-008  0.1649808E+04  0.7818608E-02  0.8790520E-01
          1   -1    0    0  501    0  0.00000000000E+00  0.00000000000E+00  0.16287098774E+04  0.16287098774E+04  0.00000000000E+00 0. -1.
         -1   -1    0    0    0  501 -0.00000000000E+00 -0.00000000000E+00 -0.41779494572E+03  0.41779494572E+03  0.00000000000E+00 0.  1.
         23    2    1    2    0    0  0.71198513524E+02 -0.22066077055E+03 -0.22703293045E+03  0.33644754654E+03  0.88840284084E+02 0.  0.
        254    2    1    2    0    0 -0.71198513524E+02  0.22066077055E+03  0.14379478621E+04  0.17100572765E+04  0.89601419129E+03 0.  0.
         23    2    4    4    0    0 -0.48535343002E+02 -0.30928577844E+03  0.86025297925E+03  0.91988045581E+03  0.90174788030E+02 0.  0.
         23    2    4    4    0    0 -0.22663170521E+02  0.52994654899E+03  0.57769488284E+03  0.79017682073E+03  0.96390177328E+02 0.  0.
          4    1    3    3  502    0  0.48965197544E+02 -0.33096373053E+02 -0.46967980959E+02  0.75491401598E+02  0.00000000000E+00 0. -1.
         -4    1    3    3    0  502  0.22233315979E+02 -0.18756439749E+03 -0.18006494949E+03  0.26095614494E+03  0.00000000000E+00 0.  1.
         11    1    5    5    0    0 -0.14958237124E+02 -0.20249665433E+03  0.65920816049E+03  0.68977100746E+03  0.00000000000E+00 0. -1.
        -11    1    5    5    0    0 -0.33577105879E+02 -0.10678912412E+03  0.20104481876E+03  0.23010944835E+03  0.00000000000E+00 0.  1.
          1    1    6    6  503    0  0.32609575930E+02  0.33160127465E+03  0.35984491336E+03  0.49041936286E+03  0.00000000000E+00 0. -1.
         -1    1    6    6    0  503 -0.55272746451E+02  0.19834527434E+03  0.21784996947E+03  0.29975745788E+03  0.00000000000E+00 0.  1.
<mgrwt>
<rscale>  0 0.16498082E+04</rscale>
<asrwt>0</asrwt>
<pdfrwt beam="1">  1        1 0.25057075E+00 0.16498082E+04</pdfrwt>
<pdfrwt beam="2">  1       -1 0.64276146E-01 0.16498082E+04</pdfrwt>
<totfact> 0.12507197E+01</totfact>
</mgrwt>
</event>
<event>
12    2  0.3518828E-008  0.1868647E+04  0.7818608E-02  0.8670622E-01
         -2   -1    0    0    0  501 -0.00000000000E+00  0.00000000000E+00  0.40385207664E+03  0.40385207664E+03  0.00000000000E+00 0.  1.
          2   -1    0    0  501    0  0.00000000000E+00 -0.00000000000E+00 -0.21615837733E+04  0.21615837733E+04  0.00000000000E+00 0. -1.
         23    2    1    2    0    0 -0.38440139739E+03  0.20155075284E+03  0.12711335382E+03  0.46131153890E+03  0.90903195282E+02 0.  0.
        254    2    1    2    0    0  0.38440139739E+03 -0.20155075284E+03 -0.18848450505E+04  0.21041243111E+04  0.82843896076E+03 0.  0.
         23    2    4    4    0    0  0.63187778397E+03 -0.15988016835E+03 -0.12051662514E+04  0.13736758937E+04  0.98633489174E+02 0.  0.
         23    2    4    4    0    0 -0.24747638658E+03 -0.41670584495E+02 -0.67967879911E+03  0.73044841741E+03  0.92793431960E+02 0.  0.
          2    1    3    3  502    0  0.11255301265E+01 -0.46796217125E+00  0.10690567551E+02  0.10759834628E+02  0.00000000000E+00 0. -1.
         -2    1    3    3    0  502 -0.38552692752E+03  0.20201871502E+03  0.11642278627E+03  0.45055170427E+03  0.00000000000E+00 0.  1.
         11    1    5    5    0    0  0.63503751709E+03 -0.15997542889E+03 -0.11910981281E+04  0.13592569796E+04  0.00000000000E+00 0. -1.
        -11    1    5    5    0    0 -0.31597331171E+01  0.95260539289E-01 -0.14068123304E+02  0.14418914011E+02  0.00000000000E+00 0.  1.
          1    1    6    6  503    0 -0.24594562348E+03 -0.42805278613E+02 -0.68268020322E+03  0.72689325313E+03  0.00000000000E+00 0. -1.
         -1    1    6    6    0  503 -0.15307631010E+01  0.11346941178E+01  0.30014041097E+01  0.35551642778E+01  0.00000000000E+00 0.  1.
<mgrwt>
<rscale>  0 0.18686467E+04</rscale>
<asrwt>0</asrwt>
<pdfrwt beam="1">  1        2 0.33255136E+00 0.18686467E+04</pdfrwt>
<pdfrwt beam="2">  1       -2 0.62131087E-01 0.18686467E+04</pdfrwt>
<totfact> 0.12255371E+01</totfact>
</mgrwt>
</event>
<event>
12    2  0.3518828E-008  0.1495897E+04  0.7818608E-02  0.8887186E-01
         -2   -1    0    0    0  501 -0.00000000000E+00  0.00000000000E+00  0.30274840210E+03  0.30274840210E+03  0.00000000000E+00 0. -1.
          2   -1    0    0  501    0  0.00000000000E+00 -0.00000000000E+00 -0.18478288236E+04  0.18478288236E+04  0.00000000000E+00 0.  1.
         23    2    1    2    0    0 -0.43757516062E+03 -0.11518900685E+03 -0.69587975415E+03  0.83484610002E+03  0.89324408711E+02 0.  0.
        254    2    1    2    0    0  0.43757516062E+03  0.11518900685E+03 -0.84920066737E+03  0.13157311257E+04  0.89736619792E+03 0.  0.
         23    2    4    4    0    0  0.34632401876E+03  0.12775385585E+03  0.70834961518E+02  0.38677907024E+03  0.91209011333E+02 0.  0.
         23    2    4    4    0    0  0.91251141855E+02 -0.12564849004E+02 -0.92003562889E+03  0.92895205545E+03  0.89452314563E+02 0.  0.
          3    1    3    3  502    0 -0.11785542093E+03 -0.53998656066E+02 -0.26314076827E+03  0.29334078991E+03  0.00000000000E+00 0. -1.
         -3    1    3    3    0  502 -0.31971973969E+03 -0.61190350781E+02 -0.43273898588E+03  0.54150531011E+03  0.00000000000E+00 0.  1.
         11    1    5    5    0    0  0.17099372689E+03  0.29618871399E+02  0.66385136711E+02  0.18580397885E+03  0.00000000000E+00 0.  1.
        -11    1    5    5    0    0  0.17533029187E+03  0.98134984453E+02  0.44498248072E+01  0.20097509140E+03  0.00000000000E+00 0. -1.
          4    1    6    6  503    0  0.21405293383E+01 -0.34795768530E+02 -0.19114333670E+03  0.19429642956E+03  0.00000000000E+00 0. -1.
         -4    1    6    6    0  503  0.89110612517E+02  0.22230919526E+02 -0.72889229219E+03  0.73465562589E+03  0.00000000000E+00 0.  1.
<mgrwt>
<rscale>  0 0.14958974E+04</rscale>
<asrwt>0</asrwt>
<pdfrwt beam="1">  1        2 0.28428136E+00 0.14958974E+04</pdfrwt>
<pdfrwt beam="2">  1       -2 0.46576677E-01 0.14958974E+04</pdfrwt>
<totfact> 0.34285210E+01</totfact>
</mgrwt>
</event>
<event>
12    2  0.3518828E-008  0.2209103E+04  0.7818608E-02  0.8514649E-01
          2   -1    0    0  501    0  0.00000000000E+00  0.00000000000E+00  0.83760870565E+03  0.83760870565E+03  0.00000000000E+00 0. -1.
         -2   -1    0    0    0  501 -0.00000000000E+00 -0.00000000000E+00 -0.14565678205E+04  0.14565678205E+04  0.00000000000E+00 0.  1.
         23    2    1    2    0    0  0.47810455045E+02 -0.77488868327E+03  0.25118094711E+03  0.82084045993E+03  0.89156499410E+02 0.  0.
        254    2    1    2    0    0 -0.47810455045E+02  0.77488868327E+03 -0.87014006200E+03  0.14733360663E+04  0.90046494966E+03 0.  0.
         23    2    4    4    0    0 -0.39641658124E+03  0.53186377596E+03 -0.24637084140E+03  0.71328796352E+03  0.89754918298E+02 0.  0.
         23    2    4    4    0    0  0.34860612619E+03  0.24302490732E+03 -0.62376922060E+03  0.76004810274E+03  0.89430090623E+02 0.  0.
          1    1    3    3  502    0  0.60700463114E+02 -0.73519061920E+03  0.22368675102E+03  0.77086026967E+03  0.00000000000E+00 0. -1.
         -1    1    3    3    0  502 -0.12890008069E+02 -0.39698064076E+02  0.27494196087E+02  0.49980190254E+02  0.00000000000E+00 0.  1.
         11    1    5    5    0    0 -0.62813324923E+02  0.78935974269E+02 -0.73448144794E+02  0.12478394045E+03  0.00000000000E+00 0.  1.
        -11    1    5    5    0    0 -0.33360325631E+03  0.45292780169E+03 -0.17292269661E+03  0.58850402307E+03  0.00000000000E+00 0. -1.
          2    1    6    6  503    0  0.26245156658E+03  0.21708599380E+03 -0.53072754343E+03  0.63061785486E+03  0.00000000000E+00 0. -1.
         -2    1    6    6    0  503  0.86154559608E+02  0.25938913514E+02 -0.93041677171E+02  0.12943024788E+03  0.00000000000E+00 0.  1.
<mgrwt>
<rscale>  0 0.22091029E+04</rscale>
<asrwt>0</asrwt>
<pdfrwt beam="1">  1        2 0.12886288E+00 0.22091029E+04</pdfrwt>
<pdfrwt beam="2">  1       -2 0.22408736E+00 0.22091029E+04</pdfrwt>
<totfact> 0.27533187E+00</totfact>
</mgrwt>
</event>
<event>
12    2  0.3518828E-008  0.2436162E+04  0.7818608E-02  0.8426088E-01
         -1   -1    0    0    0  501 -0.00000000000E+00  0.00000000000E+00  0.19720920608E+04  0.19720920608E+04  0.00000000000E+00 0.  1.
          1   -1    0    0  501    0  0.00000000000E+00 -0.00000000000E+00 -0.75235920869E+03  0.75235920869E+03  0.00000000000E+00 0. -1.
         23    2    1    2    0    0  0.35346111696E+03  0.96827909085E+03  0.31889592166E+03  0.10828798386E+04  0.91842130341E+02 0.  0.
        254    2    1    2    0    0 -0.35346111696E+03 -0.96827909085E+03  0.90083693042E+03  0.16415714309E+04  0.90595277394E+03 0.  0.
         23    2    4    4    0    0 -0.28139009793E+02 -0.10157691451E+04  0.58356604592E+03  0.11755796561E+04  0.94124586545E+02 0.  0.
         23    2    4    4    0    0 -0.32532210717E+03  0.47490054228E+02  0.31727088450E+03  0.46599177487E+03  0.91639191554E+02 0.  0.
          2    1    3    3  502    0  0.17569155850E+03  0.39796740629E+03  0.97641289541E+02  0.44584683650E+03  0.00000000000E+00 0. -1.
         -2    1    3    3    0  502  0.17776955846E+03  0.57031168457E+03  0.22125463212E+03  0.63703300205E+03  0.00000000000E+00 0.  1.
         11    1    5    5    0    0 -0.45384226562E+02 -0.59214174337E+03  0.29847662617E+03  0.66466523050E+03  0.00000000000E+00 0. -1.
        -11    1    5    5    0    0  0.17245216769E+02 -0.42362740171E+03  0.28508941976E+03  0.51091442555E+03  0.00000000000E+00 0.  1.
          2    1    6    6  503    0 -0.14727959437E+03  0.70793620059E+00  0.19750965671E+03  0.24637744334E+03  0.00000000000E+00 0. -1.
         -2    1    6    6    0  503 -0.17804251280E+03  0.46782118027E+02  0.11976122779E+03  0.21961433153E+03  0.00000000000E+00 0.  1.
<mgrwt>
<rscale>  0 0.24361622E+04</rscale>
<asrwt>0</asrwt>
<pdfrwt beam="1">  1        1 0.11574757E+00 0.24361622E+04</pdfrwt>
<pdfrwt beam="2">  1       -1 0.30339878E+00 0.24361622E+04</pdfrwt>
<totfact> 0.68354763E-01</totfact>
</mgrwt>
</event>
<event>
12    2  0.3518828E-008  0.2170360E+04  0.7818608E-02  0.8530867E-01
         -1   -1    0    0    0  501 -0.00000000000E+00  0.00000000000E+00  0.34355408980E+03  0.34355408980E+03  0.00000000000E+00 0.  1.
          1   -1    0    0  501    0  0.00000000000E+00 -0.00000000000E+00 -0.34277443159E+04  0.34277443159E+04  0.00000000000E+00 0. -1.
         23    2    1    2    0    0  0.60067251036E+03 -0.58901496394E+03 -0.18046155276E+04  0.19930173012E+04  0.87946960167E+02 0.  0.
        254    2    1    2    0    0 -0.60067251036E+03  0.58901496394E+03 -0.12795746985E+04  0.17782811046E+04  0.90400563345E+03 0.  0.
         23    2    4    4    0    0 -0.46441148514E+03  0.12572480918E+03 -0.99196205844E+02  0.49966165894E+03  0.91307891163E+02 0.  0.
         23    2    4    4    0    0 -0.13626102522E+03  0.46329015475E+03 -0.11803784927E+04  0.12786194456E+04  0.91484787010E+02 0.  0.
          3    1    3    3  502    0  0.54882317090E+03 -0.50314140825E+03 -0.15574023999E+04  0.17262272112E+04  0.00000000000E+00 0. -1.
         -3    1    3    3    0  502  0.51849339462E+02 -0.85873555692E+02 -0.24721312773E+03  0.26679008995E+03  0.00000000000E+00 0.  1.
         11    1    5    5    0    0 -0.11072448599E+01  0.11898756421E+02  0.15740423161E+01  0.12053381466E+02  0.00000000000E+00 0.  1.
        -11    1    5    5    0    0 -0.46330424028E+03  0.11382605276E+03 -0.10077024816E+03  0.48760827748E+03  0.00000000000E+00 0. -1.
          3    1    6    6  503    0 -0.14758484648E+03  0.45210800675E+03 -0.11417729252E+04  0.12368623001E+04  0.00000000000E+00 0. -1.
         -3    1    6    6    0  503  0.11323821263E+02  0.11182148002E+02 -0.38605567497E+02  0.41757145540E+02  0.00000000000E+00 0.  1.
<mgrwt>
<rscale>  0 0.21703600E+04</rscale>
<asrwt>0</asrwt>
<pdfrwt beam="1">  1        1 0.52734530E+00 0.21703600E+04</pdfrwt>
<pdfrwt beam="2">  1       -1 0.52854473E-01 0.21703600E+04</pdfrwt>
<totfact> 0.94156874E-01</totfact>
</mgrwt>
</event>
<event>
12    2  0.3518828E-008  0.1972672E+04  0.7818608E-02  0.8619505E-01
          2   -1    0    0  501    0  0.00000000000E+00  0.00000000000E+00  0.13066657906E+04  0.13066657906E+04  0.00000000000E+00 0. -1.
         -2   -1    0    0    0  501 -0.00000000000E+00 -0.00000000000E+00 -0.74453541434E+03  0.74453541434E+03  0.00000000000E+00 0.  1.
         23    2    1    2    0    0 -0.75318278414E+03 -0.14877620115E+03  0.12654778463E+03  0.78346723376E+03  0.91585480444E+02 0.  0.
        254    2    1    2    0    0  0.75318278414E+03  0.14877620115E+03  0.43558259166E+03  0.12677339712E+04  0.90994426384E+03 0.  0.
         23    2    4    4    0    0  0.12073307753E+03  0.45674161754E+03  0.15383655143E+03  0.50487063564E+03  0.89662104409E+02 0.  0.
         23    2    4    4    0    0  0.63244970660E+03 -0.30796541640E+03  0.28174604023E+03  0.76286333558E+03  0.88001752913E+02 0.  0.
          2    1    3    3  502    0 -0.22212197373E+03 -0.86303773828E+02  0.46325105271E+02  0.24276022732E+03  0.00000000000E+00 0. -1.
         -2    1    3    3    0  502 -0.53106081041E+03 -0.62472427320E+02  0.80222679359E+02  0.54070700644E+03  0.00000000000E+00 0.  1.
         11    1    5    5    0    0  0.37634130168E+02  0.10722994399E+03  0.77618923955E+02  0.13762007846E+03  0.00000000000E+00 0.  1.
        -11    1    5    5    0    0  0.83098947366E+02  0.34951167356E+03  0.76217627475E+02  0.36725055717E+03  0.00000000000E+00 0. -1.
          1    1    6    6  503    0  0.41684153598E+03 -0.15714027252E+03  0.18826324769E+03  0.48362483579E+03  0.00000000000E+00 0. -1.
         -1    1    6    6    0  503  0.21560817062E+03 -0.15082514387E+03  0.93482792547E+02  0.27923849979E+03  0.00000000000E+00 0.  1.
<mgrwt>
<rscale>  0 0.19726723E+04</rscale>
<asrwt>0</asrwt>
<pdfrwt beam="1">  1        2 0.20102551E+00 0.19726723E+04</pdfrwt>
<pdfrwt beam="2">  1       -2 0.11454391E+00 0.19726723E+04</pdfrwt>
<totfact> 0.90846882E+00</totfact>
</mgrwt>
</event>
<event>
12    2  0.3518828E-008  0.4175660E+04  0.7818608E-02  0.7970018E-01
         -2   -1    0    0    0  501 -0.00000000000E+00  0.00000000000E+00  0.22429936369E+04  0.22429936369E+04  0.00000000000E+00 0.  1.
          2   -1    0    0  501    0  0.00000000000E+00 -0.00000000000E+00 -0.19434001116E+04  0.19434001116E+04  0.00000000000E+00 0. -1.
         23    2    1    2    0    0  0.87542807181E+03 -0.71395312689E+03 -0.14985015738E+04  0.18788039510E+04  0.91071089353E+02 0.  0.
        254    2    1    2    0    0 -0.87542807181E+03  0.71395312689E+03  0.17980950991E+04  0.23075897975E+04  0.90317291355E+03 0.  0.
         23    2    4    4    0    0  0.74848127782E+02  0.32185429889E+03  0.17479004697E+03  0.38400994530E+03  0.87861513907E+02 0.  0.
         23    2    4    4    0    0 -0.95027619959E+03  0.39209882800E+03  0.16233050521E+04  0.19235798522E+04  0.90960480646E+02 0.  0.
          1    1    3    3  502    0  0.45276552200E+03 -0.36584765999E+03 -0.69668623362E+03  0.90786168349E+03  0.00000000000E+00 0. -1.
         -1    1    3    3    0  502  0.42266254981E+03 -0.34810546690E+03 -0.80181534018E+03  0.97094226752E+03  0.00000000000E+00 0.  1.
         11    1    5    5    0    0  0.76264529973E+02  0.14109411697E+03  0.95068889991E+02  0.18644549397E+03  0.00000000000E+00 0.  1.
        -11    1    5    5    0    0 -0.14164021911E+01  0.18076018192E+03  0.79721156975E+02  0.19756445134E+03  0.00000000000E+00 0. -1.
          3    1    6    6  503    0 -0.28903608169E+03  0.11020595027E+03  0.56703310707E+03  0.64592085623E+03  0.00000000000E+00 0. -1.
         -3    1    6    6    0  503 -0.66124011791E+03  0.28189287773E+03  0.10562719450E+04  0.12776589959E+04  0.00000000000E+00 0.  1.
<mgrwt>
<rscale>  0 0.41756600E+04</rscale>
<asrwt>0</asrwt>
<pdfrwt beam="1">  1        2 0.29898463E+00 0.41756600E+04</pdfrwt>
<pdfrwt beam="2">  1       -2 0.34507595E+00 0.41756600E+04</pdfrwt>
<totfact> 0.93346216E-02</totfact>
</mgrwt>
</event>
<event>
12    2  0.3518828E-008  0.3348061E+04  0.7818608E-02  0.8150773E-01
          1   -1    0    0  501    0  0.00000000000E+00  0.00000000000E+00  0.11510170421E+04  0.11510170421E+04  0.00000000000E+00 0. -1.
         -1   -1    0    0    0  501 -0.00000000000E+00 -0.00000000000E+00 -0.24346976787E+04  0.24346976787E+04  0.00000000000E+00 0.  1.
         23    2    1    2    0    0 -0.98151302521E+03  0.64364842414E+03  0.48793827847E+03  0.12765059162E+04  0.11718565596E+03 0.  0.
        254    2    1    2    0    0  0.98151302521E+03 -0.64364842414E+03 -0.17716189150E+04  0.23092088045E+04  0.90341607823E+03 0.  0.
         23    2    4    4    0    0  0.10195599877E+04 -0.76181155849E+03 -0.13389854955E+04  0.18496251054E+04  0.91495649540E+02 0.  0.
         23    2    4    4    0    0 -0.38046962506E+02  0.11816313435E+03 -0.43263341947E+03  0.45958369919E+03  0.92926870402E+02 0.  0.
          4    1    3    3  502    0 -0.29512263683E+03  0.14392084535E+03  0.17135458737E+03  0.37036870158E+03  0.00000000000E+00 0. -1.
         -4    1    3    3    0  502 -0.68639038838E+03  0.49972757880E+03  0.31658369109E+03  0.90613721463E+03  0.00000000000E+00 0.  1.
         11    1    5    5    0    0  0.28425289039E+02 -0.58063019438E+01 -0.38321205215E+02  0.48064799681E+02  0.00000000000E+00 0.  1.
        -11    1    5    5    0    0  0.99113469868E+03 -0.75600525655E+03 -0.13006642903E+04  0.18015603057E+04  0.00000000000E+00 0. -1.
          3    1    6    6  503    0 -0.57555335783E+02  0.93378456719E+02 -0.23366496544E+03  0.25813072062E+03  0.00000000000E+00 0. -1.
         -3    1    6    6    0  503  0.19508373277E+02  0.24784677631E+02 -0.19896845403E+03  0.20145297857E+03  0.00000000000E+00 0.  1.
<mgrwt>
<rscale>  0 0.33480612E+04</rscale>
<asrwt>0</asrwt>
<pdfrwt beam="1">  1        1 0.17707954E+00 0.33480612E+04</pdfrwt>
<pdfrwt beam="2">  1       -1 0.37456887E+00 0.33480612E+04</pdfrwt>
<totfact> 0.10207866E-01</totfact>
</mgrwt>
</event>
<event>
12    2  0.3518828E-008  0.2303835E+04  0.7818608E-02  0.8476411E-01
         -1   -1    0    0    0  501 -0.00000000000E+00  0.00000000000E+00  0.14613872373E+04  0.14613872373E+04  0.00000000000E+00 0.  1.
          1   -1    0    0  501    0  0.00000000000E+00 -0.00000000000E+00 -0.90798217406E+03  0.90798217406E+03  0.00000000000E+00 0. -1.
         23    2    1    2    0    0 -0.66544087617E+02  0.14012188307E+03 -0.75473286326E+03  0.77586138117E+03  0.90977635653E+02 0.  0.
        254    2    1    2    0    0  0.66544087617E+02 -0.14012188307E+03  0.13081379265E+04  0.15935080302E+04  0.89664973642E+03 0.  0.
         23    2    4    4    0    0  0.34264871571E+03 -0.38895099556E+03  0.76933087522E+03  0.93253545454E+03  0.95191171203E+02 0.  0.
         23    2    4    4    0    0 -0.27610462810E+03  0.24882911249E+03  0.53880705127E+03  0.66097257565E+03  0.91771533563E+02 0.  0.
          3    1    3    3  502    0  0.20339031788E+02  0.36945481052E+02 -0.24395035453E+03  0.24756902121E+03  0.00000000000E+00 0. -1.
         -3    1    3    3    0  502 -0.86883119405E+02  0.10317640202E+03 -0.51078250873E+03  0.52829235996E+03  0.00000000000E+00 0.  1.
         11    1    5    5    0    0  0.26618602549E+03 -0.35174806484E+03  0.66393278690E+03  0.79711256846E+03  0.00000000000E+00 0. -1.
        -11    1    5    5    0    0  0.76462690225E+02 -0.37202930716E+02  0.10539808833E+03  0.13542288608E+03  0.00000000000E+00 0.  1.
          3    1    6    6  503    0 -0.31857000371E+02 -0.49149139054E+00  0.66080992677E+02  0.73360804451E+02  0.00000000000E+00 0.  1.
         -3    1    6    6    0  503 -0.24424762773E+03  0.24932060388E+03  0.47272605860E+03  0.58761177119E+03  0.00000000000E+00 0. -1.
<mgrwt>
<rscale>  0 0.23038347E+04</rscale>
<asrwt>0</asrwt>
<pdfrwt beam="1">  1        1 0.13968957E+00 0.23038347E+04</pdfrwt>
<pdfrwt beam="2">  1       -1 0.22482881E+00 0.23038347E+04</pdfrwt>
<totfact> 0.16546352E+00</totfact>
</mgrwt>
</event>
<event>
12    2  0.3518828E-008  0.1268741E+04  0.7818608E-02  0.9054728E-01
         -2   -1    0    0    0  501 -0.00000000000E+00  0.00000000000E+00  0.13266239044E+04  0.13266239044E+04  0.00000000000E+00 0.  1.
          2   -1    0    0  501    0  0.00000000000E+00 -0.00000000000E+00 -0.30334604378E+03  0.30334604378E+03  0.00000000000E+00 0. -1.
         23    2    1    2    0    0 -0.56316247283E+02  0.74846290016E+02  0.64447565199E+03  0.65756275926E+03  0.90919907224E+02 0.  0.
        254    2    1    2    0    0  0.56316247283E+02 -0.74846290016E+02  0.37880220861E+03  0.97240718888E+03  0.89068015634E+03 0.  0.
         23    2    4    4    0    0 -0.18024482472E+03  0.12640357446E+03  0.55455830420E+03  0.60275798731E+03  0.85534893686E+02 0.  0.
         23    2    4    4    0    0  0.23656107200E+03 -0.20124986448E+03 -0.17575609559E+03  0.36964920157E+03  0.96372601619E+02 0.  0.
          2    1    3    3  502    0  0.23818684638E+02  0.59352146365E+01  0.10493772232E+03  0.10777050652E+03  0.00000000000E+00 0. -1.
         -2    1    3    3    0  502 -0.80134931920E+02  0.68911075380E+02  0.53953792967E+03  0.54979225274E+03  0.00000000000E+00 0.  1.
         11    1    5    5    0    0 -0.86277770760E+02  0.56132232161E+02  0.37006478691E+03  0.38411277995E+03  0.00000000000E+00 0. -1.
        -11    1    5    5    0    0 -0.93967053960E+02  0.70271342300E+02  0.18449351730E+03  0.21864520736E+03  0.00000000000E+00 0.  1.
          3    1    6    6  503    0  0.62306464300E+02 -0.72536557544E+02 -0.10437483571E+03  0.14155477386E+03  0.00000000000E+00 0. -1.
         -3    1    6    6    0  503  0.17425460770E+03 -0.12871330693E+03 -0.71381259881E+02  0.22809442770E+03  0.00000000000E+00 0.  1.
<mgrwt>
<rscale>  0 0.12687413E+04</rscale>
<asrwt>0</asrwt>
<pdfrwt beam="1">  1        2 0.46668623E-01 0.12687413E+04</pdfrwt>
<pdfrwt beam="2">  1       -2 0.20409598E+00 0.12687413E+04</pdfrwt>
<totfact> 0.13310525E+01</totfact>
</mgrwt>
</event>
<event>
12    2  0.3518828E-008  0.1813423E+04  0.7818608E-02  0.8699194E-01
         -1   -1    0    0    0  501 -0.00000000000E+00  0.00000000000E+00  0.40534230108E+03  0.40534230108E+03  0.00000000000E+00 0.  1.
          1   -1    0    0  501    0  0.00000000000E+00 -0.00000000000E+00 -0.20282264555E+04  0.20282264555E+04  0.00000000000E+00 0. -1.
         23    2    1    2    0    0  0.55395708421E+02  0.12735028661E+03 -0.15143871922E+04  0.15234839426E+04  0.91367256862E+02 0.  0.
        254    2    1    2    0    0 -0.55395708421E+02 -0.12735028661E+03 -0.10849696226E+03  0.91008481397E+03  0.89285833019E+03 0.  0.
         23    2    4    4    0    0 -0.29846580035E+03 -0.18624753036E+03  0.26630165099E+03  0.45072286309E+03  0.92003007839E+02 0.  0.
         23    2    4    4    0    0  0.24307009193E+03  0.58897243748E+02 -0.37479861325E+03  0.45936195087E+03  0.89372515343E+02 0.  0.
          3    1    3    3  502    0  0.25847215200E+02  0.12310610293E+03 -0.13848668924E+04  0.13905680497E+04  0.00000000000E+00 0. -1.
         -3    1    3    3    0  502  0.29548493221E+02  0.42441836807E+01 -0.12952029973E+03  0.13291589291E+03  0.00000000000E+00 0.  1.
         11    1    5    5    0    0 -0.84348352224E+02 -0.61973615856E+02  0.13395799665E+03  0.17000034839E+03  0.00000000000E+00 0.  1.
        -11    1    5    5    0    0 -0.21411744813E+03 -0.12427391450E+03  0.13234365434E+03  0.28072251470E+03  0.00000000000E+00 0. -1.
          3    1    6    6  503    0  0.16104836839E+03  0.20981339848E+02 -0.16792307578E+03  0.23361282705E+03  0.00000000000E+00 0. -1.
         -3    1    6    6    0  503  0.82021723541E+02  0.37915903901E+02 -0.20687553747E+03  0.22574912382E+03  0.00000000000E+00 0.  1.
<mgrwt>
<rscale>  0 0.18134233E+04</rscale>
<asrwt>0</asrwt>
<pdfrwt beam="1">  1        1 0.31203483E+00 0.18134233E+04</pdfrwt>
<pdfrwt beam="2">  1       -1 0.62360355E-01 0.18134233E+04</pdfrwt>
<totfact> 0.70104225E+00</totfact>
</mgrwt>
</event>
<event>
12    2  0.3518828E-008  0.1081037E+04  0.7818608E-02  0.9223874E-01
          1   -1    0    0  501    0  0.00000000000E+00  0.00000000000E+00  0.10941044465E+04  0.10941044465E+04  0.00000000000E+00 0. -1.
         -1   -1    0    0    0  501 -0.00000000000E+00 -0.00000000000E+00 -0.26703127398E+03  0.26703127398E+03  0.00000000000E+00 0.  1.
         23    2    1    2    0    0  0.67215882659E+00 -0.34857421385E+02  0.18796442620E+03  0.21279060845E+03  0.93454405492E+02 0.  0.
        254    2    1    2    0    0 -0.67215882659E+00  0.34857421385E+02  0.63910874637E+03  0.11483451121E+04  0.95342593582E+03 0.  0.
         23    2    4    4    0    0 -0.34763729424E+03  0.81329979514E+02  0.69083972028E+03  0.78320959599E+03  0.93228205100E+02 0.  0.
         23    2    4    4    0    0  0.34696513541E+03 -0.46472558128E+02 -0.51730973913E+02  0.36513551607E+03  0.90018595752E+02 0.  0.
          1    1    3    3  502    0  0.20345496269E+02 -0.29648249221E+02  0.18902210642E+03  0.19241183596E+03  0.00000000000E+00 0. -1.
         -1    1    3    3    0  502 -0.19673337443E+02 -0.52091721643E+01 -0.10576802271E+01  0.20378772491E+02  0.00000000000E+00 0.  1.
         11    1    5    5    0    0 -0.29733308944E+03  0.35836852645E+02  0.53218060099E+03  0.61066147590E+03  0.00000000000E+00 0. -1.
        -11    1    5    5    0    0 -0.50304204804E+02  0.45493126869E+02  0.15865911929E+03  0.17254812009E+03  0.00000000000E+00 0.  1.
          1    1    6    6  503    0  0.30898732220E+03 -0.11967398727E+02 -0.53401806585E+02  0.31379633022E+03  0.00000000000E+00 0. -1.
         -1    1    6    6    0  503  0.37977813210E+02 -0.34505159401E+02  0.16708326719E+01  0.51339185846E+02  0.00000000000E+00 0.  1.
<mgrwt>
<rscale>  0 0.10810367E+04</rscale>
<asrwt>0</asrwt>
<pdfrwt beam="1">  1        1 0.16832376E+00 0.10810367E+04</pdfrwt>
<pdfrwt beam="2">  1       -1 0.41081735E-01 0.10810367E+04</pdfrwt>
<totfact> 0.74061652E+01</totfact>
</mgrwt>
</event>
<event>
12    2  0.3518828E-008  0.2854194E+04  0.7818608E-02  0.8286638E-01
          1   -1    0    0  501    0  0.00000000000E+00  0.00000000000E+00  0.53213401034E+04  0.53213401034E+04  0.00000000000E+00 0. -1.
         -1   -1    0    0    0  501 -0.00000000000E+00 -0.00000000000E+00 -0.38272437134E+03  0.38272437134E+03  0.00000000000E+00 0.  1.
         23    2    1    2    0    0  0.84075626964E+03  0.19887825460E+03  0.33053987553E+03  0.92989206219E+03  0.94968273162E+02 0.  0.
        254    2    1    2    0    0 -0.84075626964E+03 -0.19887825460E+03  0.46080758565E+04  0.47741724125E+04  0.90107461405E+03 0.  0.
         23    2    4    4    0    0 -0.97130179576E+03 -0.16125182290E+03  0.30083047912E+04  0.31666474239E+04  0.91262599613E+02 0.  0.
         23    2    4    4    0    0  0.13054552612E+03 -0.37626431699E+02  0.15997710653E+04  0.16075249886E+04  0.80070248537E+02 0.  0.
          1    1    3    3  502    0  0.32719052557E+03  0.11292636237E+03  0.16544338201E+03  0.38363721925E+03  0.00000000000E+00 0. -1.
         -1    1    3    3    0  502  0.51356574407E+03  0.85951892231E+02  0.16509649352E+03  0.54625484294E+03  0.00000000000E+00 0.  1.
         11    1    5    5    0    0 -0.17990643015E+03 -0.62095719731E+02  0.63492429698E+03  0.66283562436E+03  0.00000000000E+00 0.  1.
        -11    1    5    5    0    0 -0.79139536561E+03 -0.99156103173E+02  0.23733804942E+04  0.25038117996E+04  0.00000000000E+00 0. -1.
          3    1    6    6  503    0  0.51657600062E+02 -0.53377961468E+02  0.92442833836E+03  0.92740792922E+03  0.00000000000E+00 0. -1.
         -3    1    6    6    0  503  0.78887926058E+02  0.15751529769E+02  0.67534272699E+03  0.68011705938E+03  0.00000000000E+00 0.  1.
<mgrwt>
<rscale>  0 0.28541945E+04</rscale>
<asrwt>0</asrwt>
<pdfrwt beam="1">  1        1 0.81866765E+00 0.28541945E+04</pdfrwt>
<pdfrwt beam="2">  1       -1 0.58880676E-01 0.28541945E+04</pdfrwt>
<totfact> 0.76675798E-03</totfact>
</mgrwt>
</event>
<event>
12    2  0.3518828E-008  0.1991032E+04  0.7818608E-02  0.8610825E-01
         -2   -1    0    0    0  501 -0.00000000000E+00  0.00000000000E+00  0.54964701374E+03  0.54964701374E+03  0.00000000000E+00 0.  1.
          2   -1    0    0  501    0  0.00000000000E+00 -0.00000000000E+00 -0.18030697381E+04  0.18030697381E+04  0.00000000000E+00 0. -1.
         23    2    1    2    0    0  0.23617859290E+03  0.47683385457E+03  0.18553372449E+03  0.57104510100E+03  0.92297843082E+02 0.  0.
        254    2    1    2    0    0 -0.23617859290E+03 -0.47683385457E+03 -0.14389564489E+04  0.17816716509E+04  0.90587380862E+03 0.  0.
         23    2    4    4    0    0 -0.24634356251E+03 -0.13625552310E+03  0.49509979081E+01  0.29568978209E+03  0.90317309994E+02 0.  0.
         23    2    4    4    0    0  0.10164969609E+02 -0.34057833147E+03 -0.14439074468E+04  0.14859818688E+04  0.84714066077E+02 0.  0.
          1    1    3    3  502    0  0.93372955084E+02  0.99777839914E+02  0.54059344424E+02  0.14695760885E+03  0.00000000000E+00 0. -1.
         -1    1    3    3    0  502  0.14280563782E+03  0.37705601466E+03  0.13147438007E+03  0.42408749215E+03  0.00000000000E+00 0.  1.
         11    1    5    5    0    0 -0.13050726067E+03 -0.11189617320E+03 -0.24668181863E+02  0.17367042886E+03  0.00000000000E+00 0.  1.
        -11    1    5    5    0    0 -0.11583630184E+03 -0.24359349906E+02  0.29619179772E+02  0.12201935323E+03  0.00000000000E+00 0. -1.
          3    1    6    6  503    0  0.71571614610E+01 -0.34523327827E+03 -0.14129738667E+04  0.14545557361E+04  0.00000000000E+00 0. -1.
         -3    1    6    6    0  503  0.30078081477E+01  0.46549468062E+01 -0.30933580067E+02  0.31426132683E+02  0.00000000000E+00 0.  1.
<mgrwt>
<rscale>  0 0.19910318E+04</rscale>
<asrwt>0</asrwt>
<pdfrwt beam="1">  1        2 0.27739535E+00 0.19910318E+04</pdfrwt>
<pdfrwt beam="2">  1       -2 0.84561078E-01 0.19910318E+04</pdfrwt>
<totfact> 0.97421669E+00</totfact>
</mgrwt>
</event>
<event>
12    2  0.3518828E-008  0.1871333E+04  0.7818608E-02  0.8669259E-01
         -2   -1    0    0    0  501 -0.00000000000E+00  0.00000000000E+00  0.44817186375E+03  0.44817186375E+03  0.00000000000E+00 0.  1.
          2   -1    0    0  501    0  0.00000000000E+00 -0.00000000000E+00 -0.19534297762E+04  0.19534297762E+04  0.00000000000E+00 0. -1.
         23    2    1    2    0    0  0.36652950140E+03  0.61004128872E+03 -0.68194666451E+03  0.98978425126E+03  0.90151879987E+02 0.  0.
        254    2    1    2    0    0 -0.36652950140E+03 -0.61004128872E+03 -0.82331124790E+03  0.14118173886E+04  0.89938461106E+03 0.  0.
         23    2    4    4    0    0 -0.18415626741E+03 -0.48958505728E+03  0.22414529980E+02  0.53362118878E+03  0.10316056816E+03 0.  0.
         23    2    4    4    0    0 -0.18237323398E+03 -0.12045623144E+03 -0.84572577788E+03  0.87819619986E+03  0.90591246331E+02 0.  0.
          1    1    3    3  502    0  0.15306616036E+03  0.18392464712E+03 -0.19831018018E+03  0.31078039325E+03  0.00000000000E+00 0. -1.
         -1    1    3    3    0  502  0.21346334104E+03  0.42611664160E+03 -0.48363648434E+03  0.67900385801E+03  0.00000000000E+00 0.  1.
         11    1    5    5    0    0 -0.65953567522E+02 -0.84363645374E+02  0.30808992513E+02  0.11142841536E+03  0.00000000000E+00 0. -1.
        -11    1    5    5    0    0 -0.11820269989E+03 -0.40522141191E+03 -0.83944625332E+01  0.42219277343E+03  0.00000000000E+00 0.  1.
          2    1    6    6  503    0 -0.15365286573E+03 -0.13413304423E+03 -0.75453900697E+03  0.78162010577E+03  0.00000000000E+00 0.  1.
         -2    1    6    6    0  503 -0.28720368258E+02  0.13676812795E+02 -0.91186770906E+02  0.96576094088E+02  0.00000000000E+00 0. -1.
<mgrwt>
<rscale>  0 0.18713335E+04</rscale>
<asrwt>0</asrwt>
<pdfrwt beam="1">  1        2 0.30052765E+00 0.18713335E+04</pdfrwt>
<pdfrwt beam="2">  1       -2 0.68949519E-01 0.18713335E+04</pdfrwt>
<totfact> 0.12789472E+01</totfact>
</mgrwt>
</event>
<event>
12    2  0.3518828E-008  0.1327084E+04  0.7818608E-02  0.9008359E-01
          2   -1    0    0  501    0  0.00000000000E+00  0.00000000000E+00  0.30696828278E+03  0.30696828278E+03  0.00000000000E+00 0. -1.
         -2   -1    0    0    0  501 -0.00000000000E+00 -0.00000000000E+00 -0.14343113509E+04  0.14343113509E+04  0.00000000000E+00 0.  1.
         23    2    1    2    0    0 -0.10167006117E+03 -0.20487788928E+03  0.39982160511E+02  0.24887551317E+03  0.89602996833E+02 0.  0.
        254    2    1    2    0    0  0.10167006117E+03  0.20487788928E+03 -0.11673252286E+04  0.14924041205E+04  0.90128248549E+03 0.  0.
         23    2    4    4    0    0 -0.25690678513E+03 -0.21114849715E+03 -0.27916864443E+03  0.44419132839E+03  0.93733772416E+02 0.  0.
         23    2    4    4    0    0  0.35857684630E+03  0.41602638643E+03 -0.88815658416E+03  0.10482127921E+04  0.90954002578E+02 0.  0.
          3    1    3    3  502    0 -0.64350860482E+02 -0.78088915652E+02  0.56150719126E+02  0.11572301090E+03  0.00000000000E+00 0. -1.
         -3    1    3    3    0  502 -0.37319200689E+02 -0.12678897363E+03 -0.16168558615E+02  0.13315250227E+03  0.00000000000E+00 0.  1.
         11    1    5    5    0    0 -0.99297433062E+02 -0.12695078643E+03 -0.17253385017E+03  0.23610254518E+03  0.00000000000E+00 0.  1.
        -11    1    5    5    0    0 -0.15760935207E+03 -0.84197710711E+02 -0.10663479426E+03  0.20808878321E+03  0.00000000000E+00 0. -1.
          2    1    6    6  503    0  0.18192624654E+03  0.14252492765E+03 -0.36490528272E+03  0.43193330451E+03  0.00000000000E+00 0. -1.
         -2    1    6    6    0  503  0.17665059976E+03  0.27350145877E+03 -0.52325130143E+03  0.61627948757E+03  0.00000000000E+00 0.  1.
<mgrwt>
<rscale>  0 0.13270842E+04</rscale>
<asrwt>0</asrwt>
<pdfrwt beam="1">  1        2 0.47225888E-01 0.13270842E+04</pdfrwt>
<pdfrwt beam="2">  1       -2 0.22066329E+00 0.13270842E+04</pdfrwt>
<totfact> 0.10246443E+01</totfact>
</mgrwt>
</event>
<event>
12    2  0.3518828E-008  0.2400213E+04  0.7818608E-02  0.8439424E-01
         -1   -1    0    0    0  501 -0.00000000000E+00  0.00000000000E+00  0.12989977689E+04  0.12989977689E+04  0.00000000000E+00 0.  1.
          1   -1    0    0  501    0  0.00000000000E+00 -0.00000000000E+00 -0.11087435468E+04  0.11087435468E+04  0.00000000000E+00 0. -1.
         23    2    1    2    0    0  0.39799133282E+03  0.34691105964E+03 -0.80216862266E+03  0.96416717935E+03  0.86020150270E+02 0.  0.
        254    2    1    2    0    0 -0.39799133282E+03 -0.34691105964E+03  0.99242284478E+03  0.14435741363E+04  0.90568140080E+03 0.  0.
         23    2    4    4    0    0 -0.57314260631E+03 -0.20421310851E+03  0.10282832816E+04  0.11982541386E+04  0.90835194335E+02 0.  0.
         23    2    4    4    0    0  0.17515127349E+03 -0.14269795113E+03 -0.35860436811E+02  0.24531999770E+03  0.88629884812E+02 0.  0.
          2    1    3    3  502    0  0.39581922607E+03  0.33368157449E+03 -0.79567492661E+03  0.94927068938E+03  0.00000000000E+00 0. -1.
         -2    1    3    3    0  502  0.21721067539E+01  0.13229485149E+02 -0.64936960530E+01  0.14896489972E+02  0.00000000000E+00 0.  1.
         11    1    5    5    0    0 -0.49113350889E+03 -0.16003797903E+03  0.92273374228E+03  0.10574790009E+04  0.00000000000E+00 0. -1.
        -11    1    5    5    0    0 -0.82009097419E+02 -0.44175129484E+02  0.10554953931E+03  0.14077513763E+03  0.00000000000E+00 0.  1.
          2    1    6    6  503    0  0.12483961567E+03 -0.57927051376E+02  0.70586126691E+01  0.13780528631E+03  0.00000000000E+00 0. -1.
         -2    1    6    6    0  503  0.50311657822E+02 -0.84770899751E+02 -0.42919049480E+02  0.10751471139E+03  0.00000000000E+00 0.  1.
<mgrwt>
<rscale>  0 0.24002128E+04</rscale>
<asrwt>0</asrwt>
<pdfrwt beam="1">  1        1 0.17057593E+00 0.24002128E+04</pdfrwt>
<pdfrwt beam="2">  1       -1 0.19984581E+00 0.24002128E+04</pdfrwt>
<totfact> 0.16883599E+00</totfact>
</mgrwt>
</event>
<event>
12    2  0.3995313E-008  0.2387318E+04  0.7818608E-02  0.8444267E-01
          2   -1    0    0  501    0  0.00000000000E+00  0.00000000000E+00  0.12111214326E+04  0.12111214326E+04  0.00000000000E+00 0. -1.
         -2   -1    0    0    0  501 -0.00000000000E+00 -0.00000000000E+00 -0.11764485446E+04  0.11764485446E+04  0.00000000000E+00 0.  1.
         23    2    1    2    0    0 -0.15167831437E+03  0.14222215897E+03  0.10097511341E+04  0.10354131900E+04  0.96175192902E+02 0.  0.
        254    2    1    2    0    0  0.15167831437E+03 -0.14222215897E+03 -0.97507824607E+03  0.13521567872E+04  0.91340951257E+03 0.  0.
         23    2    4    4    0    0  0.27822772293E+03  0.86748489147E+02  0.32692121671E+02  0.30689219031E+03  0.90432712420E+02 0.  0.
         23    2    4    4    0    0 -0.12654940857E+03 -0.22897064811E+03 -0.10077703677E+04  0.10452645969E+04  0.92383185182E+02 0.  0.
          3    1    3    3  502    0 -0.16173639509E+03  0.14200524694E+03  0.99131281963E+03  0.10144088219E+04  0.00000000000E+00 0. -1.
         -3    1    3    3    0  502  0.10058080722E+02  0.21691202678E+00  0.18438314434E+02  0.21004368065E+02  0.00000000000E+00 0.  1.
         11    1    5    5    0    0  0.13537122110E+03  0.55915804856E+02 -0.27166233001E+02  0.14896291133E+03  0.00000000000E+00 0. -1.
        -11    1    5    5    0    0  0.14285650183E+03  0.30832684291E+02  0.59858354672E+02  0.15792927898E+03  0.00000000000E+00 0.  1.
          3    1    6    6  503    0 -0.61674600831E+02 -0.15906141044E+03 -0.77803190155E+03  0.79651611943E+03  0.00000000000E+00 0. -1.
         -3    1    6    6    0  503 -0.64874807736E+02 -0.69909237674E+02 -0.22973846619E+03  0.24874847746E+03  0.00000000000E+00 0.  1.
<mgrwt>
<rscale>  0 0.23873182E+04</rscale>
<asrwt>0</asrwt>
<pdfrwt beam="1">  1        2 0.18632638E+00 0.23873182E+04</pdfrwt>
<pdfrwt beam="2">  1       -2 0.18099208E+00 0.23873182E+04</pdfrwt>
<totfact> 0.29970363E+00</totfact>
</mgrwt>
</event>
<event>
12    2  0.3518828E-008  0.1238124E+04  0.7818608E-02  0.9080126E-01
          2   -1    0    0  501    0  0.00000000000E+00  0.00000000000E+00  0.42853760507E+03  0.42853760507E+03  0.00000000000E+00 0. -1.
         -2   -1    0    0    0  501 -0.00000000000E+00 -0.00000000000E+00 -0.89429243079E+03  0.89429243079E+03  0.00000000000E+00 0.  1.
         23    2    1    2    0    0 -0.75409525490E+02 -0.93561947342E+02  0.16523298630E+03  0.22378297995E+03  0.91304150104E+02 0.  0.
        254    2    1    2    0    0  0.75409525490E+02  0.93561947342E+02 -0.63098781202E+03  0.10990470559E+04  0.89180624447E+03 0.  0.
         23    2    4    4    0    0 -0.21596475371E+03  0.15859097138E+03  0.10375655563E+03  0.30071922575E+03  0.88739838015E+02 0.  0.
         23    2    4    4    0    0  0.29137427920E+03 -0.65029024040E+02 -0.73474436766E+03  0.79832783016E+03  0.91379943452E+02 0.  0.
          3    1    3    3  502    0 -0.46542583775E+02 -0.10760473122E+03  0.11540240623E+03  0.16450746381E+03  0.00000000000E+00 0. -1.
         -3    1    3    3    0  502 -0.28866941715E+02  0.14042783877E+02  0.49830580072E+02  0.59275516137E+02  0.00000000000E+00 0.  1.
         11    1    5    5    0    0 -0.19769698612E+02  0.11795407939E+02 -0.15951865743E+02  0.28007760573E+02  0.00000000000E+00 0.  1.
        -11    1    5    5    0    0 -0.19619505510E+03  0.14679556344E+03  0.11970842138E+03  0.27271146518E+03  0.00000000000E+00 0. -1.
          3    1    6    6  503    0  0.64903294275E+02 -0.29191269770E+02 -0.28189605063E+03  0.29074035014E+03  0.00000000000E+00 0. -1.
         -3    1    6    6    0  503  0.22647098493E+03 -0.35837754270E+02 -0.45284831703E+03  0.50758748003E+03  0.00000000000E+00 0.  1.
<mgrwt>
<rscale>  0 0.12381243E+04</rscale>
<asrwt>0</asrwt>
<pdfrwt beam="1">  1        2 0.65928862E-01 0.12381243E+04</pdfrwt>
<pdfrwt beam="2">  1       -2 0.13758345E+00 0.12381243E+04</pdfrwt>
<totfact> 0.27177193E+01</totfact>
</mgrwt>
</event>
<event>
12    2  0.3518828E-008  0.1169880E+04  0.7818608E-02  0.9139637E-01
         -1   -1    0    0    0  501 -0.00000000000E+00  0.00000000000E+00  0.18901780050E+03  0.18901780050E+03  0.00000000000E+00 0. -1.
          1   -1    0    0  501    0  0.00000000000E+00 -0.00000000000E+00 -0.18101726381E+04  0.18101726381E+04  0.00000000000E+00 0.  1.
         23    2    1    2    0    0  0.36419012582E+01  0.14627580347E+03 -0.47502387757E+03  0.50523447847E+03  0.90577700590E+02 0.  0.
        254    2    1    2    0    0 -0.36419012582E+01 -0.14627580347E+03 -0.11461309600E+04  0.14939559601E+04  0.94703661974E+03 0.  0.
         23    2    4    4    0    0 -0.44032556174E+03 -0.22499612058E+03 -0.55767461555E+03  0.75108797954E+03  0.92856456889E+02 0.  0.
         23    2    4    4    0    0  0.43668366048E+03  0.78720317108E+02 -0.58845634444E+03  0.74286798055E+03  0.93179716465E+02 0.  0.
          2    1    3    3  502    0  0.12434573650E+02  0.22151065010E+02 -0.22010315511E+03  0.22156418301E+03  0.00000000000E+00 0. -1.
         -2    1    3    3    0  502 -0.87926723920E+01  0.12412473846E+03 -0.25492072246E+03  0.28367029545E+03  0.00000000000E+00 0.  1.
         11    1    5    5    0    0 -0.13799319911E+03 -0.79859459117E+02 -0.11921885742E+03  0.19907986382E+03  0.00000000000E+00 0.  1.
        -11    1    5    5    0    0 -0.30233236263E+03 -0.14513666146E+03 -0.43845575812E+03  0.55200811572E+03  0.00000000000E+00 0. -1.
          3    1    6    6  503    0  0.40869196320E+03  0.76232862100E+02 -0.50112931561E+03  0.65113067890E+03  0.00000000000E+00 0. -1.
         -3    1    6    6    0  503  0.27991697284E+02  0.24874550088E+01 -0.87327028833E+02  0.91737301650E+02  0.00000000000E+00 0.  1.
<mgrwt>
<rscale>  0 0.11698801E+04</rscale>
<asrwt>0</asrwt>
<pdfrwt beam="1">  1        1 0.27848811E+00 0.11698801E+04</pdfrwt>
<pdfrwt beam="2">  1       -1 0.29079661E-01 0.11698801E+04</pdfrwt>
<totfact> 0.42899635E+01</totfact>
</mgrwt>
</event>
<event>
12    2  0.3518828E-008  0.1430745E+04  0.7818608E-02  0.8931860E-01
         -2   -1    0    0    0  501 -0.00000000000E+00  0.00000000000E+00  0.31281374276E+03  0.31281374276E+03  0.00000000000E+00 0.  1.
          2   -1    0    0  501    0  0.00000000000E+00 -0.00000000000E+00 -0.16359826282E+04  0.16359826282E+04  0.00000000000E+00 0. -1.
         23    2    1    2    0    0  0.18890158056E+03 -0.18369046608E+03 -0.86581291565E+03  0.90969105759E+03  0.92085942941E+02 0.  0.
        254    2    1    2    0    0 -0.18890158056E+03  0.18369046608E+03 -0.45735596980E+03  0.10391053134E+04  0.89506389421E+03 0.  0.
         23    2    4    4    0    0 -0.13930317339E+03  0.38619535986E+03 -0.62786584704E+03  0.75471885959E+03  0.82660783047E+02 0.  0.
         23    2    4    4    0    0 -0.49598407174E+02 -0.20250489377E+03  0.17050987724E+03  0.28438645379E+03  0.91289664618E+02 0.  0.
          1    1    3    3  502    0  0.71436643747E+01 -0.31247262022E+02 -0.44749299262E+02  0.55044737342E+02  0.00000000000E+00 0.  1.
         -1    1    3    3    0  502  0.18175791619E+03 -0.15244320406E+03 -0.82106361639E+03  0.85464632025E+03  0.00000000000E+00 0. -1.
         11    1    5    5    0    0 -0.11763833610E+03  0.33895787086E+03 -0.48946901435E+03  0.60688642458E+03  0.00000000000E+00 0.  1.
        -11    1    5    5    0    0 -0.21664837289E+02  0.47237489002E+02 -0.13839683269E+03  0.14783243501E+03  0.00000000000E+00 0. -1.
          2    1    6    6  503    0 -0.73483856599E+02 -0.12255712299E+03  0.92969696911E+02  0.17048017515E+03  0.00000000000E+00 0. -1.
         -2    1    6    6    0  503  0.23885449425E+02 -0.79947770787E+02  0.77540180330E+02  0.11390627864E+03  0.00000000000E+00 0.  1.
<mgrwt>
<rscale>  0 0.14307450E+04</rscale>
<asrwt>0</asrwt>
<pdfrwt beam="1">  1        2 0.25168963E+00 0.14307450E+04</pdfrwt>
<pdfrwt beam="2">  1       -2 0.48125192E-01 0.14307450E+04</pdfrwt>
<totfact> 0.42286545E+01</totfact>
</mgrwt>
</event>
<event>
12    2  0.3518828E-008  0.1635293E+04  0.7818608E-02  0.8799155E-01
          1   -1    0    0  501    0  0.00000000000E+00  0.00000000000E+00  0.14623658271E+04  0.14623658271E+04  0.00000000000E+00 0. -1.
         -1   -1    0    0    0  501 -0.00000000000E+00 -0.00000000000E+00 -0.45716742959E+03  0.45716742959E+03  0.00000000000E+00 0.  1.
         23    2    1    2    0    0  0.13778830567E+03  0.47325596595E+03  0.24269332951E+02  0.50179368434E+03  0.90835426065E+02 0.  0.
        254    2    1    2    0    0 -0.13778830567E+03 -0.47325596595E+03  0.98092906461E+03  0.14177395724E+04  0.89711027129E+03 0.  0.
         23    2    4    4    0    0 -0.36520681841E+03  0.10533290214E+03  0.31281805573E+03  0.50056001454E+03  0.90742226545E+02 0.  0.
         23    2    4    4    0    0  0.22741851274E+03 -0.57858886810E+03  0.66811100887E+03  0.91717955785E+03  0.91442675722E+02 0.  0.
          1    1    3    3  502    0  0.12333239673E+03  0.31579795683E+03 -0.13240239784E+02  0.33928532767E+03  0.00000000000E+00 0. -1.
         -1    1    3    3    0  502  0.14455908939E+02  0.15745800912E+03  0.37509572736E+02  0.16250835667E+03  0.00000000000E+00 0.  1.
         11    1    5    5    0    0 -0.42776728916E+02 -0.81980567575E+01  0.11914628989E+02  0.45155454325E+02  0.00000000000E+00 0.  1.
        -11    1    5    5    0    0 -0.32243008950E+03  0.11353095890E+03  0.30090342674E+03  0.45540456022E+03  0.00000000000E+00 0. -1.
          3    1    6    6  503    0  0.16448626403E+03 -0.50631038091E+03  0.57378281916E+03  0.78270853862E+03  0.00000000000E+00 0. -1.
         -3    1    6    6    0  503  0.62932248715E+02 -0.72278487191E+02  0.94328189716E+02  0.13447101924E+03  0.00000000000E+00 0.  1.
<mgrwt>
<rscale>  0 0.16352933E+04</rscale>
<asrwt>0</asrwt>
<pdfrwt beam="1">  1        1 0.22497936E+00 0.16352933E+04</pdfrwt>
<pdfrwt beam="2">  1       -1 0.70333452E-01 0.16352933E+04</pdfrwt>
<totfact> 0.13581385E+01</totfact>
</mgrwt>
</event>
<event>
12    2  0.3518828E-008  0.2373578E+04  0.7818608E-02  0.8449462E-01
         -2   -1    0    0    0  501 -0.00000000000E+00  0.00000000000E+00  0.76601606271E+03  0.76601606271E+03  0.00000000000E+00 0.  1.
          2   -1    0    0  501    0  0.00000000000E+00 -0.00000000000E+00 -0.18386925494E+04  0.18386925494E+04  0.00000000000E+00 0. -1.
         23    2    1    2    0    0 -0.13374840054E+03 -0.36474828431E+03 -0.14789638819E+04  0.15318321965E+04  0.90806215240E+02 0.  0.
        254    2    1    2    0    0  0.13374840054E+03  0.36474828431E+03  0.40628739520E+03  0.10728764156E+04  0.91381858710E+03 0.  0.
         23    2    4    4    0    0  0.42714898989E+03 -0.16012190644E+02  0.38838957564E+03  0.58377441607E+03  0.85049730014E+02 0.  0.
         23    2    4    4    0    0 -0.29340058935E+03  0.38076047495E+03  0.17897819555E+02  0.48910199954E+03  0.88532417205E+02 0.  0.
          4    1    3    3  502    0 -0.74792341826E+02 -0.15328047740E+03 -0.81021683127E+03  0.82797349766E+03  0.00000000000E+00 0. -1.
         -4    1    3    3    0  502 -0.58956058713E+02 -0.21146780690E+03 -0.66874705066E+03  0.70385869887E+03  0.00000000000E+00 0.  1.
         11    1    5    5    0    0  0.13920276016E+03 -0.28584041982E+02  0.86360378688E+02  0.16629062180E+03  0.00000000000E+00 0.  1.
        -11    1    5    5    0    0  0.28794622973E+03  0.12571851339E+02  0.30202919696E+03  0.41748379426E+03  0.00000000000E+00 0. -1.
          2    1    6    6  503    0 -0.26532309925E+02  0.91186014380E+02  0.49888860447E+01  0.95098589224E+02  0.00000000000E+00 0.  1.
         -2    1    6    6    0  503 -0.26686827942E+03  0.28957446057E+03  0.12908933510E+02  0.39400341032E+03  0.00000000000E+00 0. -1.
<mgrwt>
<rscale>  0 0.23735779E+04</rscale>
<asrwt>0</asrwt>
<pdfrwt beam="1">  1        2 0.28287578E+00 0.23735779E+04</pdfrwt>
<pdfrwt beam="2">  1       -2 0.11784863E+00 0.23735779E+04</pdfrwt>
<totfact> 0.41102450E+00</totfact>
</mgrwt>
</event>
<event>
12    2  0.3518828E-008  0.2318040E+04  0.7818608E-02  0.8470842E-01
         -2   -1    0    0    0  501 -0.00000000000E+00  0.00000000000E+00  0.51490672275E+03  0.51490672275E+03  0.00000000000E+00 0.  1.
          2   -1    0    0  501    0  0.00000000000E+00 -0.00000000000E+00 -0.26088743671E+04  0.26088743671E+04  0.00000000000E+00 0. -1.
         23    2    1    2    0    0  0.87333055611E+03  0.34882506035E+03 -0.12371153004E+04  0.15566948723E+04  0.91975408446E+02 0.  0.
        254    2    1    2    0    0 -0.87333055611E+03 -0.34882506035E+03 -0.85685234387E+03  0.15670862176E+04  0.91497436637E+03 0.  0.
         23    2    4    4    0    0 -0.45775304136E+03  0.18122390232E+03 -0.36200146421E+02  0.50162949526E+03  0.89116498281E+02 0.  0.
         23    2    4    4    0    0 -0.41557751474E+03 -0.53004896267E+03 -0.82065219745E+03  0.10654567223E+04  0.89841106034E+02 0.  0.
          1    1    3    3  502    0  0.59388526193E+03  0.19366942784E+03 -0.84456302321E+03  0.10504733465E+04  0.00000000000E+00 0. -1.
         -1    1    3    3    0  502  0.27944529418E+03  0.15515563251E+03 -0.39255227723E+03  0.50622152571E+03  0.00000000000E+00 0.  1.
         11    1    5    5    0    0 -0.45125673660E+03  0.18229337994E+03 -0.23415528235E+02  0.48724922335E+03  0.00000000000E+00 0.  1.
        -11    1    5    5    0    0 -0.64963047647E+01 -0.10694776224E+01 -0.12784618186E+02  0.14380271907E+02  0.00000000000E+00 0. -1.
          3    1    6    6  503    0 -0.18023153097E+03 -0.22244525414E+03 -0.28057836448E+03  0.40086096649E+03  0.00000000000E+00 0. -1.
         -3    1    6    6    0  503 -0.23534598378E+03 -0.30760370853E+03 -0.54007383297E+03  0.66459575581E+03  0.00000000000E+00 0.  1.
<mgrwt>
<rscale>  0 0.23180396E+04</rscale>
<asrwt>0</asrwt>
<pdfrwt beam="1">  1        2 0.40136528E+00 0.23180396E+04</pdfrwt>
<pdfrwt beam="2">  1       -2 0.79216420E-01 0.23180396E+04</pdfrwt>
<totfact> 0.38471347E+00</totfact>
</mgrwt>
</event>
<event>
12    2  0.3518828E-008  0.1522454E+04  0.7818608E-02  0.8869657E-01
         -1   -1    0    0    0  501 -0.00000000000E+00  0.00000000000E+00  0.72883892925E+03  0.72883892925E+03  0.00000000000E+00 0.  1.
          1   -1    0    0  501    0  0.00000000000E+00 -0.00000000000E+00 -0.79505438903E+03  0.79505438903E+03  0.00000000000E+00 0. -1.
         23    2    1    2    0    0  0.46274942620E+03  0.16318851522E+03 -0.52750836293E+02  0.50066199273E+03  0.84334199956E+02 0.  0.
        254    2    1    2    0    0 -0.46274942620E+03 -0.16318851522E+03 -0.13464623484E+02  0.10232313256E+04  0.89780483768E+03 0.  0.
         23    2    4    4    0    0 -0.68833734107E+03 -0.11766508289E+03  0.15973006408E+03  0.72165858959E+03  0.87315861793E+02 0.  0.
         23    2    4    4    0    0  0.22558791487E+03 -0.45523432338E+02 -0.17319468756E+03  0.30157273596E+03  0.89372395347E+02 0.  0.
          3    1    3    3  502    0  0.25014255994E+02  0.25636433529E+02 -0.19097046157E+02  0.40591093838E+02  0.00000000000E+00 0. -1.
         -3    1    3    3    0  502  0.43773517021E+03  0.13755208169E+03 -0.33653790136E+02  0.46007089889E+03  0.00000000000E+00 0.  1.
         11    1    5    5    0    0 -0.53501797600E+03 -0.56405706914E+02  0.13550764091E+03  0.55478658884E+03  0.00000000000E+00 0. -1.
        -11    1    5    5    0    0 -0.15331936507E+03 -0.61259375972E+02  0.24222423172E+02  0.16687200075E+03  0.00000000000E+00 0.  1.
          1    1    6    6  503    0  0.13712129260E+03 -0.40926963957E+02 -0.53743824095E+02  0.15285831312E+03  0.00000000000E+00 0. -1.
         -1    1    6    6    0  503  0.88466622269E+02 -0.45964683809E+01 -0.11945086347E+03  0.14871442284E+03  0.00000000000E+00 0.  1.
<mgrwt>
<rscale>  0 0.15224541E+04</rscale>
<asrwt>0</asrwt>
<pdfrwt beam="1">  1        1 0.12231606E+00 0.15224541E+04</pdfrwt>
<pdfrwt beam="2">  1       -1 0.11212907E+00 0.15224541E+04</pdfrwt>
<totfact> 0.15728769E+01</totfact>
</mgrwt>
</event>
<event>
12    2  0.3518828E-008  0.3413164E+04  0.7818608E-02  0.8134683E-01
          2   -1    0    0  501    0  0.00000000000E+00  0.00000000000E+00  0.20306226818E+04  0.20306226818E+04  0.00000000000E+00 0. -1.
         -2   -1    0    0    0  501 -0.00000000000E+00 -0.00000000000E+00 -0.14342506823E+04  0.14342506823E+04  0.00000000000E+00 0.  1.
         23    2    1    2    0    0 -0.39847733746E+03  0.12714010040E+04  0.11500207909E+04  0.17623896804E+04  0.90691038916E+02 0.  0.
        254    2    1    2    0    0  0.39847733746E+03 -0.12714010040E+04 -0.55364879141E+03  0.17024836838E+04  0.90370294225E+03 0.  0.
         23    2    4    4    0    0  0.29359695818E+03 -0.90040290255E+03 -0.79319021199E+03  0.12386581451E+04  0.90546823784E+02 0.  0.
         23    2    4    4    0    0  0.10488037928E+03 -0.37099810142E+03  0.23954142057E+03  0.46382553864E+03  0.95470167618E+02 0.  0.
          4    1    3    3  502    0 -0.60556711632E+02  0.16004322534E+03  0.18735091231E+03  0.25373473086E+03  0.00000000000E+00 0. -1.
         -4    1    3    3    0  502 -0.33792062583E+03  0.11113577786E+04  0.96266987863E+03  0.15086549495E+04  0.00000000000E+00 0.  1.
         11    1    5    5    0    0  0.25149711826E+03 -0.67411401396E+03 -0.56840296032E+03  0.91693098410E+03  0.00000000000E+00 0.  1.
        -11    1    5    5    0    0  0.42099839919E+02 -0.22628888859E+03 -0.22478725167E+03  0.32172716101E+03  0.00000000000E+00 0. -1.
          4    1    6    6  503    0  0.10998621412E+03 -0.29270117755E+03  0.15679789598E+03  0.34979497827E+03  0.00000000000E+00 0. -1.
         -4    1    6    6    0  503 -0.51058348371E+01 -0.78296923875E+02  0.82743524588E+02  0.11403056037E+03  0.00000000000E+00 0.  1.
<mgrwt>
<rscale>  0 0.34131639E+04</rscale>
<asrwt>0</asrwt>
<pdfrwt beam="1">  1        2 0.31240349E+00 0.34131639E+04</pdfrwt>
<pdfrwt beam="2">  1       -2 0.22065395E+00 0.34131639E+04</pdfrwt>
<totfact> 0.52046339E-01</totfact>
</mgrwt>
</event>
<event>
12    2  0.3518828E-008  0.2098318E+04  0.7818608E-02  0.8561985E-01
         -2   -1    0    0    0  501 -0.00000000000E+00  0.00000000000E+00  0.90681061057E+03  0.90681061057E+03  0.00000000000E+00 0.  1.
          2   -1    0    0  501    0  0.00000000000E+00 -0.00000000000E+00 -0.12138525723E+04  0.12138525723E+04  0.00000000000E+00 0. -1.
         23    2    1    2    0    0 -0.49735215268E+03  0.51185474044E+03  0.34254266156E+03  0.79683709822E+03  0.90881499934E+02 0.  0.
        254    2    1    2    0    0  0.49735215268E+03 -0.51185474044E+03 -0.64958462335E+03  0.13238260847E+04  0.90620134658E+03 0.  0.
         23    2    4    4    0    0  0.24061965150E+03 -0.54714603588E+03  0.14720418402E+02  0.60493935278E+03  0.92023521752E+02 0.  0.
         23    2    4    4    0    0  0.25673250118E+03  0.35291295436E+02 -0.66430504175E+03  0.71888673191E+03  0.91323009895E+02 0.  0.
          2    1    3    3  502    0 -0.22172070704E+03  0.19520920832E+03  0.18436532750E+03  0.34822016157E+03  0.00000000000E+00 0. -1.
         -2    1    3    3    0  502 -0.27563144563E+03  0.31664553213E+03  0.15817733406E+03  0.44861693665E+03  0.00000000000E+00 0.  1.
         11    1    5    5    0    0  0.19861528322E+02 -0.96284718209E+02 -0.24764160161E+02  0.10138289252E+03  0.00000000000E+00 0.  1.
        -11    1    5    5    0    0  0.22075812318E+03 -0.45086131767E+03  0.39484578563E+02  0.50355646025E+03  0.00000000000E+00 0. -1.
          1    1    6    6  503    0  0.17736031011E+03  0.51229131458E+02 -0.53867810414E+03  0.56943410803E+03  0.00000000000E+00 0. -1.
         -1    1    6    6    0  503  0.79372191070E+02 -0.15937836022E+02 -0.12562693761E+03  0.14945262388E+03  0.00000000000E+00 0.  1.
<mgrwt>
<rscale>  0 0.20983178E+04</rscale>
<asrwt>0</asrwt>
<pdfrwt beam="1">  1        2 0.18674655E+00 0.20983178E+04</pdfrwt>
<pdfrwt beam="2">  1       -2 0.13950933E+00 0.20983178E+04</pdfrwt>
<totfact> 0.62087773E+00</totfact>
</mgrwt>
</event>
<event>
12    2  0.3518828E-008  0.2024617E+04  0.7818608E-02  0.8595197E-01
          2   -1    0    0  501    0  0.00000000000E+00  0.00000000000E+00  0.26344847996E+04  0.26344847996E+04  0.00000000000E+00 0. -1.
         -2   -1    0    0    0  501 -0.00000000000E+00 -0.00000000000E+00 -0.38898258977E+03  0.38898258977E+03  0.00000000000E+00 0.  1.
         23    2    1    2    0    0 -0.77443996708E+03 -0.79526275383E+01  0.55314687372E+03  0.95620261685E+03  0.92365976729E+02 0.  0.
        254    2    1    2    0    0  0.77443996708E+03  0.79526275383E+01  0.16923553361E+04  0.20672647725E+04  0.89983140040E+03 0.  0.
         23    2    4    4    0    0  0.53273538792E+03  0.41450690372E+03  0.77628993068E+03  0.10325698602E+04  0.89171143553E+02 0.  0.
         23    2    4    4    0    0  0.24170457916E+03 -0.40655427618E+03  0.91606540540E+03  0.10346949123E+04  0.87808038289E+02 0.  0.
          3    1    3    3  502    0 -0.27388730126E+03 -0.16853988857E+02  0.14548832514E+03  0.31058841492E+03  0.00000000000E+00 0. -1.
         -3    1    3    3    0  502 -0.50055266582E+03  0.89013613186E+01  0.40765854858E+03  0.64561420192E+03  0.00000000000E+00 0.  1.
         11    1    5    5    0    0  0.53335779632E+03  0.41748068976E+03  0.77501243136E+03  0.10292739839E+04  0.00000000000E+00 0. -1.
        -11    1    5    5    0    0 -0.62240840270E+00 -0.29737860370E+01  0.12774993278E+01  0.32958762334E+01  0.00000000000E+00 0.  1.
          2    1    6    6  503    0  0.10307665759E+03 -0.25249392644E+03  0.48580647280E+03  0.55712288523E+03  0.00000000000E+00 0. -1.
         -2    1    6    6    0  503  0.13862792157E+03 -0.15406034974E+03  0.43025893260E+03  0.47757202711E+03  0.00000000000E+00 0.  1.
<mgrwt>
<rscale>  0 0.20246172E+04</rscale>
<asrwt>0</asrwt>
<pdfrwt beam="1">  1        2 0.40530534E+00 0.20246172E+04</pdfrwt>
<pdfrwt beam="2">  1       -2 0.59843477E-01 0.20246172E+04</pdfrwt>
<totfact> 0.70186704E+00</totfact>
</mgrwt>
</event>
<event>
12    2  0.3518828E-008  0.1498001E+04  0.7818608E-02  0.8885783E-01
         -2   -1    0    0    0  501 -0.00000000000E+00  0.00000000000E+00  0.41185365867E+03  0.41185365867E+03  0.00000000000E+00 0. -1.
          2   -1    0    0  501    0  0.00000000000E+00 -0.00000000000E+00 -0.13621381750E+04  0.13621381750E+04  0.00000000000E+00 0.  1.
         23    2    1    2    0    0  0.26281432783E+02 -0.45492766536E+01  0.25172918236E+03  0.26874735521E+03  0.90256025020E+02 0.  0.
        254    2    1    2    0    0 -0.26281432783E+02  0.45492766536E+01 -0.12020136987E+04  0.15052444785E+04  0.90565589407E+03 0.  0.
         23    2    4    4    0    0  0.10278883144E+02 -0.29055751646E+03 -0.46646388213E+02  0.30886368106E+03  0.93228547834E+02 0.  0.
         23    2    4    4    0    0 -0.36560315927E+02  0.29510679312E+03 -0.11553673105E+04  0.11963807974E+04  0.89603092620E+02 0.  0.
          3    1    3    3  502    0  0.10464067990E+02 -0.45181740008E+02  0.16878535168E+03  0.17504108458E+03  0.00000000000E+00 0. -1.
         -3    1    3    3    0  502  0.15817364793E+02  0.40632463354E+02  0.82943830684E+02  0.93706270632E+02  0.00000000000E+00 0.  1.
         11    1    5    5    0    0  0.11570567075E+02 -0.27871865593E+03 -0.19997221576E+02  0.27967455383E+03  0.00000000000E+00 0. -1.
        -11    1    5    5    0    0 -0.12916839308E+01 -0.11838860531E+02 -0.26649166638E+02  0.29189127231E+02  0.00000000000E+00 0.  1.
          2    1    6    6  503    0 -0.10479178905E+02  0.29986880752E+02 -0.26833176517E+03  0.27020540781E+03  0.00000000000E+00 0. -1.
         -2    1    6    6    0  503 -0.26081137022E+02  0.26511991236E+03 -0.88703554535E+03  0.92617538963E+03  0.00000000000E+00 0.  1.
<mgrwt>
<rscale>  0 0.14980008E+04</rscale>
<asrwt>0</asrwt>
<pdfrwt beam="1">  1        2 0.20955971E+00 0.14980008E+04</pdfrwt>
<pdfrwt beam="2">  1       -2 0.63362103E-01 0.14980008E+04</pdfrwt>
<totfact> 0.33902673E+01</totfact>
</mgrwt>
</event>
<event>
12    2  0.3518828E-008  0.1565618E+04  0.7818608E-02  0.8841953E-01
         -2   -1    0    0    0  501 -0.00000000000E+00  0.00000000000E+00  0.19935927084E+03  0.19935927084E+03  0.00000000000E+00 0.  1.
          2   -1    0    0  501    0  0.00000000000E+00 -0.00000000000E+00 -0.30737959113E+04  0.30737959113E+04  0.00000000000E+00 0. -1.
         23    2    1    2    0    0  0.25309428032E+03  0.30752015598E+03 -0.16699537953E+04  0.17189772938E+04  0.86671201214E+02 0.  0.
        254    2    1    2    0    0 -0.25309428032E+03 -0.30752015598E+03 -0.12044828451E+04  0.15541778883E+04  0.89781101754E+03 0.  0.
         23    2    4    4    0    0  0.16798680808E+03 -0.36846283152E+02  0.51332308828E+02  0.19917703795E+03  0.86367066916E+02 0.  0.
         23    2    4    4    0    0 -0.42108108840E+03 -0.27067387283E+03 -0.12558151539E+04  0.13550008503E+04  0.91553127289E+02 0.  0.
          4    1    3    3  502    0  0.24816898596E+03  0.25986482288E+03 -0.14956925503E+04  0.15382502321E+04  0.00000000000E+00 0. -1.
         -4    1    3    3    0  502  0.49252943615E+01  0.47655333095E+02 -0.17426124507E+03  0.18072706170E+03  0.00000000000E+00 0.  1.
         11    1    5    5    0    0  0.24767782961E+02 -0.29447487560E+02 -0.14834204324E+02  0.41238952634E+02  0.00000000000E+00 0.  1.
        -11    1    5    5    0    0  0.14321902511E+03 -0.73987955917E+01  0.66166513152E+02  0.15793808532E+03  0.00000000000E+00 0. -1.
          1    1    6    6  503    0 -0.30782752000E+03 -0.21861129239E+03 -0.10307817015E+04  0.10977520646E+04  0.00000000000E+00 0. -1.
         -1    1    6    6    0  503 -0.11325356840E+03 -0.52062580437E+02 -0.22503345243E+03  0.25724878571E+03  0.00000000000E+00 0.  1.
<mgrwt>
<rscale>  0 0.15656177E+04</rscale>
<asrwt>0</asrwt>
<pdfrwt beam="1">  1        2 0.47289169E+00 0.15656177E+04</pdfrwt>
<pdfrwt beam="2">  1       -2 0.30670656E-01 0.15656177E+04</pdfrwt>
<totfact> 0.14900309E+01</totfact>
</mgrwt>
</event>
<event>
12    2  0.3518828E-008  0.1727287E+04  0.7818608E-02  0.8745953E-01
         -1   -1    0    0    0  501 -0.00000000000E+00  0.00000000000E+00  0.83722355694E+03  0.83722355694E+03  0.00000000000E+00 0.  1.
          1   -1    0    0  501    0  0.00000000000E+00 -0.00000000000E+00 -0.89089710648E+03  0.89089710648E+03  0.00000000000E+00 0. -1.
         23    2    1    2    0    0 -0.12095467952E+03 -0.66261879231E+02  0.59029983949E+03  0.61285254069E+03  0.90075884635E+02 0.  0.
        254    2    1    2    0    0  0.12095467952E+03  0.66261879231E+02 -0.64397338903E+03  0.11152681227E+04  0.90005588085E+03 0.  0.
         23    2    4    4    0    0 -0.21391810449E+03  0.20550458037E+03  0.61855471136E+02  0.31640270693E+03  0.91057595288E+02 0.  0.
         23    2    4    4    0    0  0.33487278401E+03 -0.13924270114E+03 -0.70582886017E+03  0.79886541580E+03  0.91995985913E+02 0.  0.
          1    1    3    3  502    0 -0.27509453515E+02 -0.41124127855E+02  0.84837447802E+02  0.98210775753E+02  0.00000000000E+00 0. -1.
         -1    1    3    3    0  502 -0.93445226001E+02 -0.25137751376E+02  0.50546239169E+03  0.51464176494E+03  0.00000000000E+00 0.  1.
         11    1    5    5    0    0 -0.48532821652E+01 -0.93364952111E+01  0.21924222240E+01  0.10748544358E+02  0.00000000000E+00 0. -1.
        -11    1    5    5    0    0 -0.20906482233E+03  0.21484107558E+03  0.59663048912E+02  0.30565416257E+03  0.00000000000E+00 0.  1.
          1    1    6    6  503    0  0.10095766924E+03 -0.12344595623E+02 -0.26615884105E+03  0.28493046290E+03  0.00000000000E+00 0. -1.
         -1    1    6    6    0  503  0.23391511477E+03 -0.12689810551E+03 -0.43967001912E+03  0.51393495290E+03  0.00000000000E+00 0.  1.
<mgrwt>
<rscale>  0 0.17272869E+04</rscale>
<asrwt>0</asrwt>
<pdfrwt beam="1">  1        1 0.13706109E+00 0.17272869E+04</pdfrwt>
<pdfrwt beam="2">  1       -1 0.12880362E+00 0.17272869E+04</pdfrwt>
<totfact> 0.91264705E+00</totfact>
</mgrwt>
</event>
<event>
12    2  0.3518828E-008  0.1754876E+04  0.7818608E-02  0.8730671E-01
          1   -1    0    0  501    0  0.00000000000E+00  0.00000000000E+00  0.14966907327E+04  0.14966907327E+04  0.00000000000E+00 0. -1.
         -1   -1    0    0    0  501 -0.00000000000E+00 -0.00000000000E+00 -0.51439988901E+03  0.51439988901E+03  0.00000000000E+00 0.  1.
         23    2    1    2    0    0  0.56639043850E+03 -0.22565523020E+03  0.57605667742E+03  0.84368718293E+03  0.90820456352E+02 0.  0.
        254    2    1    2    0    0 -0.56639043850E+03  0.22565523020E+03  0.40623416628E+03  0.11674034388E+04  0.90889283157E+03 0.  0.
         23    2    4    4    0    0  0.71470174360E+02 -0.22944194176E+03 -0.47117152822E+02  0.25800881538E+03  0.81221501215E+02 0.  0.
         23    2    4    4    0    0 -0.63786061286E+03  0.45509717197E+03  0.45335131910E+03  0.90939462340E+03  0.86553828190E+02 0.  0.
          3    1    3    3  502    0  0.70825839709E+02 -0.29172717305E+02  0.11879777349E+03  0.14135154046E+03  0.00000000000E+00 0. -1.
         -3    1    3    3    0  502  0.49556459879E+03 -0.19648251290E+03  0.45725890393E+03  0.70233564246E+03  0.00000000000E+00 0.  1.
         11    1    5    5    0    0  0.47808577725E+02 -0.39568398912E+02 -0.64551679607E+01  0.62393809709E+02  0.00000000000E+00 0.  1.
        -11    1    5    5    0    0  0.23661596634E+02 -0.18987354285E+03 -0.40661984862E+02  0.19561500567E+03  0.00000000000E+00 0. -1.
          3    1    6    6  503    0 -0.47717765772E+03  0.29766230541E+03  0.30317893435E+03  0.63892005080E+03  0.00000000000E+00 0. -1.
         -3    1    6    6    0  503 -0.16068295514E+03  0.15743486655E+03  0.15017238475E+03  0.27047457260E+03  0.00000000000E+00 0.  1.
<mgrwt>
<rscale>  0 0.17548761E+04</rscale>
<asrwt>0</asrwt>
<pdfrwt beam="1">  1        1 0.23026011E+00 0.17548761E+04</pdfrwt>
<pdfrwt beam="2">  1       -1 0.79138445E-01 0.17548761E+04</pdfrwt>
<totfact> 0.99433666E+00</totfact>
</mgrwt>
</event>
<event>
12    2  0.3518828E-008  0.2140902E+04  0.7818608E-02  0.8543437E-01
          2   -1    0    0  501    0  0.00000000000E+00  0.00000000000E+00  0.74465075198E+03  0.74465075198E+03  0.00000000000E+00 0. -1.
         -2   -1    0    0    0  501 -0.00000000000E+00 -0.00000000000E+00 -0.15387954355E+04  0.15387954355E+04  0.00000000000E+00 0.  1.
         23    2    1    2    0    0  0.31423687931E+03 -0.76883938525E+03 -0.66445847296E+03  0.10675386581E+04  0.90966519405E+02 0.  0.
        254    2    1    2    0    0 -0.31423687931E+03  0.76883938525E+03 -0.12968621052E+03  0.12159075293E+04  0.87849518499E+03 0.  0.
         23    2    4    4    0    0 -0.59808901807E+03  0.37001855925E+03 -0.44580605124E+02  0.71119493923E+03  0.95846770944E+02 0.  0.
         23    2    4    4    0    0  0.28385213876E+03  0.39882082600E+03 -0.85105605397E+02  0.50471259010E+03  0.88666490910E+02 0.  0.
          1    1    3    3  502    0  0.79462272662E+01 -0.73589352520E+02 -0.40161078590E+02  0.84210733078E+02  0.00000000000E+00 0. -1.
         -1    1    3    3    0  502  0.30629065205E+03 -0.69525003273E+03 -0.62429739437E+03  0.98332792504E+03  0.00000000000E+00 0.  1.
         11    1    5    5    0    0 -0.27428989626E+01  0.17639986304E+02  0.10025029585E+01  0.17880090148E+02  0.00000000000E+00 0. -1.
        -11    1    5    5    0    0 -0.59534611911E+03  0.35237857295E+03 -0.45583108083E+02  0.69331484908E+03  0.00000000000E+00 0.  1.
          3    1    6    6  503    0 -0.14897029948E+01  0.27854732748E+02 -0.14390343381E+02  0.31387693992E+02  0.00000000000E+00 0. -1.
         -3    1    6    6    0  503  0.28534184175E+03  0.37096609325E+03 -0.70715262016E+02  0.47332489611E+03  0.00000000000E+00 0.  1.
<mgrwt>
<rscale>  0 0.21409018E+04</rscale>
<asrwt>0</asrwt>
<pdfrwt beam="1">  1        2 0.11456165E+00 0.21409018E+04</pdfrwt>
<pdfrwt beam="2">  1       -2 0.23673776E+00 0.21409018E+04</pdfrwt>
<totfact> 0.26971784E+00</totfact>
</mgrwt>
</event>
<event>
12    2  0.3518828E-008  0.1691440E+04  0.7818608E-02  0.8766261E-01
         -1   -1    0    0    0  501 -0.00000000000E+00  0.00000000000E+00  0.84649511867E+03  0.84649511867E+03  0.00000000000E+00 0.  1.
          1   -1    0    0  501    0  0.00000000000E+00 -0.00000000000E+00 -0.84494597481E+03  0.84494597481E+03  0.00000000000E+00 0. -1.
         23    2    1    2    0    0 -0.16593794970E+03 -0.35324706496E+03  0.45947766289E+03  0.60970722522E+03  0.91127853741E+02 0.  0.
        254    2    1    2    0    0  0.16593794970E+03  0.35324706496E+03 -0.45792851903E+03  0.10817338683E+04  0.89896092303E+03 0.  0.
         23    2    4    4    0    0 -0.41170237248E+02  0.26394798310E+03  0.22177269835E+03  0.35965957018E+03  0.93852812792E+02 0.  0.
         23    2    4    4    0    0  0.20710818695E+03  0.89299081866E+02 -0.67970121739E+03  0.72207429808E+03  0.92354858615E+02 0.  0.
          3    1    3    3  502    0 -0.13847674409E+03 -0.26002161733E+03  0.28446470062E+03  0.40952071502E+03  0.00000000000E+00 0. -1.
         -3    1    3    3    0  502 -0.27461205608E+02 -0.93225447634E+02  0.17501296228E+03  0.20018651020E+03  0.00000000000E+00 0.  1.
         11    1    5    5    0    0 -0.27544888137E+02  0.13292018036E+02  0.13284952225E+02  0.33344993052E+02  0.00000000000E+00 0. -1.
        -11    1    5    5    0    0 -0.13625349110E+02  0.25065596506E+03  0.20848774613E+03  0.32631457713E+03  0.00000000000E+00 0.  1.
          4    1    6    6  503    0  0.14485000561E+03  0.13328286344E+02 -0.41143619678E+03  0.43639306979E+03  0.00000000000E+00 0. -1.
         -4    1    6    6    0  503  0.62258181341E+02  0.75970795522E+02 -0.26826502061E+03  0.28568122829E+03  0.00000000000E+00 0.  1.
<mgrwt>
<rscale>  0 0.16914404E+04</rscale>
<asrwt>0</asrwt>
<pdfrwt beam="1">  1        1 0.12999169E+00 0.16914404E+04</pdfrwt>
<pdfrwt beam="2">  1       -1 0.13023002E+00 0.16914404E+04</pdfrwt>
<totfact> 0.97264344E+00</totfact>
</mgrwt>
</event>
<event>
12    2  0.3518828E-008  0.1661673E+04  0.7818608E-02  0.8783530E-01
          2   -1    0    0  501    0  0.00000000000E+00  0.00000000000E+00  0.21076140423E+04  0.21076140423E+04  0.00000000000E+00 0. -1.
         -2   -1    0    0    0  501 -0.00000000000E+00 -0.00000000000E+00 -0.32752187281E+03  0.32752187281E+03  0.00000000000E+00 0.  1.
         23    2    1    2    0    0 -0.47780126838E+03  0.25255709721E+03  0.29850163900E+03  0.62388334532E+03  0.89710984101E+02 0.  0.
        254    2    1    2    0    0  0.47780126838E+03 -0.25255709721E+03  0.14815905305E+04  0.18112525698E+04  0.89075598911E+03 0.  0.
         23    2    4    4    0    0  0.64794526016E+03 -0.18307427695E+03  0.14546184949E+04  0.16056485942E+04  0.94038244083E+02 0.  0.
         23    2    4    4    0    0 -0.17014399179E+03 -0.69482820264E+02  0.26972035615E+02  0.20560397560E+03  0.88140023970E+02 0.  0.
          3    1    3    3  502    0 -0.43957759534E+02  0.27032956318E+02  0.62193896391E+02  0.80815506549E+02  0.00000000000E+00 0. -1.
         -3    1    3    3    0  502 -0.43384350884E+03  0.22552414089E+03  0.23630774261E+03  0.54306783877E+03  0.00000000000E+00 0.  1.
         11    1    5    5    0    0  0.18812303692E+03 -0.80691317137E+02  0.52470063635E+03  0.56321587643E+03  0.00000000000E+00 0.  1.
        -11    1    5    5    0    0  0.45982222325E+03 -0.10238295981E+03  0.92991785853E+03  0.10424327178E+04  0.00000000000E+00 0. -1.
          2    1    6    6  503    0 -0.10617347718E+03 -0.84919316485E+02  0.31782632305E+02  0.13962175076E+03  0.00000000000E+00 0. -1.
         -2    1    6    6    0  503 -0.63970514610E+02  0.15436496222E+02 -0.48105966902E+01  0.65982224846E+02  0.00000000000E+00 0.  1.
<mgrwt>
<rscale>  0 0.16616735E+04</rscale>
<asrwt>0</asrwt>
<pdfrwt beam="1">  1        2 0.32424831E+00 0.16616735E+04</pdfrwt>
<pdfrwt beam="2">  1       -2 0.50387982E-01 0.16616735E+04</pdfrwt>
<totfact> 0.20692587E+01</totfact>
</mgrwt>
</event>
<event>
12    2  0.3518828E-008  0.1942548E+04  0.7818608E-02  0.8633963E-01
         -1   -1    0    0    0  501 -0.00000000000E+00  0.00000000000E+00  0.50147779857E+03  0.50147779857E+03  0.00000000000E+00 0.  1.
          1   -1    0    0  501    0  0.00000000000E+00 -0.00000000000E+00 -0.18811863975E+04  0.18811863975E+04  0.00000000000E+00 0. -1.
         23    2    1    2    0    0  0.42850041969E+03  0.40862238956E+03  0.29020444896E+02  0.60002472568E+03  0.92750300703E+02 0.  0.
        254    2    1    2    0    0 -0.42850041969E+03 -0.40862238956E+03 -0.14087290438E+04  0.17826394704E+04  0.91798752475E+03 0.  0.
         23    2    4    4    0    0 -0.53785127896E+03 -0.56174837548E+03 -0.13578829667E+04  0.15675459528E+04  0.92243845761E+02 0.  0.
         23    2    4    4    0    0  0.10935085927E+03  0.15312598592E+03 -0.50846077098E+02  0.21509351763E+03  0.90965486769E+02 0.  0.
          1    1    3    3  502    0  0.10709601773E+03  0.67028482689E+02 -0.21951946418E+02  0.12823518416E+03  0.00000000000E+00 0. -1.
         -1    1    3    3    0  502  0.32140440197E+03  0.34159390687E+03  0.50972391314E+02  0.47178954152E+03  0.00000000000E+00 0.  1.
         11    1    5    5    0    0 -0.28199447441E+03 -0.36024745494E+03 -0.79398343759E+03  0.91635626891E+03  0.00000000000E+00 0. -1.
        -11    1    5    5    0    0 -0.25585680455E+03 -0.20150092053E+03 -0.56389952915E+03  0.65118968388E+03  0.00000000000E+00 0.  1.
          1    1    6    6  503    0  0.20682797987E+02 -0.34130312983E+01 -0.26126076693E+02  0.33496250515E+02  0.00000000000E+00 0.  1.
         -1    1    6    6    0  503  0.88668061283E+02  0.15653901722E+03 -0.24720000404E+02  0.18159726712E+03  0.00000000000E+00 0. -1.
<mgrwt>
<rscale>  0 0.19425480E+04</rscale>
<asrwt>0</asrwt>
<pdfrwt beam="1">  1        1 0.28941330E+00 0.19425480E+04</pdfrwt>
<pdfrwt beam="2">  1       -1 0.77150429E-01 0.19425480E+04</pdfrwt>
<totfact> 0.56347337E+00</totfact>
</mgrwt>
</event>
<event>
12    2  0.3518828E-008  0.1899942E+04  0.7818608E-02  0.8654885E-01
         -2   -1    0    0    0  501 -0.00000000000E+00  0.00000000000E+00  0.62335911068E+03  0.62335911068E+03  0.00000000000E+00 0.  1.
          2   -1    0    0  501    0  0.00000000000E+00 -0.00000000000E+00 -0.14477127672E+04  0.14477127672E+04  0.00000000000E+00 0. -1.
         23    2    1    2    0    0  0.43249457961E+03  0.51002968713E+03 -0.66265739384E+03  0.94597100823E+03  0.92544495485E+02 0.  0.
        254    2    1    2    0    0 -0.43249457961E+03 -0.51002968713E+03 -0.16169626268E+03  0.11251008696E+04  0.89023841884E+03 0.  0.
         23    2    4    4    0    0 -0.34746829721E+02 -0.47406300998E+02  0.32270431018E+03  0.34063898054E+03  0.91881139022E+02 0.  0.
         23    2    4    4    0    0 -0.39774774989E+03 -0.46262338613E+03 -0.48440057286E+03  0.78446188911E+03  0.92265218461E+02 0.  0.
          1    1    3    3  502    0  0.74434535474E+02  0.11468177119E+03 -0.91690035334E+02  0.16461917050E+03  0.00000000000E+00 0. -1.
         -1    1    3    3    0  502  0.35806004414E+03  0.39534791594E+03 -0.57096735851E+03  0.78135183773E+03  0.00000000000E+00 0.  1.
         11    1    5    5    0    0 -0.39069178249E+02 -0.61871907625E+02  0.14619833276E+03  0.16348848933E+03  0.00000000000E+00 0.  1.
        -11    1    5    5    0    0  0.43223485280E+01  0.14465606627E+02  0.17650597742E+03  0.17715049121E+03  0.00000000000E+00 0. -1.
          4    1    6    6  503    0 -0.57547420067E+02 -0.11776745985E+03 -0.81122699344E+02  0.15414854039E+03  0.00000000000E+00 0. -1.
         -4    1    6    6    0  503 -0.34020032982E+03 -0.34485592628E+03 -0.40327787351E+03  0.63031334871E+03  0.00000000000E+00 0.  1.
<mgrwt>
<rscale>  0 0.18999420E+04</rscale>
<asrwt>0</asrwt>
<pdfrwt beam="1">  1        2 0.22272504E+00 0.18999420E+04</pdfrwt>
<pdfrwt beam="2">  1       -2 0.95901403E-01 0.18999420E+04</pdfrwt>
<totfact> 0.11604942E+01</totfact>
</mgrwt>
</event>
<event>
12    2  0.3518828E-008  0.2301469E+04  0.7818608E-02  0.8477342E-01
         -2   -1    0    0    0  501 -0.00000000000E+00  0.00000000000E+00  0.12131439962E+04  0.12131439962E+04  0.00000000000E+00 0.  1.
          2   -1    0    0  501    0  0.00000000000E+00 -0.00000000000E+00 -0.10915354852E+04  0.10915354852E+04  0.00000000000E+00 0. -1.
         23    2    1    2    0    0  0.40429785850E+03 -0.81026939025E+03 -0.30051848188E+03  0.95818280162E+03  0.88372395085E+02 0.  0.
        254    2    1    2    0    0 -0.40429785850E+03  0.81026939025E+03  0.42212699291E+03  0.13464966798E+04  0.90270087364E+03 0.  0.
         23    2    4    4    0    0 -0.28285761688E+03  0.69324093965E+03  0.68676204764E+03  0.10201193121E+04  0.91705338485E+02 0.  0.
         23    2    4    4    0    0 -0.12144024163E+03  0.11702845060E+03 -0.26463505472E+03  0.32637736761E+03  0.89705536974E+02 0.  0.
          4    1    3    3  502    0  0.36975403087E+03 -0.67336730781E+03 -0.24300148233E+03  0.80572408117E+03  0.00000000000E+00 0. -1.
         -4    1    3    3    0  502  0.34543827635E+02 -0.13690208244E+03 -0.57516999552E+02  0.15245872045E+03  0.00000000000E+00 0.  1.
         11    1    5    5    0    0 -0.19586969811E+03  0.56020110653E+03  0.57033436223E+03  0.82308657086E+03  0.00000000000E+00 0.  1.
        -11    1    5    5    0    0 -0.86987918769E+02  0.13303983311E+03  0.11642768541E+03  0.19703274128E+03  0.00000000000E+00 0. -1.
          4    1    6    6  503    0 -0.40356768771E+02  0.96952619953E+02 -0.17303162348E+03  0.20240657604E+03  0.00000000000E+00 0. -1.
         -4    1    6    6    0  503 -0.81083472855E+02  0.20075830650E+02 -0.91603431242E+02  0.12397079157E+03  0.00000000000E+00 0.  1.
<mgrwt>
<rscale>  0 0.23014689E+04</rscale>
<asrwt>0</asrwt>
<pdfrwt beam="1">  1        2 0.16792854E+00 0.23014689E+04</pdfrwt>
<pdfrwt beam="2">  1       -2 0.18663754E+00 0.23014689E+04</pdfrwt>
<totfact> 0.32640986E+00</totfact>
</mgrwt>
</event>
<event>
12    2  0.3518828E-008  0.4485907E+04  0.7818608E-02  0.7913109E-01
          2   -1    0    0  501    0  0.00000000000E+00  0.00000000000E+00  0.31027227199E+04  0.31027227199E+04  0.00000000000E+00 0. -1.
         -2   -1    0    0    0  501 -0.00000000000E+00 -0.00000000000E+00 -0.16214277332E+04  0.16214277332E+04  0.00000000000E+00 0.  1.
         23    2    1    2    0    0 -0.85971465863E+02 -0.21497647456E+04  0.72436411831E+03  0.22719895596E+04  0.91398186268E+02 0.  0.
        254    2    1    2    0    0  0.85971465863E+02  0.21497647456E+04  0.75693086841E+03  0.24521608936E+04  0.90070480954E+03 0.  0.
         23    2    4    4    0    0 -0.29817986592E+03  0.12476692055E+04  0.14881261735E+03  0.12945748862E+04  0.90494541792E+02 0.  0.
         23    2    4    4    0    0  0.38415133178E+03  0.90209554012E+03  0.60811825106E+03  0.11575860074E+04  0.94068846976E+02 0.  0.
          2    1    3    3  502    0 -0.40914004076E+02 -0.12456089329E+04  0.37281202718E+03  0.13008475610E+04  0.00000000000E+00 0.  1.
         -2    1    3    3    0  502 -0.45057461787E+02 -0.90415581275E+03  0.35155209113E+03  0.97114199857E+03  0.00000000000E+00 0. -1.
         11    1    5    5    0    0 -0.22640406273E+03  0.10721972494E+04  0.11315876369E+03  0.11016672124E+04  0.00000000000E+00 0.  1.
        -11    1    5    5    0    0 -0.71775803186E+02  0.17547195614E+03  0.35653853660E+02  0.19290767376E+03  0.00000000000E+00 0. -1.
          2    1    6    6  503    0  0.11343204345E+03  0.22903102165E+03  0.20501563494E+03  0.32764836018E+03  0.00000000000E+00 0. -1.
         -2    1    6    6    0  503  0.27071928833E+03  0.67306451847E+03  0.40310261612E+03  0.82993764719E+03  0.00000000000E+00 0.  1.
<mgrwt>
<rscale>  0 0.44859071E+04</rscale>
<asrwt>0</asrwt>
<pdfrwt beam="1">  1        2 0.47734196E+00 0.44859071E+04</pdfrwt>
<pdfrwt beam="2">  1       -2 0.24945042E+00 0.44859071E+04</pdfrwt>
<totfact> 0.73579789E-02</totfact>
</mgrwt>
</event>
<event>
12    2  0.3518828E-008  0.3249603E+04  0.7818608E-02  0.8175838E-01
         -2   -1    0    0    0  501 -0.00000000000E+00  0.00000000000E+00  0.18216355501E+04  0.18216355501E+04  0.00000000000E+00 0.  1.
          2   -1    0    0  501    0  0.00000000000E+00 -0.00000000000E+00 -0.14492364693E+04  0.14492364693E+04  0.00000000000E+00 0. -1.
         23    2    1    2    0    0  0.12189890214E+04  0.13790746320E+03 -0.68595053729E+03  0.14090373236E+04  0.99525558947E+02 0.  0.
        254    2    1    2    0    0 -0.12189890214E+04 -0.13790746320E+03  0.10583496181E+04  0.18618346959E+04  0.91726322175E+03 0.  0.
         23    2    4    4    0    0  0.39691310340E+02 -0.10548234194E+03  0.42641335817E+03  0.45014451474E+03  0.89998930823E+02 0.  0.
         23    2    4    4    0    0 -0.12586803317E+04 -0.32425121259E+02  0.63193625991E+03  0.14116901811E+04  0.90543718265E+02 0.  0.
          1    1    3    3  502    0  0.87990104635E+03  0.94834733954E+02 -0.44301041727E+03  0.98968566118E+03  0.00000000000E+00 0. -1.
         -1    1    3    3    0  502  0.33908797504E+03  0.43072729241E+02 -0.24294012002E+03  0.41935166238E+03  0.00000000000E+00 0.  1.
         11    1    5    5    0    0  0.27161730316E+02 -0.10261184076E+03  0.23001082636E+03  0.25332179081E+03  0.00000000000E+00 0. -1.
        -11    1    5    5    0    0  0.12529580024E+02 -0.28705011731E+01  0.19640253182E+03  0.19682272393E+03  0.00000000000E+00 0.  1.
          4    1    6    6  503    0 -0.11274796482E+04 -0.35491435081E+02  0.53465276892E+03  0.12483283151E+04  0.00000000000E+00 0. -1.
         -4    1    6    6    0  503 -0.13120068357E+03  0.30663138217E+01  0.97283490988E+02  0.16336186602E+03  0.00000000000E+00 0.  1.
<mgrwt>
<rscale>  0 0.32496035E+04</rscale>
<asrwt>0</asrwt>
<pdfrwt beam="1">  1        2 0.22295946E+00 0.32496035E+04</pdfrwt>
<pdfrwt beam="2">  1       -2 0.28025162E+00 0.32496035E+04</pdfrwt>
<totfact> 0.47731867E-01</totfact>
</mgrwt>
</event>
<event>
12    2  0.3518828E-008  0.1431391E+04  0.7818608E-02  0.8931404E-01
          2   -1    0    0  501    0  0.00000000000E+00  0.00000000000E+00  0.14321464470E+04  0.14321464470E+04  0.00000000000E+00 0. -1.
         -2   -1    0    0    0  501 -0.00000000000E+00 -0.00000000000E+00 -0.35765898511E+03  0.35765898511E+03  0.00000000000E+00 0.  1.
         23    2    1    2    0    0  0.20589040928E+03 -0.32156835711E+03  0.56644010031E+03  0.68890088919E+03  0.89067272152E+02 0.  0.
        254    2    1    2    0    0 -0.20589040928E+03  0.32156835711E+03  0.50804736163E+03  0.11009045430E+04  0.89893360275E+03 0.  0.
         23    2    4    4    0    0 -0.11792238478E+03 -0.29806573357E+03  0.90777386248E+02  0.34351421854E+03  0.83741352529E+02 0.  0.
         23    2    4    4    0    0 -0.87968024503E+02  0.61963409067E+03  0.41726997538E+03  0.75739032443E+03  0.88549938095E+02 0.  0.
          3    1    3    3  502    0  0.21241160240E+03 -0.32028024809E+03  0.54825009423E+03  0.66953438446E+03  0.00000000000E+00 0. -1.
         -3    1    3    3    0  502 -0.65211931193E+01 -0.12881090186E+01  0.18190006072E+02  0.19366504730E+02  0.00000000000E+00 0.  1.
         11    1    5    5    0    0 -0.79823457862E+02 -0.93125037977E+02  0.39354794873E+02  0.12881326408E+03  0.00000000000E+00 0.  1.
        -11    1    5    5    0    0 -0.38098926920E+02 -0.20494069559E+03  0.51422591375E+02  0.21470095446E+03  0.00000000000E+00 0. -1.
          2    1    6    6  503    0 -0.98246240400E+02  0.58197155419E+03  0.37220892574E+03  0.69776980304E+03  0.00000000000E+00 0. -1.
         -2    1    6    6    0  503  0.10278215898E+02  0.37662536481E+02  0.45061049641E+02  0.59620521391E+02  0.00000000000E+00 0.  1.
<mgrwt>
<rscale>  0 0.14313910E+04</rscale>
<asrwt>0</asrwt>
<pdfrwt beam="1">  1        2 0.22033022E+00 0.14313910E+04</pdfrwt>
<pdfrwt beam="2">  1       -2 0.55024460E-01 0.14313910E+04</pdfrwt>
<totfact> 0.41832793E+01</totfact>
</mgrwt>
</event>
<event>
12    2  0.3518828E-008  0.1275729E+04  0.7818608E-02  0.9049037E-01
          2   -1    0    0  501    0  0.00000000000E+00  0.00000000000E+00  0.26675509325E+04  0.26675509325E+04  0.00000000000E+00 0. -1.
         -2   -1    0    0    0  501 -0.00000000000E+00 -0.00000000000E+00 -0.15252603408E+03  0.15252603408E+03  0.00000000000E+00 0.  1.
         23    2    1    2    0    0 -0.29367812124E+03  0.15313871159E+03  0.97677893387E+03  0.10354306449E+04  0.91220781043E+02 0.  0.
        254    2    1    2    0    0  0.29367812124E+03 -0.15313871159E+03  0.15382459646E+04  0.17846463217E+04  0.84205910843E+03 0.  0.
         23    2    4    4    0    0  0.86925908154E+02 -0.16410505658E+03 -0.23281883442E+02  0.20685714034E+03  0.88097941576E+02 0.  0.
         23    2    4    4    0    0  0.20675221308E+03  0.10966344991E+02  0.15615278480E+04  0.15777891814E+04  0.90458511439E+02 0.  0.
          3    1    3    3  502    0 -0.25378212272E+03  0.13840273170E+03  0.92092601903E+03  0.96522816706E+03  0.00000000000E+00 0. -1.
         -3    1    3    3    0  502 -0.39895998519E+02  0.14735979885E+02  0.55852914836E+02  0.70202477853E+02  0.00000000000E+00 0.  1.
         11    1    5    5    0    0  0.59335908294E+02 -0.15074065884E+03  0.91150954693E+01  0.16225468007E+03  0.00000000000E+00 0. -1.
        -11    1    5    5    0    0  0.27589999860E+02 -0.13364397739E+02 -0.32396978911E+02  0.44602460266E+02  0.00000000000E+00 0.  1.
          3    1    6    6  503    0  0.18919223777E+03  0.90829966791E+01  0.15297668420E+04  0.15414482783E+04  0.00000000000E+00 0. -1.
         -3    1    6    6    0  503  0.17559975315E+02  0.18833483120E+01  0.31761006030E+02  0.36340903098E+02  0.00000000000E+00 0.  1.
<mgrwt>
<rscale>  0 0.12757288E+04</rscale>
<asrwt>0</asrwt>
<pdfrwt beam="1">  1        2 0.41039242E+00 0.12757288E+04</pdfrwt>
<pdfrwt beam="2">  1       -2 0.23465546E-01 0.12757288E+04</pdfrwt>
<totfact> 0.44158695E+01</totfact>
</mgrwt>
</event>
<event>
12    2  0.3518828E-008  0.1976625E+04  0.7818608E-02  0.8617628E-01
          2   -1    0    0  501    0  0.00000000000E+00  0.00000000000E+00  0.19835741944E+04  0.19835741944E+04  0.00000000000E+00 0. -1.
         -2   -1    0    0    0  501 -0.00000000000E+00 -0.00000000000E+00 -0.49242485880E+03  0.49242485880E+03  0.00000000000E+00 0.  1.
         23    2    1    2    0    0  0.53517841234E+03  0.53364463299E+03  0.81953519374E+03  0.11187853043E+04  0.94074948893E+02 0.  0.
        254    2    1    2    0    0 -0.53517841234E+03 -0.53364463299E+03  0.67161414186E+03  0.13572137489E+04  0.90541210354E+03 0.  0.
         23    2    4    4    0    0 -0.22032872168E+03 -0.44590177695E+03  0.83821294171E+03  0.97925852376E+03  0.94726872774E+02 0.  0.
         23    2    4    4    0    0 -0.31484969066E+03 -0.87742856049E+02 -0.16659879985E+03  0.37795522512E+03  0.90916750838E+02 0.  0.
          3    1    3    3  502    0  0.53879305777E+03  0.52876470917E+03  0.80821610663E+03  0.11059400308E+04  0.00000000000E+00 0. -1.
         -3    1    3    3    0  502 -0.36146454235E+01  0.48799238231E+01  0.11319087105E+02  0.12845273487E+02  0.00000000000E+00 0.  1.
         11    1    5    5    0    0 -0.27176846493E+02 -0.95428627611E+01  0.40256500761E+02  0.49499828975E+02  0.00000000000E+00 0. -1.
        -11    1    5    5    0    0 -0.19315187519E+03 -0.43635891418E+03  0.79795644095E+03  0.92975869479E+03  0.00000000000E+00 0.  1.
          2    1    6    6  503    0  0.18000392523E+00 -0.75246529014E+01 -0.19956031652E+02  0.21328291117E+02  0.00000000000E+00 0. -1.
         -2    1    6    6    0  503 -0.31502969459E+03 -0.80218203147E+02 -0.14664276820E+03  0.35662693400E+03  0.00000000000E+00 0.  1.
<mgrwt>
<rscale>  0 0.19766246E+04</rscale>
<asrwt>0</asrwt>
<pdfrwt beam="1">  1        2 0.30516526E+00 0.19766246E+04</pdfrwt>
<pdfrwt beam="2">  1       -2 0.75757671E-01 0.19766246E+04</pdfrwt>
<totfact> 0.99169228E+00</totfact>
</mgrwt>
</event>
<event>
12    2  0.3518828E-008  0.1617124E+04  0.7818608E-02  0.8810097E-01
          2   -1    0    0  501    0  0.00000000000E+00  0.00000000000E+00  0.53483406098E+03  0.53483406098E+03  0.00000000000E+00 0. -1.
         -2   -1    0    0    0  501 -0.00000000000E+00 -0.00000000000E+00 -0.12223832258E+04  0.12223832258E+04  0.00000000000E+00 0.  1.
         23    2    1    2    0    0 -0.32856802216E+03  0.41901933754E+03 -0.43782986187E+03  0.69569660996E+03  0.93619628002E+02 0.  0.
        254    2    1    2    0    0  0.32856802216E+03 -0.41901933754E+03 -0.24971930292E+03  0.10615206768E+04  0.88370372104E+03 0.  0.
         23    2    4    4    0    0  0.39263905199E+03  0.16562980339E+03 -0.12663859022E+03  0.45386634707E+03  0.91425770715E+02 0.  0.
         23    2    4    4    0    0 -0.64071029830E+02 -0.58464914093E+03 -0.12308071270E+03  0.60765432972E+03  0.90416855311E+02 0.  0.
          2    1    3    3  502    0 -0.33250653155E+02  0.42380094566E+02 -0.86795489321E+02  0.10215251009E+03  0.00000000000E+00 0. -1.
         -2    1    3    3    0  502 -0.29531736900E+03  0.37663924297E+03 -0.35103437255E+03  0.59354409988E+03  0.00000000000E+00 0.  1.
         11    1    5    5    0    0  0.29907674297E+03  0.91595759841E+02 -0.11777627235E+03  0.33422736533E+03  0.00000000000E+00 0.  1.
        -11    1    5    5    0    0  0.93562309014E+02  0.74034043552E+02 -0.88623178682E+01  0.11963898174E+03  0.00000000000E+00 0. -1.
          1    1    6    6  503    0 -0.23374537076E+02 -0.49890606334E+03 -0.92566780904E+02  0.50795889396E+03  0.00000000000E+00 0. -1.
         -1    1    6    6    0  503 -0.40696492754E+02 -0.85743077594E+02 -0.30513931796E+02  0.99695435760E+02  0.00000000000E+00 0.  1.
<mgrwt>
<rscale>  0 0.16171236E+04</rscale>
<asrwt>0</asrwt>
<pdfrwt beam="1">  1        2 0.82282164E-01 0.16171236E+04</pdfrwt>
<pdfrwt beam="2">  1       -2 0.18805896E+00 0.16171236E+04</pdfrwt>
<totfact> 0.86961642E+00</totfact>
</mgrwt>
</event>
<event>
12    2  0.3518828E-008  0.2020997E+04  0.7818608E-02  0.8596866E-01
          1   -1    0    0  501    0  0.00000000000E+00  0.00000000000E+00  0.15320585726E+04  0.15320585726E+04  0.00000000000E+00 0. -1.
         -1   -1    0    0    0  501 -0.00000000000E+00 -0.00000000000E+00 -0.66649362054E+03  0.66649362054E+03  0.00000000000E+00 0.  1.
         23    2    1    2    0    0  0.59950058174E+03 -0.16590206637E+03 -0.23187804271E+03  0.67008692068E+03  0.91239308678E+02 0.  0.
        254    2    1    2    0    0 -0.59950058174E+03  0.16590206637E+03  0.10974429948E+04  0.15284652725E+04  0.86307619550E+03 0.  0.
         23    2    4    4    0    0 -0.48887736081E+03  0.34081732203E+03  0.25280635153E+03  0.65396549049E+03  0.92748533479E+02 0.  0.
         23    2    4    4    0    0 -0.11062322093E+03 -0.17491525566E+03  0.84463664324E+03  0.87449978198E+03  0.92227793569E+02 0.  0.
          3    1    3    3  502    0  0.69521339536E+02 -0.22641775267E+02  0.24791270413E+01  0.73157451493E+02  0.00000000000E+00 0. -1.
         -3    1    3    3    0  502  0.52997924220E+03 -0.14326029111E+03 -0.23435716975E+03  0.59692946919E+03  0.00000000000E+00 0.  1.
         11    1    5    5    0    0 -0.20388300399E+03  0.19722296477E+03  0.10808703439E+03  0.30355886440E+03  0.00000000000E+00 0.  1.
        -11    1    5    5    0    0 -0.28499435682E+03  0.14359435726E+03  0.14471931713E+03  0.35040662609E+03  0.00000000000E+00 0. -1.
          2    1    6    6  503    0 -0.21223266554E+02 -0.88517897232E+02  0.49779220598E+03  0.50604636695E+03  0.00000000000E+00 0. -1.
         -2    1    6    6    0  503 -0.89399954372E+02 -0.86397358425E+02  0.34684443727E+03  0.36845341503E+03  0.00000000000E+00 0.  1.
<mgrwt>
<rscale>  0 0.20209970E+04</rscale>
<asrwt>0</asrwt>
<pdfrwt beam="1">  1        1 0.23570132E+00 0.20209970E+04</pdfrwt>
<pdfrwt beam="2">  1       -1 0.10253748E+00 0.20209970E+04</pdfrwt>
<totfact> 0.51775547E+00</totfact>
</mgrwt>
</event>
<event>
12    2  0.3518828E-008  0.3340189E+04  0.7818608E-02  0.8152744E-01
         -2   -1    0    0    0  501 -0.00000000000E+00  0.00000000000E+00  0.73138173566E+03  0.73138173566E+03  0.00000000000E+00 0. -1.
          2   -1    0    0  501    0  0.00000000000E+00 -0.00000000000E+00 -0.38136241070E+04  0.38136241070E+04  0.00000000000E+00 0.  1.
         23    2    1    2    0    0 -0.32758081858E+03 -0.11714711546E+04 -0.13483951763E+03  0.12272229662E+04  0.90778051265E+02 0.  0.
        254    2    1    2    0    0  0.32758081858E+03  0.11714711546E+04 -0.29474028537E+04  0.33177828764E+04  0.91697643073E+03 0.  0.
         23    2    4    4    0    0  0.62270521689E+03  0.80332152271E+03 -0.17212308988E+04  0.20007918428E+04  0.86284038900E+02 0.  0.
         23    2    4    4    0    0 -0.29512439831E+03  0.36814963185E+03 -0.12261719549E+04  0.13169910336E+04  0.91297084876E+02 0.  0.
          3    1    3    3  502    0 -0.22218929241E+03 -0.74154431020E+03 -0.44163973929E+02  0.77537507198E+03  0.00000000000E+00 0. -1.
         -3    1    3    3    0  502 -0.10539152617E+03 -0.42992684436E+03 -0.90675543696E+02  0.45184789422E+03  0.00000000000E+00 0.  1.
         11    1    5    5    0    0  0.25202539646E+03  0.27193712074E+03 -0.57667894589E+03  0.68558384224E+03  0.00000000000E+00 0. -1.
        -11    1    5    5    0    0  0.37067982043E+03  0.53138440197E+03 -0.11445519529E+04  0.13152080006E+04  0.00000000000E+00 0.  1.
          2    1    6    6  503    0  0.57046288883E+01  0.16793195601E+02 -0.54942581147E+02  0.57734231028E+02  0.00000000000E+00 0. -1.
         -2    1    6    6    0  503 -0.30082902720E+03  0.35135643624E+03 -0.11712293737E+04  0.12592568025E+04  0.00000000000E+00 0.  1.
<mgrwt>
<rscale>  0 0.33401886E+04</rscale>
<asrwt>0</asrwt>
<pdfrwt beam="1">  1        2 0.58671140E+00 0.33401886E+04</pdfrwt>
<pdfrwt beam="2">  1       -2 0.11252027E+00 0.33401886E+04</pdfrwt>
<totfact> 0.24775185E-01</totfact>
</mgrwt>
</event>
<event>
12    2  0.3518828E-008  0.1647484E+04  0.7818608E-02  0.8791896E-01
         -2   -1    0    0    0  501 -0.00000000000E+00  0.00000000000E+00  0.69882789143E+03  0.69882789143E+03  0.00000000000E+00 0.  1.
          2   -1    0    0  501    0  0.00000000000E+00 -0.00000000000E+00 -0.97098468214E+03  0.97098468214E+03  0.00000000000E+00 0. -1.
         23    2    1    2    0    0 -0.35482234425E+03  0.39729164274E+03 -0.34214402067E+03  0.63953815156E+03  0.90592334343E+02 0.  0.
        254    2    1    2    0    0  0.35482234425E+03 -0.39729164274E+03  0.69987229968E+02  0.10302744220E+04  0.87910615225E+03 0.  0.
         23    2    4    4    0    0  0.45091092269E+03 -0.61649672977E+03  0.22989658419E+02  0.77040301286E+03  0.97996937724E+02 0.  0.
         23    2    4    4    0    0 -0.96088578441E+02  0.21920508703E+03  0.46997571549E+02  0.25987140916E+03  0.89668793231E+02 0.  0.
          4    1    3    3  502    0  0.41157227289E+01 -0.91099081800E+00 -0.23939254181E+01  0.48476753974E+01  0.00000000000E+00 0. -1.
         -4    1    3    3    0  502 -0.35893806698E+03  0.39820263356E+03 -0.33975009525E+03  0.63469047616E+03  0.00000000000E+00 0.  1.
         11    1    5    5    0    0  0.43186075436E+03 -0.56098864387E+03  0.16725244555E+01  0.70796523011E+03  0.00000000000E+00 0.  1.
        -11    1    5    5    0    0  0.19050168334E+02 -0.55508085908E+02  0.21317133963E+02  0.62437782753E+02  0.00000000000E+00 0. -1.
          2    1    6    6  503    0 -0.34241656489E+02  0.12278592290E+02  0.21866358098E+02  0.42442814282E+02  0.00000000000E+00 0. -1.
         -2    1    6    6    0  503 -0.61846921952E+02  0.20692649474E+03  0.25131213452E+02  0.21742859488E+03  0.00000000000E+00 0.  1.
<mgrwt>
<rscale>  0 0.16474844E+04</rscale>
<asrwt>0</asrwt>
<pdfrwt beam="1">  1        2 0.14938226E+00 0.16474844E+04</pdfrwt>
<pdfrwt beam="2">  1       -2 0.10751198E+00 0.16474844E+04</pdfrwt>
<totfact> 0.17453446E+01</totfact>
</mgrwt>
</event>
<event>
12    2  0.3518828E-008  0.1206507E+04  0.7818608E-02  0.9107180E-01
          1   -1    0    0  501    0  0.00000000000E+00  0.00000000000E+00  0.86918412622E+03  0.86918412622E+03  0.00000000000E+00 0. -1.
         -1   -1    0    0    0  501 -0.00000000000E+00 -0.00000000000E+00 -0.41868523756E+03  0.41868523756E+03  0.00000000000E+00 0.  1.
         23    2    1    2    0    0  0.26912865324E+02 -0.23663213956E+03  0.26164018534E+03  0.36527197807E+03  0.90823783144E+02 0.  0.
        254    2    1    2    0    0 -0.26912865324E+02  0.23663213956E+03  0.18885870333E+03  0.92259738571E+03  0.87109084171E+03 0.  0.
         23    2    4    4    0    0  0.13692272014E+03 -0.13251315436E+03 -0.24517236009E+03  0.32326515943E+03  0.89907228743E+02 0.  0.
         23    2    4    4    0    0 -0.16383558547E+03  0.36914529393E+03  0.43403106341E+03  0.59933222628E+03  0.87782722451E+02 0.  0.
          3    1    3    3  502    0  0.23495357271E+01 -0.22828368985E+03  0.24233318384E+03  0.33293292922E+03  0.00000000000E+00 0. -1.
         -3    1    3    3    0  502  0.24563329597E+02 -0.83484497127E+01  0.19307001493E+02  0.32339048844E+02  0.00000000000E+00 0.  1.
         11    1    5    5    0    0 -0.11664861680E+02 -0.20859990456E+02 -0.38467279023E+02  0.45287302363E+02  0.00000000000E+00 0.  1.
        -11    1    5    5    0    0  0.14858758182E+03 -0.11165316391E+03 -0.20670508106E+03  0.27797785707E+03  0.00000000000E+00 0. -1.
          4    1    6    6  503    0 -0.45254478568E+02  0.13873134789E+03  0.21600429063E+03  0.26067644368E+03  0.00000000000E+00 0.  1.
         -4    1    6    6    0  503 -0.11858110690E+03  0.23041394604E+03  0.21802677278E+03  0.33865578260E+03  0.00000000000E+00 0. -1.
<mgrwt>
<rscale>  0 0.12065066E+04</rscale>
<asrwt>0</asrwt>
<pdfrwt beam="1">  1        1 0.13372063E+00 0.12065066E+04</pdfrwt>
<pdfrwt beam="2">  1       -1 0.64413114E-01 0.12065066E+04</pdfrwt>
<totfact> 0.46665762E+01</totfact>
</mgrwt>
</event>
<event>
12    2  0.3518828E-008  0.3018015E+04  0.7818608E-02  0.8238605E-01
         -2   -1    0    0    0  501 -0.00000000000E+00  0.00000000000E+00  0.25390257172E+04  0.25390257172E+04  0.00000000000E+00 0.  1.
          2   -1    0    0  501    0  0.00000000000E+00 -0.00000000000E+00 -0.89684172084E+03  0.89684172084E+03  0.00000000000E+00 0. -1.
         23    2    1    2    0    0 -0.41948444042E+02  0.44438018574E+03 -0.72447356000E+03  0.85584459714E+03  0.91512916388E+02 0.  0.
        254    2    1    2    0    0  0.41948444042E+02 -0.44438018574E+03  0.23666575564E+04  0.25800228409E+04  0.92531964697E+03 0.  0.
         23    2    4    4    0    0 -0.41246260693E+03 -0.34876410226E+03  0.14122731703E+04  0.15147031270E+04  0.89712062091E+02 0.  0.
         23    2    4    4    0    0  0.45441105097E+03 -0.95616083487E+02  0.95438438606E+03  0.10653197140E+04  0.91786153259E+02 0.  0.
          3    1    3    3  502    0 -0.68010343187E+02  0.24769384291E+03 -0.39148879031E+03  0.46823190786E+03  0.00000000000E+00 0. -1.
         -3    1    3    3    0  502  0.26061899144E+02  0.19668634284E+03 -0.33298476969E+03  0.38761268928E+03  0.00000000000E+00 0.  1.
         11    1    5    5    0    0 -0.30072932893E+03 -0.29197252728E+03  0.10154342700E+04  0.10985412340E+04  0.00000000000E+00 0. -1.
        -11    1    5    5    0    0 -0.11173327800E+03 -0.56791574972E+02  0.39683890029E+03  0.41616189300E+03  0.00000000000E+00 0.  1.
          3    1    6    6  503    0  0.40162727661E+03 -0.54083360935E+02  0.79401183015E+03  0.89145065240E+03  0.00000000000E+00 0. -1.
         -3    1    6    6    0  503  0.52783774361E+02 -0.41532722552E+02  0.16037255591E+03  0.17386906156E+03  0.00000000000E+00 0.  1.
<mgrwt>
<rscale>  0 0.30180154E+04</rscale>
<asrwt>0</asrwt>
<pdfrwt beam="1">  1        2 0.13797565E+00 0.30180154E+04</pdfrwt>
<pdfrwt beam="2">  1       -2 0.39061934E+00 0.30180154E+04</pdfrwt>
<totfact> 0.21509582E-01</totfact>
</mgrwt>
</event>
<event>
12    2  0.3518828E-008  0.1764535E+04  0.7818608E-02  0.8725390E-01
          2   -1    0    0  501    0  0.00000000000E+00  0.00000000000E+00  0.10602110402E+04  0.10602110402E+04  0.00000000000E+00 0.  1.
         -2   -1    0    0    0  501 -0.00000000000E+00 -0.00000000000E+00 -0.73418999808E+03  0.73418999808E+03  0.00000000000E+00 0. -1.
         23    2    1    2    0    0  0.42093432841E+03 -0.46953838335E+03 -0.39757962389E+02  0.63819137400E+03  0.89752615534E+02 0.  0.
        254    2    1    2    0    0 -0.42093432841E+03  0.46953838335E+03  0.36577900454E+03  0.11562096643E+04  0.89742660169E+03 0.  0.
         23    2    4    4    0    0 -0.26614035996E+03  0.53012899858E+03 -0.13961744119E+03  0.61631054159E+03  0.92077182033E+02 0.  0.
         23    2    4    4    0    0 -0.15479396845E+03 -0.60590615227E+02  0.50539644573E+03  0.53989912273E+03  0.91831911944E+02 0.  0.
          3    1    3    3  502    0  0.59884926010E+02 -0.75460714643E+02 -0.38446069715E+02  0.10372378750E+03  0.00000000000E+00 0. -1.
         -3    1    3    3    0  502  0.36104940240E+03 -0.39407766871E+03 -0.13118926741E+01  0.53446758650E+03  0.00000000000E+00 0.  1.
         11    1    5    5    0    0 -0.23568720690E+03  0.38281201066E+03 -0.96015431565E+02  0.45968734821E+03  0.00000000000E+00 0.  1.
        -11    1    5    5    0    0 -0.30453153054E+02  0.14731698792E+03 -0.43602009620E+02  0.15662319337E+03  0.00000000000E+00 0. -1.
          3    1    6    6  503    0 -0.77011944067E+02  0.18052945783E+02  0.19864971874E+03  0.21381875300E+03  0.00000000000E+00 0. -1.
         -3    1    6    6    0  503 -0.77782024388E+02 -0.78643561010E+02  0.30674672699E+03  0.32608036973E+03  0.00000000000E+00 0.  1.
<mgrwt>
<rscale>  0 0.17645355E+04</rscale>
<asrwt>0</asrwt>
<pdfrwt beam="1">  1        2 0.16310939E+00 0.17645355E+04</pdfrwt>
<pdfrwt beam="2">  1       -2 0.11295231E+00 0.17645355E+04</pdfrwt>
<totfact> 0.13454510E+01</totfact>
</mgrwt>
</event>
<event>
12    2  0.3518828E-008  0.3362052E+04  0.7818608E-02  0.8147283E-01
          2   -1    0    0  501    0  0.00000000000E+00  0.00000000000E+00  0.17916420598E+04  0.17916420598E+04  0.00000000000E+00 0. -1.
         -2   -1    0    0    0  501 -0.00000000000E+00 -0.00000000000E+00 -0.15772390599E+04  0.15772390599E+04  0.00000000000E+00 0.  1.
         23    2    1    2    0    0  0.72371770709E+03 -0.11459082841E+04  0.87858152505E+03  0.16174385530E+04  0.85608770171E+02 0.  0.
        254    2    1    2    0    0 -0.72371770709E+03  0.11459082841E+04 -0.66417852506E+03  0.17514425667E+04  0.88856335510E+03 0.  0.
         23    2    4    4    0    0 -0.38981996646E+03  0.36778734666E+03  0.15963048504E+03  0.56656041122E+03  0.91003676807E+02 0.  0.
         23    2    4    4    0    0 -0.33389774064E+03  0.77812093745E+03 -0.82380901010E+03  0.11848821554E+04  0.91238931785E+02 0.  0.
          2    1    3    3  502    0  0.67002851903E+03 -0.10964601380E+04  0.83437682329E+03  0.15321056536E+04  0.00000000000E+00 0. -1.
         -2    1    3    3    0  502  0.53689188065E+02 -0.49448146100E+02  0.44204701756E+02  0.85332899430E+02  0.00000000000E+00 0.  1.
         11    1    5    5    0    0 -0.31992186733E+03  0.33238114986E+03  0.11153666287E+03  0.47462370057E+03  0.00000000000E+00 0. -1.
        -11    1    5    5    0    0 -0.69898099131E+02  0.35406196797E+02  0.48093822171E+02  0.91936710648E+02  0.00000000000E+00 0.  1.
          2    1    6    6  503    0 -0.69078140599E+02  0.23573987434E+03 -0.27965676796E+03  0.37222706206E+03  0.00000000000E+00 0. -1.
         -2    1    6    6    0  503 -0.26481960004E+03  0.54238106310E+03 -0.54415224214E+03  0.81265509338E+03  0.00000000000E+00 0.  1.
<mgrwt>
<rscale>  0 0.33620517E+04</rscale>
<asrwt>0</asrwt>
<pdfrwt beam="1">  1        2 0.27563724E+00 0.33620517E+04</pdfrwt>
<pdfrwt beam="2">  1       -2 0.24265216E+00 0.33620517E+04</pdfrwt>
<totfact> 0.51698774E-01</totfact>
</mgrwt>
</event>
<event>
12    2  0.3518828E-008  0.2496147E+04  0.7818608E-02  0.8404360E-01
         -1   -1    0    0    0  501 -0.00000000000E+00  0.00000000000E+00  0.73294470052E+03  0.73294470052E+03  0.00000000000E+00 0.  1.
          1   -1    0    0  501    0  0.00000000000E+00 -0.00000000000E+00 -0.21252451305E+04  0.21252451305E+04  0.00000000000E+00 0. -1.
         23    2    1    2    0    0 -0.34272259576E+03 -0.83803002981E+03 -0.12888684824E+04  0.15777193665E+04  0.90902837982E+02 0.  0.
        254    2    1    2    0    0  0.34272259576E+03  0.83803002981E+03 -0.10343194765E+03  0.12804704646E+04  0.89952950725E+03 0.  0.
         23    2    4    4    0    0  0.47388869913E+03  0.59229606315E+03  0.26585607898E+03  0.80903937630E+03  0.92087632659E+02 0.  0.
         23    2    4    4    0    0 -0.13116610336E+03  0.24573396667E+03 -0.36928802662E+03  0.47143108831E+03  0.91015907240E+02 0.  0.
          2    1    3    3  502    0 -0.91897080887E+02 -0.16893271021E+03 -0.22273653084E+03  0.29427010760E+03  0.00000000000E+00 0.  1.
         -2    1    3    3    0  502 -0.25082551488E+03 -0.66909731960E+03 -0.10661319515E+04  0.12834492589E+04  0.00000000000E+00 0. -1.
         11    1    5    5    0    0  0.17332365713E+03  0.19709543530E+03  0.47916292648E+02  0.26680268334E+03  0.00000000000E+00 0. -1.
        -11    1    5    5    0    0  0.30056504200E+03  0.39520062785E+03  0.21793978633E+03  0.54223669296E+03  0.00000000000E+00 0.  1.
          3    1    6    6  503    0 -0.12154905023E+02  0.74138954508E+02 -0.15484270614E+03  0.17210633322E+03  0.00000000000E+00 0.  1.
         -3    1    6    6    0  503 -0.11901119834E+03  0.17159501216E+03 -0.21444532049E+03  0.29932475508E+03  0.00000000000E+00 0. -1.
<mgrwt>
<rscale>  0 0.24961468E+04</rscale>
<asrwt>0</asrwt>
<pdfrwt beam="1">  1        1 0.32696078E+00 0.24961468E+04</pdfrwt>
<pdfrwt beam="2">  1       -1 0.11276073E+00 0.24961468E+04</pdfrwt>
<totfact> 0.15659797E+00</totfact>
</mgrwt>
</event>
<event>
12    2  0.3518828E-008  0.1338656E+04  0.7818608E-02  0.8999460E-01
          1   -1    0    0  501    0  0.00000000000E+00  0.00000000000E+00  0.98026088848E+03  0.98026088848E+03  0.00000000000E+00 0. -1.
         -1   -1    0    0    0  501 -0.00000000000E+00 -0.00000000000E+00 -0.45702103760E+03  0.45702103760E+03  0.00000000000E+00 0.  1.
         23    2    1    2    0    0  0.93953461621E+02  0.39145412088E+02  0.55100259148E+03  0.56767073055E+03  0.91030688615E+02 0.  0.
        254    2    1    2    0    0 -0.93953461621E+02 -0.39145412088E+02 -0.27762740604E+02  0.86961119553E+03  0.86318783900E+03 0.  0.
         23    2    4    4    0    0  0.30098231253E+03  0.20399034838E+03  0.82946352744E+02  0.38406045801E+03  0.91760139961E+02 0.  0.
         23    2    4    4    0    0 -0.39493577416E+03 -0.24313576046E+03 -0.11070909335E+03  0.48555073752E+03  0.91726504528E+02 0.  0.
          2    1    3    3  502    0  0.38495814686E+02 -0.14509667376E+02  0.75805940106E+02  0.86249630440E+02  0.00000000000E+00 0.  1.
         -2    1    3    3    0  502  0.55457646935E+02  0.53655079465E+02  0.47519665137E+03  0.48142110011E+03  0.00000000000E+00 0. -1.
         11    1    5    5    0    0  0.43730194955E+02  0.32012581929E+02 -0.20262711844E+02  0.57859423120E+02  0.00000000000E+00 0.  1.
        -11    1    5    5    0    0  0.25725211758E+03  0.17197776645E+03  0.10320906459E+03  0.32620103489E+03  0.00000000000E+00 0. -1.
          3    1    6    6  503    0 -0.38654751477E+03 -0.21896748605E+03 -0.11658625592E+03  0.45930174852E+03  0.00000000000E+00 0. -1.
         -3    1    6    6    0  503 -0.83882593827E+01 -0.24168274418E+02  0.58771625706E+01  0.26248989003E+02  0.00000000000E+00 0.  1.
<mgrwt>
<rscale>  0 0.13386558E+04</rscale>
<asrwt>0</asrwt>
<pdfrwt beam="1">  1        1 0.15080937E+00 0.13386558E+04</pdfrwt>
<pdfrwt beam="2">  1       -1 0.70310929E-01 0.13386558E+04</pdfrwt>
<totfact> 0.31414791E+01</totfact>
</mgrwt>
</event>
<event>
12    2  0.3518828E-008  0.1968252E+04  0.7818608E-02  0.8621610E-01
         -1   -1    0    0    0  501 -0.00000000000E+00  0.00000000000E+00  0.93483989790E+03  0.93483989790E+03  0.00000000000E+00 0.  1.
          1   -1    0    0  501    0  0.00000000000E+00 -0.00000000000E+00 -0.10360101647E+04  0.10360101647E+04  0.00000000000E+00 0. -1.
         23    2    1    2    0    0  0.46547883021E+03  0.37644728561E+03  0.45080947240E+03  0.75482128028E+03  0.90237932917E+02 0.  0.
        254    2    1    2    0    0 -0.46547883021E+03 -0.37644728561E+03 -0.55197973924E+03  0.12160287824E+04  0.90313967182E+03 0.  0.
         23    2    4    4    0    0  0.23429430431E+02 -0.31950786370E+03  0.13982773647E+03  0.36219277260E+03  0.94855655929E+02 0.  0.
         23    2    4    4    0    0 -0.48890826064E+03 -0.56939421907E+02 -0.69180747571E+03  0.85383600977E+03  0.90360185053E+02 0.  0.
          2    1    3    3  502    0  0.35731192228E+02  0.37658222135E+02  0.11745122057E+02  0.53224126903E+02  0.00000000000E+00 0. -1.
         -2    1    3    3    0  502  0.42974763798E+03  0.33878906347E+03  0.43906435034E+03  0.70159715337E+03  0.00000000000E+00 0.  1.
         11    1    5    5    0    0  0.59841518973E+02 -0.22126741452E+03  0.10055066137E+03  0.25030124175E+03  0.00000000000E+00 0. -1.
        -11    1    5    5    0    0 -0.36412088542E+02 -0.98240449186E+02  0.39277075100E+02  0.11189153085E+03  0.00000000000E+00 0.  1.
          1    1    6    6  503    0 -0.38753994897E+02  0.45184490892E+01 -0.22950853874E+02  0.45266214732E+02  0.00000000000E+00 0. -1.
         -1    1    6    6    0  503 -0.45015426574E+03 -0.61457870996E+02 -0.66885662183E+03  0.80856979504E+03  0.00000000000E+00 0.  1.
<mgrwt>
<rscale>  0 0.19682516E+04</rscale>
<asrwt>0</asrwt>
<pdfrwt beam="1">  1        1 0.15938618E+00 0.19682516E+04</pdfrwt>
<pdfrwt beam="2">  1       -1 0.14382152E+00 0.19682516E+04</pdfrwt>
<totfact> 0.51529119E+00</totfact>
</mgrwt>
</event>
<event>
12    2  0.3518828E-008  0.1743133E+04  0.7818608E-02  0.8737139E-01
         -1   -1    0    0    0  501 -0.00000000000E+00  0.00000000000E+00  0.55975723618E+03  0.55975723618E+03  0.00000000000E+00 0.  1.
          1   -1    0    0  501    0  0.00000000000E+00 -0.00000000000E+00 -0.13570673645E+04  0.13570673645E+04  0.00000000000E+00 0. -1.
         23    2    1    2    0    0 -0.15767708895E+03 -0.46437432202E+03 -0.73016408395E+03  0.88418263869E+03  0.90187436727E+02 0.  0.
        254    2    1    2    0    0  0.15767708895E+03  0.46437432202E+03 -0.67146044353E+02  0.10326419620E+04  0.90627548518E+03 0.  0.
         23    2    4    4    0    0 -0.80665039916E+02 -0.18615675043E+03 -0.22502531166E+03  0.31630653225E+03  0.90841879432E+02 0.  0.
         23    2    4    4    0    0  0.23834212887E+03  0.65053107245E+03  0.15787926731E+03  0.71633542973E+03  0.90625262606E+02 0.  0.
          1    1    3    3  502    0 -0.14255699097E+03 -0.46166206130E+03 -0.71066023799E+03  0.85935576356E+03  0.00000000000E+00 0. -1.
         -1    1    3    3    0  502 -0.15120097983E+02 -0.27122607204E+01 -0.19503845958E+02  0.24826875123E+02  0.00000000000E+00 0.  1.
         11    1    5    5    0    0 -0.20597996707E+02  0.18878212948E+01 -0.43321426140E+02  0.48006117323E+02  0.00000000000E+00 0. -1.
        -11    1    5    5    0    0 -0.60067043209E+02 -0.18804457173E+03 -0.18170388552E+03  0.26830041493E+03  0.00000000000E+00 0.  1.
          3    1    6    6  503    0  0.73563768140E+02  0.15280298177E+03  0.28966558042E+01  0.16961358977E+03  0.00000000000E+00 0. -1.
         -3    1    6    6    0  503  0.16477836073E+03  0.49772809068E+03  0.15498261150E+03  0.54672183996E+03  0.00000000000E+00 0.  1.
<mgrwt>
<rscale>  0 0.17431331E+04</rscale>
<asrwt>0</asrwt>
<pdfrwt beam="1">  1        1 0.20877959E+00 0.17431331E+04</pdfrwt>
<pdfrwt beam="2">  1       -1 0.86116499E-01 0.17431331E+04</pdfrwt>
<totfact> 0.10394638E+01</totfact>
</mgrwt>
</event>
