<event>
12    6  0.1510140E-007  0.2336668E+04  0.7818608E-02  0.8463602E-01
         -1   -1    0    0    0  501 -0.00000000000E+00  0.00000000000E+00  0.23301440812E+04  0.23301440812E+04  0.00000000000E+00 0.  1.
          2   -1    0    0  501    0  0.00000000000E+00 -0.00000000000E+00 -0.58580240980E+03  0.58580240980E+03  0.00000000000E+00 0. -1.
         24    2    1    2    0    0 -0.19522919687E+03 -0.10639447493E+03  0.19574072525E+04  0.19714783164E+04  0.76481216838E+02 0.  0.
        254    2    1    2    0    0  0.19522919687E+03  0.10639447493E+03 -0.21306558102E+03  0.94446817462E+03  0.89285439319E+03 0.  0.
         23    2    4    4    0    0  0.95814840161E+02  0.43337511834E+03  0.10963312079E+03  0.46560271799E+03  0.88158907874E+02 0.  0.
         23    2    4    4    0    0  0.99414356713E+02 -0.32698064340E+03 -0.32269870181E+03  0.47886545663E+03  0.91532059524E+02 0.  0.
          4    1    3    3  502    0 -0.28929443995E+01  0.94096696441E+01  0.55531993820E+02  0.56397813324E+02  0.00000000000E+00 0. -1.
         -3    1    3    3    0  502 -0.19233625247E+03 -0.11580414458E+03  0.19018752586E+04  0.19150805031E+04  0.00000000000E+00 0.  1.
         11    1    5    5    0    0  0.56658691058E+02  0.36993207272E+03  0.68527314375E+02  0.38046805190E+03  0.00000000000E+00 0. -1.
        -11    1    5    5    0    0  0.39156149103E+02  0.63443045613E+02  0.41105806412E+02  0.85134666089E+02  0.00000000000E+00 0.  1.
          3    1    6    6  503    0  0.89548226847E+02 -0.14500547299E+03 -0.13682756831E+03  0.21855721351E+03  0.00000000000E+00 0. -1.
         -3    1    6    6    0  503  0.98661298657E+01 -0.18197517042E+03 -0.18587113350E+03  0.26030824312E+03  0.00000000000E+00 0.  1.
<mgrwt>
<rscale>  0 0.23366677E+04</rscale>
<asrwt>0</asrwt>
<pdfrwt beam="1">  1        2 0.90123449E-01 0.23366677E+04</pdfrwt>
<pdfrwt beam="2">  1       -1 0.35848370E+00 0.23366677E+04</pdfrwt>
<totfact> 0.71913906E-01</totfact>
</mgrwt>
</event>
<event>
12    6  0.1510140E-007  0.1496547E+04  0.7818608E-02  0.8886752E-01
          2   -1    0    0  501    0  0.00000000000E+00  0.00000000000E+00  0.18245332546E+04  0.18245332546E+04  0.00000000000E+00 0. -1.
         -1   -1    0    0    0  501 -0.00000000000E+00 -0.00000000000E+00 -0.30688032854E+03  0.30688032854E+03  0.00000000000E+00 0.  1.
         24    2    1    2    0    0 -0.30479324293E+03  0.14314828100E+03  0.15389651926E+02  0.34656772368E+03  0.80510834195E+02 0.  0.
        254    2    1    2    0    0  0.30479324293E+03 -0.14314828100E+03  0.15022632741E+04  0.17848458594E+04  0.90304454261E+03 0.  0.
         23    2    4    4    0    0  0.43276468152E+03 -0.24445026812E+03  0.34401521032E+03  0.61165218852E+03  0.93438384135E+02 0.  0.
         23    2    4    4    0    0 -0.12797143859E+03  0.10130198712E+03  0.11582480638E+04  0.11731936709E+04  0.90587143277E+02 0.  0.
          2    1    3    3  502    0 -0.27146084372E+03  0.11789540238E+03  0.39047487971E+02  0.29852139269E+03  0.00000000000E+00 0. -1.
         -1    1    3    3    0  502 -0.33332399209E+02  0.25252878616E+02 -0.23657836045E+02  0.48046330992E+02  0.00000000000E+00 0.  1.
         11    1    5    5    0    0  0.34636788741E+03 -0.22791765462E+03  0.30841827953E+03  0.51675816961E+03  0.00000000000E+00 0.  1.
        -11    1    5    5    0    0  0.86396794112E+02 -0.16532613504E+02  0.35596930792E+02  0.94894018905E+02  0.00000000000E+00 0. -1.
          1    1    6    6  503    0 -0.40211046846E+02 -0.12671307053E+02  0.22340789105E+03  0.22735121749E+03  0.00000000000E+00 0. -1.
         -1    1    6    6    0  503 -0.87760391748E+02  0.11397329418E+03  0.93484017274E+03  0.94584245343E+03  0.00000000000E+00 0.  1.
<mgrwt>
<rscale>  0 0.14965472E+04</rscale>
<asrwt>0</asrwt>
<pdfrwt beam="1">  1        2 0.28069742E+00 0.14965472E+04</pdfrwt>
<pdfrwt beam="2">  1       -1 0.47212359E-01 0.14965472E+04</pdfrwt>
<totfact> 0.41203689E+01</totfact>
</mgrwt>
</event>
<event>
12    6  0.1510140E-007  0.2130904E+04  0.7818608E-02  0.8547751E-01
          2   -1    0    0  501    0  0.00000000000E+00  0.00000000000E+00  0.23684749522E+04  0.23684749522E+04  0.00000000000E+00 0. -1.
         -1   -1    0    0    0  501 -0.00000000000E+00 -0.00000000000E+00 -0.47929053817E+03  0.47929053817E+03  0.00000000000E+00 0.  1.
         24    2    1    2    0    0  0.48442945121E+03 -0.24998657646E+03  0.16882689307E+04  0.17759675131E+04  0.81507323184E+02 0.  0.
        254    2    1    2    0    0 -0.48442945121E+03  0.24998657646E+03  0.20091548333E+03  0.10717979772E+04  0.90067679607E+03 0.  0.
         23    2    4    4    0    0 -0.70706847594E+03  0.29847281393E+03  0.26644096327E+03  0.81756549954E+03  0.91600812270E+02 0.  0.
         23    2    4    4    0    0  0.22263902473E+03 -0.48486237471E+02 -0.65525479940E+02  0.25423247770E+03  0.91768805391E+02 0.  0.
          4    1    3    3  502    0  0.43896661070E+03 -0.22061580775E+03  0.14285307030E+04  0.15106498566E+04  0.00000000000E+00 0. -1.
         -3    1    3    3    0  502  0.45462840514E+02 -0.29370768711E+02  0.25973822769E+03  0.26531765650E+03  0.00000000000E+00 0.  1.
         11    1    5    5    0    0 -0.10586795380E+03  0.50089559363E+02  0.76583177762E+02  0.13993559488E+03  0.00000000000E+00 0.  1.
        -11    1    5    5    0    0 -0.60120052214E+03  0.24838325456E+03  0.18985778551E+03  0.67762990466E+03  0.00000000000E+00 0. -1.
          1    1    6    6  503    0  0.53880120046E+02 -0.10366974419E+02  0.23466580847E+02  0.59675974324E+02  0.00000000000E+00 0. -1.
         -1    1    6    6    0  503  0.16875890468E+03 -0.38119263052E+02 -0.88992060787E+02  0.19455650338E+03  0.00000000000E+00 0.  1.
<mgrwt>
<rscale>  0 0.21309037E+04</rscale>
<asrwt>0</asrwt>
<pdfrwt beam="1">  1        2 0.36438075E+00 0.21309037E+04</pdfrwt>
<pdfrwt beam="2">  1       -1 0.73737007E-01 0.21309037E+04</pdfrwt>
<totfact> 0.80324652E+00</totfact>
</mgrwt>
</event>
<event>
12    6  0.1510140E-007  0.1810167E+04  0.7818608E-02  0.8700911E-01
         -3   -1    0    0    0  501 -0.00000000000E+00  0.00000000000E+00  0.17292699311E+04  0.17292699311E+04  0.00000000000E+00 0.  1.
          2   -1    0    0  501    0  0.00000000000E+00 -0.00000000000E+00 -0.47371209628E+03  0.47371209628E+03  0.00000000000E+00 0. -1.
         24    2    1    2    0    0 -0.46820959999E+03 -0.31068787525E+03  0.79424683950E+02  0.57297599587E+03  0.79031804180E+02 0.  0.
        254    2    1    2    0    0  0.46820959999E+03  0.31068787525E+03  0.11761331508E+04  0.16300060315E+04  0.97871512137E+03 0.  0.
         23    2    4    4    0    0  0.81644649399E+02 -0.18732672266E+03 -0.65754489882E+02  0.23433526932E+03  0.93979868641E+02 0.  0.
         23    2    4    4    0    0  0.38656495059E+03  0.49801459791E+03  0.12418876407E+04  0.13956707622E+04  0.90338050703E+02 0.  0.
          2    1    3    3  502    0 -0.40198180350E+03 -0.29614874550E+03  0.76393336938E+02  0.50510334758E+03  0.00000000000E+00 0. -1.
         -1    1    3    3    0  502 -0.66227796486E+02 -0.14539129758E+02  0.30313470121E+01  0.67872648292E+02  0.00000000000E+00 0.  1.
         11    1    5    5    0    0  0.12446519797E+02  0.87678561662E+01  0.25957419035E+01  0.15444385155E+02  0.00000000000E+00 0. -1.
        -11    1    5    5    0    0  0.69198129602E+02 -0.19609457883E+03 -0.68350231786E+02  0.21889088416E+03  0.00000000000E+00 0.  1.
          4    1    6    6  503    0  0.57188968273E+01  0.50279829376E+01  0.16819688294E+01  0.77984237180E+01  0.00000000000E+00 0. -1.
         -4    1    6    6    0  503  0.38084605376E+03  0.49298661498E+03  0.12402056719E+04  0.13878723384E+04  0.00000000000E+00 0.  1.
<mgrwt>
<rscale>  0 0.18101669E+04</rscale>
<asrwt>0</asrwt>
<pdfrwt beam="1">  1        2 0.72878785E-01 0.18101669E+04</pdfrwt>
<pdfrwt beam="2">  1       -3 0.26604152E+00 0.18101669E+04</pdfrwt>
<totfact> 0.22819278E+00</totfact>
</mgrwt>
</event>
<event>
12    6  0.1510140E-007  0.1933837E+04  0.7818608E-02  0.8638194E-01
          2   -1    0    0  501    0  0.00000000000E+00  0.00000000000E+00  0.15358829707E+04  0.15358829707E+04  0.00000000000E+00 0. -1.
         -1   -1    0    0    0  501 -0.00000000000E+00 -0.00000000000E+00 -0.60872568698E+03  0.60872568698E+03  0.00000000000E+00 0.  1.
         24    2    1    2    0    0 -0.31761541889E+03  0.64845527757E+03  0.10601092259E+03  0.73413975425E+03  0.79680999878E+02 0.  0.
        254    2    1    2    0    0  0.31761541889E+03 -0.64845527757E+03  0.82114636108E+03  0.14104689034E+04  0.89093623776E+03 0.  0.
         23    2    4    4    0    0  0.74530051990E+02 -0.57820692617E+03  0.94516346637E+03  0.11143038089E+04  0.91983814645E+02 0.  0.
         23    2    4    4    0    0  0.24308536690E+03 -0.70248351398E+02 -0.12401710529E+03  0.29616509452E+03  0.91149296940E+02 0.  0.
          4    1    3    3  502    0 -0.55547871153E+01  0.22459157701E+02  0.17680720776E+02  0.29118332914E+02  0.00000000000E+00 0. -1.
         -3    1    3    3    0  502 -0.31206063177E+03  0.62599611987E+03  0.88330201818E+02  0.70502142134E+03  0.00000000000E+00 0.  1.
         11    1    5    5    0    0  0.94250816041E+02 -0.44072075769E+03  0.70024345247E+03  0.83274179390E+03  0.00000000000E+00 0. -1.
        -11    1    5    5    0    0 -0.19720764052E+02 -0.13748616848E+03  0.24492001390E+03  0.28156201496E+03  0.00000000000E+00 0.  1.
          4    1    6    6  503    0  0.17249483677E+03 -0.64550874951E+01 -0.66476324600E+02  0.18497361595E+03  0.00000000000E+00 0. -1.
         -4    1    6    6    0  503  0.70590530130E+02 -0.63793263903E+02 -0.57540780690E+02  0.11119147857E+03  0.00000000000E+00 0.  1.
<mgrwt>
<rscale>  0 0.19338370E+04</rscale>
<asrwt>0</asrwt>
<pdfrwt beam="1">  1        2 0.23628969E+00 0.19338370E+04</pdfrwt>
<pdfrwt beam="2">  1       -1 0.93650106E-01 0.19338370E+04</pdfrwt>
<totfact> 0.14255977E+01</totfact>
</mgrwt>
</event>
<event>
12    6  0.1510140E-007  0.1952580E+04  0.7818608E-02  0.8629118E-01
          2   -1    0    0  501    0  0.00000000000E+00  0.00000000000E+00  0.91541240644E+03  0.91541240644E+03  0.00000000000E+00 0. -1.
         -1   -1    0    0    0  501 -0.00000000000E+00 -0.00000000000E+00 -0.10412164881E+04  0.10412164881E+04  0.00000000000E+00 0.  1.
         24    2    1    2    0    0 -0.25070572481E+03 -0.18398190614E+03 -0.75606746957E+03  0.82149904129E+03  0.80746232427E+02 0.  0.
        254    2    1    2    0    0  0.25070572481E+03  0.18398190614E+03  0.63026338795E+03  0.11351298532E+04  0.89139505452E+03 0.  0.
         23    2    4    4    0    0 -0.19255147907E+03  0.30868944621E+02 -0.11902640777E+03  0.24649216121E+03  0.92531810521E+02 0.  0.
         23    2    4    4    0    0  0.44325720388E+03  0.15311296152E+03  0.74928979572E+03  0.88863769200E+03  0.91220731766E+02 0.  0.
          2    1    3    3  502    0 -0.12182188078E+02  0.22822120034E+01 -0.77758798217E+02  0.78740363843E+02  0.00000000000E+00 0. -1.
         -1    1    3    3    0  502 -0.23852353673E+03 -0.18626411814E+03 -0.67830867136E+03  0.74275867745E+03  0.00000000000E+00 0.  1.
         11    1    5    5    0    0 -0.11286843530E+02 -0.17379895266E+02  0.53802826896E+01  0.21410302150E+02  0.00000000000E+00 0.  1.
        -11    1    5    5    0    0 -0.18126463554E+03  0.48248839887E+02 -0.12440669046E+03  0.22508185906E+03  0.00000000000E+00 0. -1.
          1    1    6    6  503    0  0.38991223440E+03  0.13189789360E+03  0.59063318459E+03  0.71991399737E+03  0.00000000000E+00 0. -1.
         -1    1    6    6    0  503  0.53344969477E+02  0.21215067920E+02  0.15865661113E+03  0.16872369463E+03  0.00000000000E+00 0.  1.
<mgrwt>
<rscale>  0 0.19525803E+04</rscale>
<asrwt>0</asrwt>
<pdfrwt beam="1">  1        2 0.14083268E+00 0.19525803E+04</pdfrwt>
<pdfrwt beam="2">  1       -1 0.16018715E+00 0.19525803E+04</pdfrwt>
<totfact> 0.88736702E+00</totfact>
</mgrwt>
</event>
<event>
12    6  0.1510140E-007  0.1219761E+04  0.7818608E-02  0.9095733E-01
         -1   -1    0    0    0  501 -0.00000000000E+00  0.00000000000E+00  0.38240839810E+03  0.38240839810E+03  0.00000000000E+00 0.  1.
          2   -1    0    0  501    0  0.00000000000E+00 -0.00000000000E+00 -0.97266279942E+03  0.97266279942E+03  0.00000000000E+00 0. -1.
         24    2    1    2    0    0 -0.52121039113E+02  0.16414464826E+01  0.15957780245E+03  0.18537398186E+03  0.78607512687E+02 0.  0.
        254    2    1    2    0    0  0.52121039113E+02 -0.16414464826E+01 -0.74983220377E+03  0.11696972157E+04  0.89622761922E+03 0.  0.
         23    2    4    4    0    0 -0.12894988617E+02  0.11035187492E+03  0.17722779237E+03  0.22916560490E+03  0.93612857309E+02 0.  0.
         23    2    4    4    0    0  0.65016027730E+02 -0.11199332141E+03 -0.92705999614E+03  0.94053161076E+03  0.91596323646E+02 0.  0.
          2    1    3    3  502    0 -0.25819290375E+02 -0.16712285719E+02  0.99172853225E+01  0.32315457564E+02  0.00000000000E+00 0. -1.
         -1    1    3    3    0  502 -0.26301748738E+02  0.18353732202E+02  0.14966051713E+03  0.15305852430E+03  0.00000000000E+00 0.  1.
         11    1    5    5    0    0 -0.22876370862E+02  0.12482454742E+03  0.16283013637E+03  0.20644163652E+03  0.00000000000E+00 0. -1.
        -11    1    5    5    0    0  0.99813822456E+01 -0.14472672494E+02  0.14397655999E+02  0.22723968380E+02  0.00000000000E+00 0.  1.
          3    1    6    6  503    0  0.17445014154E+02 -0.98298623491E+02 -0.45170926565E+03  0.46261021235E+03  0.00000000000E+00 0. -1.
         -3    1    6    6    0  503  0.47571013576E+02 -0.13694697914E+02 -0.47535073049E+03  0.47792139841E+03  0.00000000000E+00 0.  1.
<mgrwt>
<rscale>  0 0.12197613E+04</rscale>
<asrwt>0</asrwt>
<pdfrwt beam="1">  1        2 0.14964043E+00 0.12197613E+04</pdfrwt>
<pdfrwt beam="2">  1       -1 0.58832063E-01 0.12197613E+04</pdfrwt>
<totfact> 0.86372046E+01</totfact>
</mgrwt>
</event>
<event>
12    6  0.1510140E-007  0.1604515E+04  0.7818608E-02  0.8817779E-01
          2   -1    0    0  501    0  0.00000000000E+00  0.00000000000E+00  0.12122124369E+04  0.12122124369E+04  0.00000000000E+00 0. -1.
         -1   -1    0    0    0  501 -0.00000000000E+00 -0.00000000000E+00 -0.53094418404E+03  0.53094418404E+03  0.00000000000E+00 0.  1.
         24    2    1    2    0    0  0.24105930206E+03 -0.45298765046E+03  0.63941143221E+02  0.52339937978E+03  0.80938509864E+02 0.  0.
        254    2    1    2    0    0 -0.24105930206E+03  0.45298765046E+03  0.61732710966E+03  0.12197572412E+04  0.91837223853E+03 0.  0.
         23    2    4    4    0    0 -0.30961319372E+03  0.34778163417E+03 -0.10120778172E+03  0.48477093258E+03  0.89148455961E+02 0.  0.
         23    2    4    4    0    0  0.68553891664E+02  0.10520601629E+03  0.71853489138E+03  0.73498630860E+03  0.90247114988E+02 0.  0.
          4    1    3    3  502    0  0.83253229588E+02 -0.21278924526E+03  0.58862254358E+02  0.23595577578E+03  0.00000000000E+00 0. -1.
         -3    1    3    3    0  502  0.15780607247E+03 -0.24019840520E+03  0.50788888638E+01  0.28744360400E+03  0.00000000000E+00 0.  1.
         11    1    5    5    0    0 -0.28167032773E+03  0.33372170284E+03 -0.73220521851E+02  0.44279746306E+03  0.00000000000E+00 0. -1.
        -11    1    5    5    0    0 -0.27942865992E+02  0.14059931334E+02 -0.27987259869E+02  0.41973469524E+02  0.00000000000E+00 0.  1.
          1    1    6    6  503    0  0.45978222343E+02  0.53075654887E+02  0.59363719077E+03  0.59777599177E+03  0.00000000000E+00 0. -1.
         -1    1    6    6    0  503  0.22575669321E+02  0.52130361402E+02  0.12489770062E+03  0.13721031683E+03  0.00000000000E+00 0.  1.
<mgrwt>
<rscale>  0 0.16045151E+04</rscale>
<asrwt>0</asrwt>
<pdfrwt beam="1">  1        2 0.18649422E+00 0.16045151E+04</pdfrwt>
<pdfrwt beam="2">  1       -1 0.81683721E-01 0.16045151E+04</pdfrwt>
<totfact> 0.30375738E+01</totfact>
</mgrwt>
</event>
<event>
12    6  0.1510140E-007  0.1586313E+04  0.7818608E-02  0.8829001E-01
          2   -1    0    0  501    0  0.00000000000E+00  0.00000000000E+00  0.13621005063E+04  0.13621005063E+04  0.00000000000E+00 0. -1.
         -1   -1    0    0    0  501 -0.00000000000E+00 -0.00000000000E+00 -0.46185828721E+03  0.46185828721E+03  0.00000000000E+00 0.  1.
         24    2    1    2    0    0  0.14924987162E+02 -0.11465742411E+03 -0.29066160930E+03  0.32286592266E+03  0.79932175935E+02 0.  0.
        254    2    1    2    0    0 -0.14924987162E+02  0.11465742411E+03  0.11909038284E+04  0.15010928709E+04  0.90645396923E+03 0.  0.
         23    2    4    4    0    0 -0.12687436593E+03 -0.27867457057E+03  0.98239326847E+03  0.10329316286E+04  0.89969963431E+02 0.  0.
         23    2    4    4    0    0  0.11194937877E+03  0.39333199468E+03  0.20851055995E+03  0.46816124233E+03  0.91954193854E+02 0.  0.
          2    1    3    3  502    0  0.74354195132E+01  0.11726222801E+02 -0.25725335124E+02  0.29233245317E+02  0.00000000000E+00 0. -1.
         -1    1    3    3    0  502  0.74895676492E+01 -0.12638364691E+03 -0.26493627417E+03  0.29363267734E+03  0.00000000000E+00 0.  1.
         11    1    5    5    0    0 -0.47913367266E+02 -0.19630261450E+03  0.69290109896E+03  0.72176335468E+03  0.00000000000E+00 0. -1.
        -11    1    5    5    0    0 -0.78960998664E+02 -0.82371956067E+02  0.28949216952E+03  0.31116827388E+03  0.00000000000E+00 0.  1.
          4    1    6    6  503    0  0.12322390308E+03  0.38563216566E+03  0.20614844520E+03  0.45430549077E+03  0.00000000000E+00 0. -1.
         -4    1    6    6    0  503 -0.11274524311E+02  0.76998290173E+01  0.23621147482E+01  0.13855751565E+02  0.00000000000E+00 0.  1.
<mgrwt>
<rscale>  0 0.15863132E+04</rscale>
<asrwt>0</asrwt>
<pdfrwt beam="1">  1        2 0.20955392E+00 0.15863132E+04</pdfrwt>
<pdfrwt beam="2">  1       -1 0.71055122E-01 0.15863132E+04</pdfrwt>
<totfact> 0.33305525E+01</totfact>
</mgrwt>
</event>
<event>
12    6  0.1510140E-007  0.1839956E+04  0.7818608E-02  0.8685335E-01
         -1   -1    0    0    0  501 -0.00000000000E+00  0.00000000000E+00  0.92167450214E+03  0.92167450214E+03  0.00000000000E+00 0.  1.
          2   -1    0    0  501    0  0.00000000000E+00 -0.00000000000E+00 -0.91828446212E+03  0.91828446212E+03  0.00000000000E+00 0. -1.
         24    2    1    2    0    0  0.58669200378E+03 -0.91250943507E+02 -0.35246324581E+03  0.69406539837E+03  0.70442853244E+02 0.  0.
        254    2    1    2    0    0 -0.58669200378E+03  0.91250943507E+02  0.35585328583E+03  0.11458935659E+04  0.91318468085E+03 0.  0.
         23    2    4    4    0    0 -0.16557594882E+03  0.34384960570E+03 -0.16107165259E+03  0.42640051584E+03  0.10112060360E+03 0.  0.
         23    2    4    4    0    0 -0.42111605496E+03 -0.25259866220E+03  0.51692493841E+03  0.71949305006E+03  0.96509280591E+02 0.  0.
          2    1    3    3  502    0  0.33974586964E+03 -0.18584495643E+02 -0.19088808502E+03  0.39014215411E+03  0.00000000000E+00 0. -1.
         -1    1    3    3    0  502  0.24694613415E+03 -0.72666447864E+02 -0.16157516079E+03  0.30392324426E+03  0.00000000000E+00 0.  1.
         11    1    5    5    0    0 -0.26385403322E+01 -0.19650555580E+01 -0.17887048780E+02  0.18187079273E+02  0.00000000000E+00 0.  1.
        -11    1    5    5    0    0 -0.16293740849E+03  0.34581466126E+03 -0.14318460381E+03  0.40821343657E+03  0.00000000000E+00 0. -1.
          1    1    6    6  503    0 -0.78460904050E+02 -0.63086015955E+02  0.57887070221E+02  0.11613299175E+03  0.00000000000E+00 0. -1.
         -1    1    6    6    0  503 -0.34265515091E+03 -0.18951264624E+03  0.45903786819E+03  0.60336005831E+03  0.00000000000E+00 0.  1.
<mgrwt>
<rscale>  0 0.18399558E+04</rscale>
<asrwt>0</asrwt>
<pdfrwt beam="1">  1        2 0.14127453E+00 0.18399558E+04</pdfrwt>
<pdfrwt beam="2">  1       -1 0.14179608E+00 0.18399558E+04</pdfrwt>
<totfact> 0.12407058E+01</totfact>
</mgrwt>
</event>
<event>
12    6  0.1510140E-007  0.1681963E+04  0.7818608E-02  0.8771719E-01
          2   -1    0    0  501    0  0.00000000000E+00  0.00000000000E+00  0.20662862439E+04  0.20662862439E+04  0.00000000000E+00 0. -1.
         -1   -1    0    0    0  501 -0.00000000000E+00 -0.00000000000E+00 -0.34228049186E+03  0.34228049186E+03  0.00000000000E+00 0.  1.
         24    2    1    2    0    0 -0.10518306706E+03 -0.33237673734E+03 -0.68560501762E+02  0.37075314672E+03  0.10592252020E+03 0.  0.
        254    2    1    2    0    0  0.10518306706E+03  0.33237673734E+03  0.17925662538E+04  0.20378135890E+04  0.90435207538E+03 0.  0.
         23    2    4    4    0    0 -0.11842393334E+03 -0.31142241754E+02  0.15101401426E+04  0.15179946060E+04  0.93756633514E+02 0.  0.
         23    2    4    4    0    0  0.22360700040E+03  0.36351897909E+03  0.28242611122E+03  0.51981898305E+03  0.91110526614E+02 0.  0.
          2    1    3    3  502    0  0.90304344249E+01 -0.90306758228E+00  0.77632119129E+01  0.11942852932E+02  0.00000000000E+00 0. -1.
         -1    1    3    3    0  502 -0.11421350148E+03 -0.33147366976E+03 -0.76323713674E+02  0.35881029379E+03  0.00000000000E+00 0.  1.
         11    1    5    5    0    0 -0.12223516409E+03 -0.30602437153E+02  0.10087444689E+04  0.10165841569E+04  0.00000000000E+00 0. -1.
        -11    1    5    5    0    0  0.38112307476E+01 -0.53980460035E+00  0.50139567364E+03  0.50141044905E+03  0.00000000000E+00 0.  1.
          1    1    6    6  503    0  0.18590967143E+03  0.33830304175E+03  0.27476789770E+03  0.47382354479E+03  0.00000000000E+00 0. -1.
         -1    1    6    6    0  503  0.37697328962E+02  0.25215937338E+02  0.76582135185E+01  0.45995438263E+02  0.00000000000E+00 0.  1.
<mgrwt>
<rscale>  0 0.16819625E+04</rscale>
<asrwt>0</asrwt>
<pdfrwt beam="1">  1        2 0.31789019E+00 0.16819625E+04</pdfrwt>
<pdfrwt beam="2">  1       -1 0.52658538E-01 0.16819625E+04</pdfrwt>
<totfact> 0.24210157E+01</totfact>
</mgrwt>
</event>
<event>
12    6  0.1510140E-007  0.1285371E+04  0.7818608E-02  0.9041247E-01
          2   -1    0    0  501    0  0.00000000000E+00  0.00000000000E+00  0.24625955048E+04  0.24625955048E+04  0.00000000000E+00 0. -1.
         -1   -1    0    0    0  501 -0.00000000000E+00 -0.00000000000E+00 -0.16772737246E+03  0.16772737246E+03  0.00000000000E+00 0.  1.
         24    2    1    2    0    0 -0.57333706854E+02  0.23167884253E+03  0.97721884556E+03  0.10076521512E+04  0.58685139422E+02 0.  0.
        254    2    1    2    0    0  0.57333706854E+02 -0.23167884253E+03  0.13176492868E+04  0.16226707262E+04  0.91645971130E+03 0.  0.
         23    2    4    4    0    0  0.12121382012E+03 -0.44966318877E+03  0.26848677187E+03  0.54523239701E+03  0.91123249293E+02 0.  0.
         23    2    4    4    0    0 -0.63880113269E+02  0.21798434623E+03  0.10491625149E+04  0.10774383291E+04  0.92377087323E+02 0.  0.
          2    1    3    3  502    0 -0.54440668448E+02  0.20370444247E+03  0.76312555797E+03  0.79171958640E+03  0.00000000000E+00 0. -1.
         -1    1    3    3    0  502 -0.28930384068E+01  0.27974400063E+02  0.21409328758E+03  0.21593256475E+03  0.00000000000E+00 0.  1.
         11    1    5    5    0    0 -0.10115291704E+01 -0.72293067585E+01 -0.68230561059E+01  0.99920049087E+01  0.00000000000E+00 0. -1.
        -11    1    5    5    0    0  0.12222534929E+03 -0.44243388201E+03  0.27530982798E+03  0.53524039210E+03  0.00000000000E+00 0.  1.
          1    1    6    6  503    0 -0.18634251612E+02  0.66730999215E+02  0.53821247456E+03  0.54265359978E+03  0.00000000000E+00 0. -1.
         -1    1    6    6    0  503 -0.45245861657E+02  0.15125334702E+03  0.51095004038E+03  0.53478472935E+03  0.00000000000E+00 0.  1.
<mgrwt>
<rscale>  0 0.12853710E+04</rscale>
<asrwt>0</asrwt>
<pdfrwt beam="1">  1        2 0.37886082E+00 0.12853710E+04</pdfrwt>
<pdfrwt beam="2">  1       -1 0.25804213E-01 0.12853710E+04</pdfrwt>
<totfact> 0.54486766E+01</totfact>
</mgrwt>
</event>
<event>
12    6  0.1510140E-007  0.1896581E+04  0.7818608E-02  0.8656560E-01
          2   -1    0    0  501    0  0.00000000000E+00  0.00000000000E+00  0.29122502046E+04  0.29122502046E+04  0.00000000000E+00 0. -1.
         -1   -1    0    0    0  501 -0.00000000000E+00 -0.00000000000E+00 -0.30878360131E+03  0.30878360131E+03  0.00000000000E+00 0.  1.
         24    2    1    2    0    0  0.53966487860E+03  0.44320112417E+03  0.13731317362E+04  0.15426086566E+04  0.80531265939E+02 0.  0.
        254    2    1    2    0    0 -0.53966487860E+03 -0.44320112417E+03  0.12303348671E+04  0.16784251493E+04  0.90317311685E+03 0.  0.
         23    2    4    4    0    0 -0.45662894180E+03 -0.35223364764E+03  0.17087715907E+03  0.60782526000E+03  0.87601427995E+02 0.  0.
         23    2    4    4    0    0 -0.83035936806E+02 -0.90967476533E+02  0.10594577080E+04  0.10705998893E+04  0.92538853075E+02 0.  0.
          2    1    3    3  502    0  0.40399579676E+03  0.30630985836E+03  0.10582256664E+04  0.11734052557E+04  0.00000000000E+00 0. -1.
         -1    1    3    3    0  502  0.13566908184E+03  0.13689126581E+03  0.31490606981E+03  0.36920340088E+03  0.00000000000E+00 0.  1.
         11    1    5    5    0    0 -0.36919468911E+03 -0.31094641807E+03  0.11520251586E+03  0.49624995016E+03  0.00000000000E+00 0. -1.
        -11    1    5    5    0    0 -0.87434252689E+02 -0.41287229569E+02  0.55674643211E+02  0.11157530984E+03  0.00000000000E+00 0.  1.
          4    1    6    6  503    0 -0.21072196783E+02 -0.22213217129E+02  0.65066207265E+02  0.71910192743E+02  0.00000000000E+00 0.  1.
         -4    1    6    6    0  503 -0.61963740024E+02 -0.68754259404E+02  0.99439150076E+03  0.99868969657E+03  0.00000000000E+00 0. -1.
<mgrwt>
<rscale>  0 0.18965812E+04</rscale>
<asrwt>0</asrwt>
<pdfrwt beam="1">  1        2 0.44803847E+00 0.18965812E+04</pdfrwt>
<pdfrwt beam="2">  1       -1 0.47505172E-01 0.18965812E+04</pdfrwt>
<totfact> 0.93380379E+00</totfact>
</mgrwt>
</event>
<event>
12    6  0.1510140E-007  0.2471179E+04  0.7818608E-02  0.8413326E-01
          2   -1    0    0  501    0  0.00000000000E+00  0.00000000000E+00  0.32560543143E+04  0.32560543143E+04  0.00000000000E+00 0. -1.
         -1   -1    0    0    0  501 -0.00000000000E+00 -0.00000000000E+00 -0.46887463237E+03  0.46887463237E+03  0.00000000000E+00 0.  1.
         24    2    1    2    0    0  0.47328776531E+03 -0.35528477207E+03  0.25647781794E+04  0.26333850334E+04  0.80006538100E+02 0.  0.
        254    2    1    2    0    0 -0.47328776531E+03  0.35528477207E+03  0.22240150249E+03  0.10915439133E+04  0.88981858168E+03 0.  0.
         23    2    4    4    0    0 -0.25022320644E+03  0.62384976208E+03  0.21429042826E+02  0.67887971790E+03  0.92834739236E+02 0.  0.
         23    2    4    4    0    0 -0.22306455888E+03 -0.26856499002E+03  0.20097245966E+03  0.41266419541E+03  0.89536904888E+02 0.  0.
          2    1    3    3  502    0  0.38219914087E+03 -0.31946305935E+03  0.20788877417E+04  0.21377340976E+04  0.00000000000E+00 0. -1.
         -1    1    3    3    0  502  0.91088624447E+02 -0.35821712715E+02  0.48589043779E+03  0.49565093578E+03  0.00000000000E+00 0.  1.
         11    1    5    5    0    0  0.12262808371E+01  0.11460254319E+02  0.12240911853E+02  0.16813123349E+02  0.00000000000E+00 0. -1.
        -11    1    5    5    0    0 -0.25144948727E+03  0.61238950776E+03  0.91881309726E+01  0.66206659455E+03  0.00000000000E+00 0.  1.
          4    1    6    6  503    0 -0.12720781250E+03 -0.19232975084E+03  0.90463316850E+02  0.24770178101E+03  0.00000000000E+00 0. -1.
         -4    1    6    6    0  503 -0.95856746373E+02 -0.76235239176E+02  0.11050914281E+03  0.16496241440E+03  0.00000000000E+00 0.  1.
<mgrwt>
<rscale>  0 0.24711789E+04</rscale>
<asrwt>0</asrwt>
<pdfrwt beam="1">  1        2 0.50093142E+00 0.24711789E+04</pdfrwt>
<pdfrwt beam="2">  1       -1 0.72134561E-01 0.24711789E+04</pdfrwt>
<totfact> 0.23505456E+00</totfact>
</mgrwt>
</event>
<event>
12    6  0.1510140E-007  0.2883380E+04  0.7818608E-02  0.8277840E-01
         -1   -1    0    0    0  501 -0.00000000000E+00  0.00000000000E+00  0.15364859969E+04  0.15364859969E+04  0.00000000000E+00 0.  1.
          2   -1    0    0  501    0  0.00000000000E+00 -0.00000000000E+00 -0.13527427537E+04  0.13527427537E+04  0.00000000000E+00 0. -1.
         24    2    1    2    0    0  0.35403446229E+03 -0.12497079489E+04  0.13871152685E+03  0.13086924921E+04  0.79528567438E+02 0.  0.
        254    2    1    2    0    0 -0.35403446229E+03  0.12497079489E+04  0.45031716291E+02  0.15805362586E+04  0.89942017493E+03 0.  0.
         23    2    4    4    0    0 -0.20209300313E+03  0.65854208898E+02 -0.25735984706E+03  0.34584972093E+03  0.90551531426E+02 0.  0.
         23    2    4    4    0    0 -0.15194145916E+03  0.11838537400E+04  0.30239156335E+03  0.12346865376E+04  0.91729514672E+02 0.  0.
          2    1    3    3  502    0  0.28836898772E+03 -0.10317677364E+04  0.14444664503E+03  0.10810023905E+04  0.00000000000E+00 0. -1.
         -1    1    3    3    0  502  0.65665474566E+02 -0.21794021251E+03 -0.57351181794E+01  0.22769010158E+03  0.00000000000E+00 0.  1.
         11    1    5    5    0    0 -0.20865548150E+03  0.65056862592E+02 -0.22832765791E+03  0.31607439741E+03  0.00000000000E+00 0. -1.
        -11    1    5    5    0    0  0.65624783766E+01  0.79734630625E+00 -0.29032189154E+02  0.29775323518E+02  0.00000000000E+00 0.  1.
          2    1    6    6  503    0 -0.66177937789E+01  0.13212907496E+03  0.62522517749E+01  0.13244235839E+03  0.00000000000E+00 0. -1.
         -2    1    6    6    0  503 -0.14532366538E+03  0.10517246651E+04  0.29613931158E+03  0.11022441792E+04  0.00000000000E+00 0.  1.
<mgrwt>
<rscale>  0 0.28833802E+04</rscale>
<asrwt>0</asrwt>
<pdfrwt beam="1">  1        2 0.20811427E+00 0.28833802E+04</pdfrwt>
<pdfrwt beam="2">  1       -1 0.23638246E+00 0.28833802E+04</pdfrwt>
<totfact> 0.12988244E+00</totfact>
</mgrwt>
</event>
<event>
12    6  0.1981488E-007  0.1935891E+04  0.7818608E-02  0.8637195E-01
         -1   -1    0    0    0  501 -0.00000000000E+00  0.00000000000E+00  0.92687745189E+03  0.92687745189E+03  0.00000000000E+00 0.  1.
          2   -1    0    0  501    0  0.00000000000E+00 -0.00000000000E+00 -0.10108331059E+04  0.10108331059E+04  0.00000000000E+00 0. -1.
         24    2    1    2    0    0 -0.38779970733E+03 -0.35765392286E+03  0.50792208101E+03  0.73661821177E+03  0.79477090927E+02 0.  0.
        254    2    1    2    0    0  0.38779970733E+03  0.35765392286E+03 -0.59187773504E+03  0.12010923460E+04  0.90221872565E+03 0.  0.
         23    2    4    4    0    0 -0.18218222889E+03  0.21390878538E+03 -0.52521881814E+03  0.60251921253E+03  0.90704253237E+02 0.  0.
         23    2    4    4    0    0  0.56998193623E+03  0.14374513749E+03 -0.66658916906E+02  0.59857313351E+03  0.91128002151E+02 0.  0.
          2    1    3    3  502    0 -0.62021133898E+01 -0.21025773473E+02  0.38527775086E+02  0.44327630364E+02  0.00000000000E+00 0. -1.
         -1    1    3    3    0  502 -0.38159759394E+03 -0.33662814939E+03  0.46939430593E+03  0.69229058141E+03  0.00000000000E+00 0.  1.
         11    1    5    5    0    0 -0.13299916694E+02  0.47306874207E+02 -0.43814421437E+02  0.65837160154E+02  0.00000000000E+00 0. -1.
        -11    1    5    5    0    0 -0.16888231220E+03  0.16660191117E+03 -0.48140439670E+03  0.53668205238E+03  0.00000000000E+00 0.  1.
          2    1    6    6  503    0 -0.30519471348E+01 -0.44824293083E+00 -0.29209919121E+01  0.42482345497E+01  0.00000000000E+00 0. -1.
         -2    1    6    6    0  503  0.57303388336E+03  0.14419338042E+03 -0.63737924994E+02  0.59432489896E+03  0.00000000000E+00 0.  1.
<mgrwt>
<rscale>  0 0.19358909E+04</rscale>
<asrwt>0</asrwt>
<pdfrwt beam="1">  1        2 0.15551278E+00 0.19358909E+04</pdfrwt>
<pdfrwt beam="2">  1       -1 0.14259653E+00 0.19358909E+04</pdfrwt>
<totfact> 0.10547316E+01</totfact>
</mgrwt>
</event>
<event>
12    6  0.1510140E-007  0.1713102E+04  0.7818608E-02  0.8753927E-01
         -1   -1    0    0    0  501 -0.00000000000E+00  0.00000000000E+00  0.42262910197E+03  0.42262910197E+03  0.00000000000E+00 0.  1.
          2   -1    0    0  501    0  0.00000000000E+00 -0.00000000000E+00 -0.17359897398E+04  0.17359897398E+04  0.00000000000E+00 0. -1.
         24    2    1    2    0    0 -0.40618322983E+03 -0.33410771471E+03 -0.18423408224E+03  0.56300040615E+03  0.80090442913E+02 0.  0.
        254    2    1    2    0    0  0.40618322983E+03  0.33410771471E+03 -0.11291265556E+04  0.15956184356E+04  0.99722546716E+03 0.  0.
         23    2    4    4    0    0  0.57068959618E+03 -0.15437274102E+03 -0.67164961336E+03  0.89992127164E+03  0.96060052409E+02 0.  0.
         23    2    4    4    0    0 -0.16450636634E+03  0.48848045573E+03 -0.45747694225E+03  0.69569716400E+03  0.95046783830E+02 0.  0.
          2    1    3    3  502    0 -0.22392897007E+02 -0.47688917351E+02 -0.25179930911E+02  0.58392667306E+02  0.00000000000E+00 0. -1.
         -3    1    3    3    0  502 -0.38379033283E+03 -0.28641879736E+03 -0.15905415133E+03  0.50460773885E+03  0.00000000000E+00 0.  1.
         11    1    5    5    0    0  0.13724685226E+03 -0.73050108499E+02 -0.14050148452E+03  0.20955592084E+03  0.00000000000E+00 0.  1.
        -11    1    5    5    0    0  0.43344274392E+03 -0.81322632524E+02 -0.53114812884E+03  0.69036535080E+03  0.00000000000E+00 0. -1.
          4    1    6    6  503    0 -0.14845599976E+03  0.48374408385E+03 -0.43265590281E+03  0.66576170869E+03  0.00000000000E+00 0. -1.
         -4    1    6    6    0  503 -0.16050366582E+02  0.47363718839E+01 -0.24821039441E+02  0.29935455316E+02  0.00000000000E+00 0.  1.
<mgrwt>
<rscale>  0 0.17131022E+04</rscale>
<asrwt>0</asrwt>
<pdfrwt beam="1">  1        2 0.26707534E+00 0.17131022E+04</pdfrwt>
<pdfrwt beam="2">  1       -1 0.65019863E-01 0.17131022E+04</pdfrwt>
<totfact> 0.24318345E+01</totfact>
</mgrwt>
</event>
<event>
12    6  0.1510140E-007  0.1282296E+04  0.7818608E-02  0.9043723E-01
          2   -1    0    0  501    0  0.00000000000E+00  0.00000000000E+00  0.21511038642E+04  0.21511038642E+04  0.00000000000E+00 0. -1.
         -1   -1    0    0    0  501 -0.00000000000E+00 -0.00000000000E+00 -0.19109765344E+03  0.19109765344E+03  0.00000000000E+00 0.  1.
         24    2    1    2    0    0 -0.17067568691E+03 -0.73738893812E+01  0.46790110740E+02  0.19368961832E+03  0.78369569591E+02 0.  0.
        254    2    1    2    0    0  0.17067568691E+03  0.73738893812E+01  0.19132161001E+04  0.21485118994E+04  0.96256063279E+03 0.  0.
         23    2    4    4    0    0  0.31019156129E+03  0.38343054864E+03  0.65756474317E+03  0.82710626207E+03  0.92062951079E+02 0.  0.
         23    2    4    4    0    0 -0.13951587439E+03 -0.37605665926E+03  0.12556513569E+04  0.13214056373E+04  0.92570178877E+02 0.  0.
          2    1    3    3  502    0 -0.48922000297E+02  0.12882571884E+02  0.48737261171E+02  0.70247017004E+02  0.00000000000E+00 0. -1.
         -1    1    3    3    0  502 -0.12175368661E+03 -0.20256461266E+02 -0.19471504310E+01  0.12344260132E+03  0.00000000000E+00 0.  1.
         11    1    5    5    0    0  0.15630202695E+03  0.15314797173E+03  0.35402052864E+03  0.41619125359E+03  0.00000000000E+00 0.  1.
        -11    1    5    5    0    0  0.15388953434E+03  0.23028257692E+03  0.30354421453E+03  0.41091500847E+03  0.00000000000E+00 0. -1.
          2    1    6    6  503    0 -0.13583194316E+03 -0.38051039102E+03  0.12482880834E+04  0.13120448215E+04  0.00000000000E+00 0. -1.
         -2    1    6    6    0  503 -0.36839312286E+01  0.44537317587E+01  0.73632735111E+01  0.93608158124E+01  0.00000000000E+00 0.  1.
<mgrwt>
<rscale>  0 0.12822962E+04</rscale>
<asrwt>0</asrwt>
<pdfrwt beam="1">  1        2 0.33093904E+00 0.12822962E+04</pdfrwt>
<pdfrwt beam="2">  1       -1 0.29399640E-01 0.12822962E+04</pdfrwt>
<totfact> 0.65135837E+01</totfact>
</mgrwt>
</event>
<event>
12    6  0.1510140E-007  0.1638805E+04  0.7818608E-02  0.8797057E-01
         -1   -1    0    0    0  501 -0.00000000000E+00  0.00000000000E+00  0.13726055190E+04  0.13726055190E+04  0.00000000000E+00 0.  1.
          2   -1    0    0  501    0  0.00000000000E+00 -0.00000000000E+00 -0.48915771056E+03  0.48915771056E+03  0.00000000000E+00 0. -1.
         24    2    1    2    0    0  0.56360165669E+03  0.54640802395E+02  0.41126480531E+03  0.70428691244E+03  0.79049795942E+02 0.  0.
        254    2    1    2    0    0 -0.56360165669E+03 -0.54640802395E+02  0.47218300317E+03  0.11574763172E+04  0.89227921169E+03 0.  0.
         23    2    4    4    0    0  0.29493977795E+01 -0.13691226962E+03 -0.20740462335E+03  0.26427805469E+03  0.89847336547E+02 0.  0.
         23    2    4    4    0    0 -0.56655105447E+03  0.82271467224E+02  0.67958762652E+03  0.89319826247E+03  0.90637201652E+02 0.  0.
          2    1    3    3  502    0  0.45826200445E+03  0.50458266520E+02  0.36974225906E+03  0.59098175904E+03  0.00000000000E+00 0. -1.
         -1    1    3    3    0  502  0.10533965224E+03  0.41825358755E+01  0.41522546255E+02  0.11330515340E+03  0.00000000000E+00 0.  1.
         11    1    5    5    0    0  0.34668144451E+02 -0.11778919973E+03 -0.18130046457E+03  0.21896582899E+03  0.00000000000E+00 0. -1.
        -11    1    5    5    0    0 -0.31718746671E+02 -0.19123069894E+02 -0.26104158787E+02  0.45312225708E+02  0.00000000000E+00 0.  1.
          1    1    6    6  503    0 -0.20422170781E+03 -0.14041552564E+02  0.24230084192E+03  0.31719610517E+03  0.00000000000E+00 0. -1.
         -1    1    6    6    0  503 -0.36232934666E+03  0.96313019788E+02  0.43728678460E+03  0.57600215730E+03  0.00000000000E+00 0.  1.
<mgrwt>
<rscale>  0 0.16388051E+04</rscale>
<asrwt>0</asrwt>
<pdfrwt beam="1">  1        2 0.75255033E-01 0.16388051E+04</pdfrwt>
<pdfrwt beam="2">  1       -1 0.21117008E+00 0.16388051E+04</pdfrwt>
<totfact> 0.87134398E+00</totfact>
</mgrwt>
</event>
<event>
12    6  0.1510140E-007  0.2342526E+04  0.7818608E-02  0.8461340E-01
          2   -1    0    0  501    0  0.00000000000E+00  0.00000000000E+00  0.12944262612E+04  0.12944262612E+04  0.00000000000E+00 0. -1.
         -1   -1    0    0    0  501 -0.00000000000E+00 -0.00000000000E+00 -0.10598186629E+04  0.10598186629E+04  0.00000000000E+00 0.  1.
         24    2    1    2    0    0  0.76800540481E+03 -0.13479233616E+03  0.71673818142E+03  0.10621600622E+04  0.80430724212E+02 0.  0.
        254    2    1    2    0    0 -0.76800540481E+03  0.13479233616E+03 -0.48213058312E+03  0.12920848619E+04  0.91051200725E+03 0.  0.
         23    2    4    4    0    0 -0.54268371194E+03 -0.90093008652E+02 -0.70048979965E+03  0.89525806609E+03  0.90436077345E+02 0.  0.
         23    2    4    4    0    0 -0.22532169287E+03  0.22488534481E+03  0.21835921653E+03  0.39682679576E+03  0.91910145243E+02 0.  0.
          2    1    3    3  502    0  0.75740103861E+03 -0.13806839963E+03  0.69252398826E+03  0.10355233897E+04  0.00000000000E+00 0. -1.
         -1    1    3    3    0  502  0.10604366206E+02  0.32760634648E+01  0.24214193168E+02  0.26636672563E+02  0.00000000000E+00 0.  1.
         11    1    5    5    0    0 -0.14589902032E+03  0.15896509067E+02 -0.18892351508E+03  0.23923067880E+03  0.00000000000E+00 0.  1.
        -11    1    5    5    0    0 -0.39678469162E+03 -0.10598951772E+03 -0.51156628457E+03  0.65602738729E+03  0.00000000000E+00 0. -1.
          2    1    6    6  503    0 -0.17682020242E+03  0.12010443896E+03  0.11989921108E+03  0.24508423258E+03  0.00000000000E+00 0.  1.
         -2    1    6    6    0  503 -0.48501490454E+02  0.10478090585E+03  0.98460005452E+02  0.15174256318E+03  0.00000000000E+00 0. -1.
<mgrwt>
<rscale>  0 0.23425261E+04</rscale>
<asrwt>0</asrwt>
<pdfrwt beam="1">  1        2 0.19914250E+00 0.23425261E+04</pdfrwt>
<pdfrwt beam="2">  1       -1 0.16304902E+00 0.23425261E+04</pdfrwt>
<totfact> 0.47532282E+00</totfact>
</mgrwt>
</event>
<event>
12    6  0.1510140E-007  0.1233758E+04  0.7818608E-02  0.9083811E-01
          2   -1    0    0  501    0  0.00000000000E+00  0.00000000000E+00  0.12503795993E+04  0.12503795993E+04  0.00000000000E+00 0. -1.
         -1   -1    0    0    0  501 -0.00000000000E+00 -0.00000000000E+00 -0.30433910346E+03  0.30433910346E+03  0.00000000000E+00 0.  1.
         24    2    1    2    0    0 -0.62444021863E+02  0.92380585759E+02 -0.98193092887E+02  0.16951734400E+03  0.81613834208E+02 0.  0.
        254    2    1    2    0    0  0.62444021863E+02 -0.92380585759E+02  0.10442335888E+04  0.13852013588E+04  0.90328599458E+03 0.  0.
         23    2    4    4    0    0  0.89021492189E+02 -0.48575908589E+03  0.52552550297E+03  0.72678142935E+03  0.90263371205E+02 0.  0.
         23    2    4    4    0    0 -0.26577470325E+02  0.39337850013E+03  0.51870808580E+03  0.65841992945E+03  0.94898466434E+02 0.  0.
          4    1    3    3  502    0 -0.26399092067E+02 -0.79341640788E+01 -0.38488330369E+02  0.47341468040E+02  0.00000000000E+00 0. -1.
         -3    1    3    3    0  502 -0.36044929796E+02  0.10031474984E+03 -0.59704762518E+02  0.12217587596E+03  0.00000000000E+00 0.  1.
         11    1    5    5    0    0 -0.10700848253E+02 -0.17703022824E+03  0.17503605801E+03  0.24918232576E+03  0.00000000000E+00 0. -1.
        -11    1    5    5    0    0  0.99722340441E+02 -0.30872885764E+03  0.35048944495E+03  0.47759910359E+03  0.00000000000E+00 0.  1.
          1    1    6    6  503    0  0.12184059356E+02  0.30989258130E+02  0.14586327473E+02  0.36353079250E+02  0.00000000000E+00 0. -1.
         -1    1    6    6    0  503 -0.38761529681E+02  0.36238924200E+03  0.50412175833E+03  0.62206685020E+03  0.00000000000E+00 0.  1.
<mgrwt>
<rscale>  0 0.12337575E+04</rscale>
<asrwt>0</asrwt>
<pdfrwt beam="1">  1        2 0.19236609E+00 0.12337575E+04</pdfrwt>
<pdfrwt beam="2">  1       -1 0.46821401E-01 0.12337575E+04</pdfrwt>
<totfact> 0.90162229E+01</totfact>
</mgrwt>
</event>
<event>
12    6  0.1510140E-007  0.1960103E+04  0.7818608E-02  0.8625504E-01
         -1   -1    0    0    0  501 -0.00000000000E+00  0.00000000000E+00  0.30787269734E+03  0.30787269734E+03  0.00000000000E+00 0.  1.
          2   -1    0    0  501    0  0.00000000000E+00 -0.00000000000E+00 -0.31197981689E+04  0.31197981689E+04  0.00000000000E+00 0. -1.
         24    2    1    2    0    0 -0.38914958564E+03  0.42955754457E+03 -0.22117643501E+03  0.62550524964E+03  0.79879395491E+02 0.  0.
        254    2    1    2    0    0  0.38914958564E+03 -0.42955754457E+03 -0.25907490365E+04  0.28021656166E+04  0.89676891577E+03 0.  0.
         23    2    4    4    0    0  0.32182910753E+03 -0.66884556667E+03 -0.14543968639E+04  0.16357368924E+04  0.97142045495E+02 0.  0.
         23    2    4    4    0    0  0.67320478113E+02  0.23928802209E+03 -0.11363521727E+04  0.11664287242E+04  0.86422820918E+02 0.  0.
          2    1    3    3  502    0 -0.16464589056E+03  0.19703689545E+03 -0.13911609308E+03  0.29203611900E+03  0.00000000000E+00 0. -1.
         -1    1    3    3    0  502 -0.22450369509E+03  0.23252064912E+03 -0.82060341924E+02  0.33346913064E+03  0.00000000000E+00 0.  1.
         11    1    5    5    0    0  0.47911053338E+02 -0.19862611286E+03 -0.40684806608E+03  0.45527261132E+03  0.00000000000E+00 0.  1.
        -11    1    5    5    0    0  0.27391805419E+03 -0.47021945381E+03 -0.10475487978E+04  0.11804642811E+04  0.00000000000E+00 0. -1.
          1    1    6    6  503    0 -0.10739245065E+01  0.13522127462E+03 -0.49736839215E+03  0.51542338318E+03  0.00000000000E+00 0. -1.
         -1    1    6    6    0  503  0.68394402620E+02  0.10406674747E+03 -0.63898378053E+03  0.65100534100E+03  0.00000000000E+00 0.  1.
<mgrwt>
<rscale>  0 0.19601027E+04</rscale>
<asrwt>0</asrwt>
<pdfrwt beam="1">  1        2 0.47996900E+00 0.19601027E+04</pdfrwt>
<pdfrwt beam="2">  1       -1 0.47365026E-01 0.19601027E+04</pdfrwt>
<totfact> 0.69200776E+00</totfact>
</mgrwt>
</event>
<event>
12    6  0.1510140E-007  0.1500491E+04  0.7818608E-02  0.8884126E-01
         -1   -1    0    0    0  501 -0.00000000000E+00  0.00000000000E+00  0.74984125785E+03  0.74984125785E+03  0.00000000000E+00 0.  1.
          2   -1    0    0  501    0  0.00000000000E+00 -0.00000000000E+00 -0.75065026577E+03  0.75065026577E+03  0.00000000000E+00 0. -1.
         24    2    1    2    0    0 -0.33793091678E+02 -0.31270230160E+03  0.35210531671E+03  0.47868216421E+03  0.78954150001E+02 0.  0.
        254    2    1    2    0    0  0.33793091678E+02  0.31270230160E+03 -0.35291432463E+03  0.10218093594E+04  0.90588141828E+03 0.  0.
         23    2    4    4    0    0 -0.40876509649E+03  0.52708080682E+02 -0.24384971635E+03  0.48772216652E+03  0.92429333363E+02 0.  0.
         23    2    4    4    0    0  0.44255818817E+03  0.25999422091E+03 -0.10906460827E+03  0.53408719290E+03  0.99495205973E+02 0.  0.
          4    1    3    3  502    0  0.20346148415E+02 -0.10912745870E+03  0.93485438040E+02  0.14512854689E+03  0.00000000000E+00 0. -1.
         -3    1    3    3    0  502 -0.54139240093E+02 -0.20357484290E+03  0.25861987867E+03  0.33355361732E+03  0.00000000000E+00 0.  1.
         11    1    5    5    0    0 -0.32086912519E+03  0.36460376371E+02 -0.23183179218E+03  0.39753280923E+03  0.00000000000E+00 0.  1.
        -11    1    5    5    0    0 -0.87895971307E+02  0.16247704311E+02 -0.12017924168E+02  0.90189357291E+02  0.00000000000E+00 0. -1.
          3    1    6    6  503    0  0.55042329114E+02  0.13813609984E+01 -0.25860340474E+02  0.60830283264E+02  0.00000000000E+00 0. -1.
         -3    1    6    6    0  503  0.38751585906E+03  0.25861285992E+03 -0.83204267799E+02  0.47325690963E+03  0.00000000000E+00 0.  1.
<mgrwt>
<rscale>  0 0.15004913E+04</rscale>
<asrwt>0</asrwt>
<pdfrwt beam="1">  1        2 0.11548466E+00 0.15004913E+04</pdfrwt>
<pdfrwt beam="2">  1       -1 0.11536019E+00 0.15004913E+04</pdfrwt>
<totfact> 0.28163274E+01</totfact>
</mgrwt>
</event>
<event>
12    6  0.1510140E-007  0.1473506E+04  0.7818608E-02  0.8902265E-01
          2   -1    0    0  501    0  0.00000000000E+00  0.00000000000E+00  0.49920022211E+03  0.49920022211E+03  0.00000000000E+00 0. -1.
         -1   -1    0    0    0  501 -0.00000000000E+00 -0.00000000000E+00 -0.10873497097E+04  0.10873497097E+04  0.00000000000E+00 0.  1.
         24    2    1    2    0    0 -0.29773525345E+03  0.10971606789E+03 -0.53282267886E+03  0.62522951314E+03  0.79548980470E+02 0.  0.
        254    2    1    2    0    0  0.29773525345E+03 -0.10971606789E+03 -0.55326808703E+02  0.96132041865E+03  0.90575493090E+03 0.  0.
         23    2    4    4    0    0 -0.16605832271E+03 -0.86827191273E+02 -0.34732349005E+03  0.40504669071E+03  0.91186003481E+02 0.  0.
         23    2    4    4    0    0  0.46379357616E+03 -0.22888876613E+02  0.29199668134E+03  0.55627372794E+03  0.92466299354E+02 0.  0.
          2    1    3    3  502    0 -0.94740491337E+02  0.69359323544E+02 -0.15523349269E+03  0.19463790410E+03  0.00000000000E+00 0. -1.
         -1    1    3    3    0  502 -0.20299476211E+03  0.40356744342E+02 -0.37758918617E+03  0.43059160903E+03  0.00000000000E+00 0.  1.
         11    1    5    5    0    0 -0.60744069391E+02 -0.10045058026E+01 -0.51978038722E+02  0.79953533427E+02  0.00000000000E+00 0. -1.
        -11    1    5    5    0    0 -0.10531425332E+03 -0.85822685470E+02 -0.29534545133E+03  0.32509315728E+03  0.00000000000E+00 0.  1.
          3    1    6    6  503    0  0.46074633369E+03 -0.27653575531E+02  0.27258425969E+03  0.53605417906E+03  0.00000000000E+00 0. -1.
         -3    1    6    6    0  503  0.30472424646E+01  0.47646989174E+01  0.19412421655E+02  0.20219548880E+02  0.00000000000E+00 0.  1.
<mgrwt>
<rscale>  0 0.14735063E+04</rscale>
<asrwt>0</asrwt>
<pdfrwt beam="1">  1        2 0.76800035E-01 0.14735063E+04</pdfrwt>
<pdfrwt beam="2">  1       -1 0.16728457E+00 0.14735063E+04</pdfrwt>
<totfact> 0.17596214E+01</totfact>
</mgrwt>
</event>
<event>
12    6  0.1510140E-007  0.1667062E+04  0.7818608E-02  0.8780376E-01
         -1   -1    0    0    0  501 -0.00000000000E+00  0.00000000000E+00  0.61818141971E+03  0.61818141971E+03  0.00000000000E+00 0.  1.
          2   -1    0    0  501    0  0.00000000000E+00 -0.00000000000E+00 -0.11239003512E+04  0.11239003512E+04  0.00000000000E+00 0. -1.
         24    2    1    2    0    0 -0.57063753212E+03  0.11496227714E+03 -0.27748687044E+03  0.64984500122E+03  0.80349512264E+02 0.  0.
        254    2    1    2    0    0  0.57063753212E+03 -0.11496227714E+03 -0.22823206108E+03  0.10922367697E+04  0.89557119717E+03 0.  0.
         23    2    4    4    0    0  0.17665955100E+03 -0.32101142793E+03  0.23378795681E+03  0.44453542644E+03  0.93263083742E+02 0.  0.
         23    2    4    4    0    0  0.39397798111E+03  0.20604915079E+03 -0.46202001789E+03  0.64770134328E+03  0.91540324535E+02 0.  0.
          2    1    3    3  502    0 -0.43913674383E+03  0.53805930821E+02 -0.21578131959E+03  0.49223747912E+03  0.00000000000E+00 0. -1.
         -1    1    3    3    0  502 -0.13150078829E+03  0.61156346321E+02 -0.61705550847E+02  0.15760752210E+03  0.00000000000E+00 0.  1.
         11    1    5    5    0    0  0.44235793388E+02 -0.10080085279E+03  0.23650771343E+02  0.11259207931E+03  0.00000000000E+00 0.  1.
        -11    1    5    5    0    0  0.13242375762E+03 -0.22021057515E+03  0.21013718546E+03  0.33194334713E+03  0.00000000000E+00 0. -1.
          2    1    6    6  503    0  0.30415484791E+03  0.12716086854E+03 -0.37811279883E+03  0.50164663522E+03  0.00000000000E+00 0. -1.
         -2    1    6    6    0  503  0.89823133207E+02  0.78888282253E+02 -0.83907219060E+02  0.14605470806E+03  0.00000000000E+00 0.  1.
<mgrwt>
<rscale>  0 0.16670625E+04</rscale>
<asrwt>0</asrwt>
<pdfrwt beam="1">  1        2 0.17290775E+00 0.16670625E+04</pdfrwt>
<pdfrwt beam="2">  1       -1 0.95104834E-01 0.16670625E+04</pdfrwt>
<totfact> 0.24479376E+01</totfact>
</mgrwt>
</event>
<event>
12    6  0.1510140E-007  0.1723730E+04  0.7818608E-02  0.8747945E-01
         -1   -1    0    0    0  501 -0.00000000000E+00  0.00000000000E+00  0.31524627076E+03  0.31524627076E+03  0.00000000000E+00 0.  1.
          2   -1    0    0  501    0  0.00000000000E+00 -0.00000000000E+00 -0.23562883219E+04  0.23562883219E+04  0.00000000000E+00 0. -1.
         24    2    1    2    0    0 -0.22253580161E+03 -0.48827055713E+03 -0.25167273933E+03  0.59813354014E+03  0.80586873336E+02 0.  0.
        254    2    1    2    0    0  0.22253580161E+03  0.48827055713E+03 -0.17893693118E+04  0.20734010525E+04  0.89956604570E+03 0.  0.
         23    2    4    4    0    0 -0.18928601344E+03  0.39030121588E+03 -0.14696568395E+04  0.15350849716E+04  0.91817265151E+02 0.  0.
         23    2    4    4    0    0  0.41182181506E+03  0.97969341255E+02 -0.31971247232E+03  0.53831608091E+03  0.91503764023E+02 0.  0.
          2    1    3    3  502    0 -0.15473831306E+02 -0.10955271303E+03 -0.42884607353E+02  0.11866054919E+03  0.00000000000E+00 0. -1.
         -1    1    3    3    0  502 -0.20706197031E+03 -0.37871784411E+03 -0.20878813198E+03  0.47947299095E+03  0.00000000000E+00 0.  1.
         11    1    5    5    0    0 -0.17959951774E+03  0.39358981921E+03 -0.14454427834E+04  0.15087987847E+04  0.00000000000E+00 0. -1.
        -11    1    5    5    0    0 -0.96864957062E+01 -0.32886033285E+01 -0.24214056122E+02  0.26286186958E+02  0.00000000000E+00 0.  1.
          1    1    6    6  503    0  0.33448874641E+03  0.46359332102E+02 -0.27317592231E+03  0.43434662849E+03  0.00000000000E+00 0. -1.
         -1    1    6    6    0  503  0.77333068643E+02  0.51610009154E+02 -0.46536550013E+02  0.10396945243E+03  0.00000000000E+00 0.  1.
<mgrwt>
<rscale>  0 0.17237298E+04</rscale>
<asrwt>0</asrwt>
<pdfrwt beam="1">  1        2 0.36250591E+00 0.17237298E+04</pdfrwt>
<pdfrwt beam="2">  1       -1 0.48499425E-01 0.17237298E+04</pdfrwt>
<totfact> 0.19390236E+01</totfact>
</mgrwt>
</event>
<event>
12    6  0.1510140E-007  0.2667843E+04  0.7818608E-02  0.8345515E-01
         -1   -1    0    0    0  501 -0.00000000000E+00  0.00000000000E+00  0.62820999778E+03  0.62820999778E+03  0.00000000000E+00 0.  1.
          2   -1    0    0  501    0  0.00000000000E+00 -0.00000000000E+00 -0.28324066495E+04  0.28324066495E+04  0.00000000000E+00 0. -1.
         24    2    1    2    0    0  0.38949637887E+03 -0.34742872077E+03  0.39641067674E+03  0.66066959083E+03  0.83239044031E+02 0.  0.
        254    2    1    2    0    0 -0.38949637887E+03  0.34742872077E+03 -0.26006073284E+04  0.27999470564E+04  0.89673345919E+03 0.  0.
         23    2    4    4    0    0  0.47565422721E+02 -0.21284559442E+03 -0.25477563423E+03  0.34717749664E+03  0.89754520078E+02 0.  0.
         23    2    4    4    0    0 -0.43706180159E+03  0.56027431518E+03 -0.23458316942E+04  0.24527695598E+04  0.90674412859E+02 0.  0.
          4    1    3    3  502    0  0.53812822211E+02 -0.19067781189E+02  0.26754202870E+02  0.63049087900E+02  0.00000000000E+00 0. -1.
         -3    1    3    3    0  502  0.33568355665E+03 -0.32836093958E+03  0.36965647387E+03  0.59762050293E+03  0.00000000000E+00 0.  1.
         11    1    5    5    0    0  0.50337673389E+02 -0.20293086958E+03 -0.19297248442E+03  0.28452275644E+03  0.00000000000E+00 0.  1.
        -11    1    5    5    0    0 -0.27722506672E+01 -0.99147248336E+01 -0.61803149813E+02  0.62654740196E+02  0.00000000000E+00 0. -1.
          4    1    6    6  503    0 -0.40038648316E+03  0.53128838258E+03 -0.22474825215E+04  0.23438759280E+04  0.00000000000E+00 0.  1.
         -4    1    6    6    0  503 -0.36675318426E+02  0.28985932605E+02 -0.98349172670E+02  0.10889363175E+03  0.00000000000E+00 0. -1.
<mgrwt>
<rscale>  0 0.26678427E+04</rscale>
<asrwt>0</asrwt>
<pdfrwt beam="1">  1        2 0.43575486E+00 0.26678427E+04</pdfrwt>
<pdfrwt beam="2">  1       -1 0.96647693E-01 0.26678427E+04</pdfrwt>
<totfact> 0.22757307E+00</totfact>
</mgrwt>
</event>
<event>
12    6  0.1510140E-007  0.1722126E+04  0.7818608E-02  0.8748845E-01
         -1   -1    0    0    0  501 -0.00000000000E+00  0.00000000000E+00  0.48020226801E+03  0.48020226801E+03  0.00000000000E+00 0.  1.
          2   -1    0    0  501    0  0.00000000000E+00 -0.00000000000E+00 -0.15439940983E+04  0.15439940983E+04  0.00000000000E+00 0. -1.
         24    2    1    2    0    0  0.28296085675E+03 -0.54093454510E+03 -0.25730527455E+03  0.66738831511E+03  0.80772088584E+02 0.  0.
        254    2    1    2    0    0 -0.28296085675E+03  0.54093454510E+03 -0.80648655579E+03  0.13568080512E+04  0.90433981154E+03 0.  0.
         23    2    4    4    0    0  0.76427927709E+02 -0.93313972452E+02  0.10613628097E+03  0.18527670374E+03  0.92270370221E+02 0.  0.
         23    2    4    4    0    0 -0.35938878446E+03  0.63424851755E+03 -0.91262283676E+03  0.11715313475E+04  0.90408935491E+02 0.  0.
          2    1    3    3  502    0  0.23337513006E+03 -0.49888346050E+03 -0.22919622410E+03  0.59655642452E+03  0.00000000000E+00 0. -1.
         -1    1    3    3    0  502  0.49585726685E+02 -0.42051084598E+02 -0.28109050447E+02  0.70831890585E+02  0.00000000000E+00 0.  1.
         11    1    5    5    0    0  0.90969420922E+02 -0.76568769469E+02  0.58040093829E+02  0.13231350835E+03  0.00000000000E+00 0.  1.
        -11    1    5    5    0    0 -0.14541493213E+02 -0.16745202983E+02  0.48096187142E+02  0.52963195385E+02  0.00000000000E+00 0. -1.
          2    1    6    6  503    0 -0.30880156234E+02  0.41514767159E+02 -0.10647774505E+03  0.11838314970E+03  0.00000000000E+00 0. -1.
         -2    1    6    6    0  503 -0.32850862822E+03  0.59273375039E+03 -0.80614509171E+03  0.10531481978E+04  0.00000000000E+00 0.  1.
<mgrwt>
<rscale>  0 0.17221260E+04</rscale>
<asrwt>0</asrwt>
<pdfrwt beam="1">  1        2 0.23753755E+00 0.17221260E+04</pdfrwt>
<pdfrwt beam="2">  1       -1 0.73877273E-01 0.17221260E+04</pdfrwt>
<totfact> 0.23942644E+01</totfact>
</mgrwt>
</event>
<event>
12    6  0.1510140E-007  0.1337803E+04  0.7818608E-02  0.9000113E-01
         -1   -1    0    0    0  501 -0.00000000000E+00  0.00000000000E+00  0.24517806570E+03  0.24517806570E+03  0.00000000000E+00 0.  1.
          2   -1    0    0  501    0  0.00000000000E+00 -0.00000000000E+00 -0.18249141325E+04  0.18249141325E+04  0.00000000000E+00 0. -1.
         24    2    1    2    0    0 -0.15094105871E+03 -0.23308987771E+03 -0.70339794820E+03  0.76040566006E+03  0.79586431141E+02 0.  0.
        254    2    1    2    0    0  0.15094105871E+03  0.23308987771E+03 -0.87633811862E+03  0.13096865382E+04  0.93284309280E+03 0.  0.
         23    2    4    4    0    0  0.10026358455E+03  0.39416482798E+03 -0.42338142058E+01  0.41678411162E+03  0.90952583850E+02 0.  0.
         23    2    4    4    0    0  0.50677474162E+02 -0.16107495027E+03 -0.87210430442E+03  0.89290242654E+03  0.90528887920E+02 0.  0.
          4    1    3    3  502    0 -0.14697968364E+03 -0.23805593884E+03 -0.66454099980E+03  0.72103286876E+03  0.00000000000E+00 0. -1.
         -3    1    3    3    0  502 -0.39613750671E+01  0.49660611276E+01 -0.38856948398E+02  0.39372791294E+02  0.00000000000E+00 0.  1.
         11    1    5    5    0    0  0.13697344047E+01  0.11689298288E+03  0.29252807342E+02  0.12050548683E+03  0.00000000000E+00 0. -1.
        -11    1    5    5    0    0  0.98893850143E+02  0.27727184510E+03 -0.33486621548E+02  0.29627862479E+03  0.00000000000E+00 0.  1.
          1    1    6    6  503    0  0.13220271611E+02 -0.12917607476E+03 -0.46345728646E+03  0.48130436342E+03  0.00000000000E+00 0. -1.
         -1    1    6    6    0  503  0.37457202551E+02 -0.31898875509E+02 -0.40864701795E+03  0.41159806312E+03  0.00000000000E+00 0.  1.
<mgrwt>
<rscale>  0 0.13378026E+04</rscale>
<asrwt>0</asrwt>
<pdfrwt beam="1">  1        2 0.28075603E+00 0.13378026E+04</pdfrwt>
<pdfrwt beam="2">  1       -1 0.37719701E-01 0.13378026E+04</pdfrwt>
<totfact> 0.63116436E+01</totfact>
</mgrwt>
</event>
<event>
12    6  0.1510140E-007  0.2260264E+04  0.7818608E-02  0.8493755E-01
         -1   -1    0    0    0  501 -0.00000000000E+00  0.00000000000E+00  0.35992669754E+03  0.35992669754E+03  0.00000000000E+00 0.  1.
          2   -1    0    0  501    0  0.00000000000E+00 -0.00000000000E+00 -0.35484961657E+04  0.35484961657E+04  0.00000000000E+00 0. -1.
         24    2    1    2    0    0 -0.30796155342E+03 -0.33031926466E+02 -0.28920482680E+04  0.29096463294E+04  0.78531212215E+02 0.  0.
        254    2    1    2    0    0  0.30796155342E+03  0.33031926466E+02 -0.29652120025E+03  0.99877653392E+03  0.90205228005E+03 0.  0.
         23    2    4    4    0    0 -0.15075008074E+03  0.26086628464E+03  0.11479770571E+03  0.33474606862E+03  0.89997843934E+02 0.  0.
         23    2    4    4    0    0  0.45871163416E+03 -0.22783435818E+03 -0.41131890596E+03  0.66403046530E+03  0.97099734119E+02 0.  0.
          2    1    3    3  502    0 -0.11124269709E+03 -0.44020908540E+02 -0.91027700203E+03  0.91810511297E+03  0.00000000000E+00 0. -1.
         -1    1    3    3    0  502 -0.19671885633E+03  0.10988982074E+02 -0.19817712659E+04  0.19915412164E+04  0.00000000000E+00 0.  1.
         11    1    5    5    0    0 -0.12884208941E+03  0.25338890583E+03  0.84383734022E+02  0.29652459623E+03  0.00000000000E+00 0. -1.
        -11    1    5    5    0    0 -0.21907991330E+02  0.74773788142E+01  0.30413971683E+02  0.38221472389E+02  0.00000000000E+00 0.  1.
          2    1    6    6  503    0  0.40902562401E+03 -0.16887228297E+03 -0.36834343279E+03  0.57575749542E+03  0.00000000000E+00 0. -1.
         -2    1    6    6    0  503  0.49686010160E+02 -0.58962075207E+02 -0.42975473165E+02  0.88272969884E+02  0.00000000000E+00 0.  1.
<mgrwt>
<rscale>  0 0.22602641E+04</rscale>
<asrwt>0</asrwt>
<pdfrwt beam="1">  1        2 0.54592248E+00 0.22602641E+04</pdfrwt>
<pdfrwt beam="2">  1       -1 0.55373338E-01 0.22602641E+04</pdfrwt>
<totfact> 0.25724495E+00</totfact>
</mgrwt>
</event>
<event>
12    6  0.1510140E-007  0.1496197E+04  0.7818608E-02  0.8886986E-01
          2   -1    0    0  501    0  0.00000000000E+00  0.00000000000E+00  0.21437676817E+04  0.21437676817E+04  0.00000000000E+00 0. -1.
         -1   -1    0    0    0  501 -0.00000000000E+00 -0.00000000000E+00 -0.26105964627E+03  0.26105964627E+03  0.00000000000E+00 0.  1.
         24    2    1    2    0    0 -0.26680169802E+03 -0.43612770913E+02 -0.19179189114E+02  0.28284810337E+03  0.80931998835E+02 0.  0.
        254    2    1    2    0    0  0.26680169802E+03  0.43612770913E+02  0.19018872245E+04  0.21219792246E+04  0.90140756315E+03 0.  0.
         23    2    4    4    0    0  0.12087999113E+03  0.46245520363E+03  0.99938125914E+03  0.11117725440E+04  0.93800324651E+02 0.  0.
         23    2    4    4    0    0  0.14592170689E+03 -0.41884243272E+03  0.90250596536E+03  0.10102066805E+04  0.96324409697E+02 0.  0.
          4    1    3    3  502    0 -0.61991343108E+02 -0.11742564794E+02  0.29932910567E+02  0.69834043154E+02  0.00000000000E+00 0. -1.
         -3    1    3    3    0  502 -0.20481035491E+03 -0.31870206118E+02 -0.49112099681E+02  0.21301406022E+03  0.00000000000E+00 0.  1.
         11    1    5    5    0    0  0.13451596581E+03  0.37085344100E+03  0.80802340378E+03  0.89918220668E+03  0.00000000000E+00 0.  1.
        -11    1    5    5    0    0 -0.13635974682E+02  0.91601762631E+02  0.19135785536E+03  0.21259033734E+03  0.00000000000E+00 0. -1.
          4    1    6    6  503    0  0.11729635900E+03 -0.23597794117E+03  0.60384326639E+03  0.65884043206E+03  0.00000000000E+00 0. -1.
         -4    1    6    6    0  503  0.28625347882E+02 -0.18286449155E+03  0.29866269897E+03  0.35136624847E+03  0.00000000000E+00 0.  1.
<mgrwt>
<rscale>  0 0.14961968E+04</rscale>
<asrwt>0</asrwt>
<pdfrwt beam="1">  1        2 0.32981040E+00 0.14961968E+04</pdfrwt>
<pdfrwt beam="2">  1       -1 0.40163024E-01 0.14961968E+04</pdfrwt>
<totfact> 0.36991096E+01</totfact>
</mgrwt>
</event>
<event>
12    6  0.1510140E-007  0.2147811E+04  0.7818608E-02  0.8540470E-01
         -1   -1    0    0    0  501 -0.00000000000E+00  0.00000000000E+00  0.43888376622E+03  0.43888376622E+03  0.00000000000E+00 0.  1.
          2   -1    0    0  501    0  0.00000000000E+00 -0.00000000000E+00 -0.26277401833E+04  0.26277401833E+04  0.00000000000E+00 0. -1.
         24    2    1    2    0    0 -0.49660502922E+03  0.65592206035E+03 -0.47288852670E+03  0.95231058657E+03  0.80134825746E+02 0.  0.
        254    2    1    2    0    0  0.49660502922E+03 -0.65592206035E+03 -0.17159678904E+04  0.21143133629E+04  0.92137120187E+03 0.  0.
         23    2    4    4    0    0  0.63699571036E+02 -0.49601721637E+03 -0.23578009843E+03  0.56116246063E+03  0.96022591713E+02 0.  0.
         23    2    4    4    0    0  0.43290545819E+03 -0.15990484398E+03 -0.14801877919E+04  0.15531509023E+04  0.91351689075E+02 0.  0.
          2    1    3    3  502    0 -0.19107537066E+03  0.26590682741E+03 -0.14439892521E+03  0.35786490152E+03  0.00000000000E+00 0. -1.
         -1    1    3    3    0  502 -0.30552965856E+03  0.39001523295E+03 -0.32848960148E+03  0.59444568505E+03  0.00000000000E+00 0.  1.
         11    1    5    5    0    0  0.72576503563E+02 -0.25105598001E+03 -0.15082382054E+03  0.30173544507E+03  0.00000000000E+00 0.  1.
        -11    1    5    5    0    0 -0.88769325278E+01 -0.24496123636E+03 -0.84956277889E+02  0.25942701556E+03  0.00000000000E+00 0. -1.
          2    1    6    6  503    0  0.32969488913E+03 -0.14893972468E+03 -0.12350405338E+04  0.12869370154E+04  0.00000000000E+00 0. -1.
         -2    1    6    6    0  503  0.10321056906E+03 -0.10965119300E+02 -0.24514725812E+03  0.26621388689E+03  0.00000000000E+00 0.  1.
<mgrwt>
<rscale>  0 0.21478105E+04</rscale>
<asrwt>0</asrwt>
<pdfrwt beam="1">  1        2 0.40426773E+00 0.21478105E+04</pdfrwt>
<pdfrwt beam="2">  1       -1 0.67520577E-01 0.21478105E+04</pdfrwt>
<totfact> 0.68044382E+00</totfact>
</mgrwt>
</event>
<event>
12    6  0.1510140E-007  0.1393100E+04  0.7818608E-02  0.8958828E-01
         -1   -1    0    0    0  501 -0.00000000000E+00  0.00000000000E+00  0.55940446132E+03  0.55940446132E+03  0.00000000000E+00 0.  1.
          2   -1    0    0  501    0  0.00000000000E+00 -0.00000000000E+00 -0.86731861341E+03  0.86731861341E+03  0.00000000000E+00 0. -1.
         24    2    1    2    0    0 -0.29041397456E+03 -0.27240180254E+03 -0.19596174028E+03  0.45092466792E+03  0.79931432066E+02 0.  0.
        254    2    1    2    0    0  0.29041397456E+03  0.27240180254E+03 -0.11195241181E+03  0.97579840681E+03  0.88380210996E+03 0.  0.
         23    2    4    4    0    0  0.19746084589E+03  0.22259689364E+02 -0.47128240746E+03  0.51914545976E+03  0.88986635898E+02 0.  0.
         23    2    4    4    0    0  0.92953128668E+02  0.25014211318E+03  0.35932999565E+03  0.45665294705E+03  0.90567694910E+02 0.  0.
          2    1    3    3  502    0 -0.11475181512E+03 -0.95990695403E+02 -0.11643633983E+03  0.18957746150E+03  0.00000000000E+00 0. -1.
         -1    1    3    3    0  502 -0.17566215945E+03 -0.17641110714E+03 -0.79525400449E+02  0.26134720641E+03  0.00000000000E+00 0.  1.
         11    1    5    5    0    0  0.29933230502E+02 -0.34662603621E+01 -0.17739213511E+02  0.34967026542E+02  0.00000000000E+00 0.  1.
        -11    1    5    5    0    0  0.16752761539E+03  0.25725949726E+02 -0.45354319395E+03  0.48417843321E+03  0.00000000000E+00 0. -1.
          2    1    6    6  503    0 -0.62858208016E+01  0.92020912727E+02  0.89358145194E+02  0.12842210882E+03  0.00000000000E+00 0.  1.
         -2    1    6    6    0  503  0.99238949470E+02  0.15812120045E+03  0.26997185046E+03  0.32823083823E+03  0.00000000000E+00 0. -1.
<mgrwt>
<rscale>  0 0.13931000E+04</rscale>
<asrwt>0</asrwt>
<pdfrwt beam="1">  1        2 0.13343363E+00 0.13931000E+04</pdfrwt>
<pdfrwt beam="2">  1       -1 0.86062225E-01 0.13931000E+04</pdfrwt>
<totfact> 0.45742292E+01</totfact>
</mgrwt>
</event>
<event>
12    6  0.1510140E-007  0.1786898E+04  0.7818608E-02  0.8713298E-01
         -1   -1    0    0    0  501 -0.00000000000E+00  0.00000000000E+00  0.38302385983E+03  0.38302385983E+03  0.00000000000E+00 0.  1.
          2   -1    0    0  501    0  0.00000000000E+00 -0.00000000000E+00 -0.20840771423E+04  0.20840771423E+04  0.00000000000E+00 0. -1.
         24    2    1    2    0    0  0.21195589124E+03 -0.52981657919E+03 -0.16006171497E+03  0.59792297381E+03  0.79127887593E+02 0.  0.
        254    2    1    2    0    0 -0.21195589124E+03  0.52981657919E+03 -0.15409915675E+04  0.18691780283E+04  0.89080894868E+03 0.  0.
         23    2    4    4    0    0 -0.14253606133E+03 -0.15534610823E+03 -0.88245011562E+03  0.91192114214E+03  0.91831480499E+02 0.  0.
         23    2    4    4    0    0 -0.69419829907E+02  0.68516268742E+03 -0.65854145191E+03  0.95725688620E+03  0.91634498318E+02 0.  0.
          4    1    3    3  502    0  0.36807044498E+02 -0.86627497789E+02  0.32328570437E+01  0.94178199508E+02  0.00000000000E+00 0. -1.
         -3    1    3    3    0  502  0.17514884674E+03 -0.44318908140E+03 -0.16329457201E+03  0.50374477430E+03  0.00000000000E+00 0.  1.
         11    1    5    5    0    0 -0.11976601846E+03 -0.16286038084E+03 -0.72504681463E+03  0.75270199032E+03  0.00000000000E+00 0. -1.
        -11    1    5    5    0    0 -0.22770042871E+02  0.75142726137E+01 -0.15740330099E+03  0.15921915182E+03  0.00000000000E+00 0.  1.
          4    1    6    6  503    0 -0.13275929280E+02  0.52122117329E+03 -0.48873611117E+03  0.71464029283E+03  0.00000000000E+00 0. -1.
         -4    1    6    6    0  503 -0.56143900627E+02  0.16394151413E+03 -0.16980534074E+03  0.24261659337E+03  0.00000000000E+00 0.  1.
<mgrwt>
<rscale>  0 0.17868982E+04</rscale>
<asrwt>0</asrwt>
<pdfrwt beam="1">  1        2 0.32062726E+00 0.17868982E+04</pdfrwt>
<pdfrwt beam="2">  1       -1 0.58926746E-01 0.17868982E+04</pdfrwt>
<totfact> 0.18843187E+01</totfact>
</mgrwt>
</event>
<event>
12    6  0.1510140E-007  0.1503288E+04  0.7818608E-02  0.8882269E-01
         -1   -1    0    0    0  501 -0.00000000000E+00  0.00000000000E+00  0.15705965928E+03  0.15705965928E+03  0.00000000000E+00 0.  1.
          2   -1    0    0  501    0  0.00000000000E+00 -0.00000000000E+00 -0.35971616524E+04  0.35971616524E+04  0.00000000000E+00 0. -1.
         24    2    1    2    0    0  0.68403443643E+02  0.26461400143E+03 -0.20731601262E+04  0.20926873820E+04  0.81535077688E+02 0.  0.
        254    2    1    2    0    0 -0.68403443643E+02 -0.26461400143E+03 -0.13669418669E+04  0.16615339297E+04  0.90413789391E+03 0.  0.
         23    2    4    4    0    0  0.15384479508E+03  0.27470147688E+03 -0.68487883494E+03  0.75949798096E+03  0.93000226658E+02 0.  0.
         23    2    4    4    0    0 -0.22224823872E+03 -0.53931547831E+03 -0.68206303196E+03  0.90203594874E+03  0.90572669677E+02 0.  0.
          2    1    3    3  502    0  0.72145364694E+02  0.24115224834E+03 -0.16737792448E+04  0.16926004611E+04  0.00000000000E+00 0. -1.
         -1    1    3    3    0  502 -0.37419210511E+01  0.23461753093E+02 -0.39938088140E+03  0.40008692088E+03  0.00000000000E+00 0.  1.
         11    1    5    5    0    0 -0.11534235542E+02  0.36677710123E+02 -0.82152660866E+02  0.90704755645E+02  0.00000000000E+00 0.  1.
        -11    1    5    5    0    0  0.16537903062E+03  0.23802376676E+03 -0.60272617407E+03  0.66879322531E+03  0.00000000000E+00 0. -1.
          4    1    6    6  503    0 -0.18768926022E+03 -0.40955511180E+03 -0.57391856127E+03  0.72961987567E+03  0.00000000000E+00 0. -1.
         -4    1    6    6    0  503 -0.34558978506E+02 -0.12976036651E+03 -0.10814447069E+03  0.17241607307E+03  0.00000000000E+00 0.  1.
<mgrwt>
<rscale>  0 0.15032884E+04</rscale>
<asrwt>0</asrwt>
<pdfrwt beam="1">  1        2 0.55340942E+00 0.15032884E+04</pdfrwt>
<pdfrwt beam="2">  1       -1 0.24163027E-01 0.15032884E+04</pdfrwt>
<totfact> 0.11509664E+01</totfact>
</mgrwt>
</event>
<event>
12    6  0.1510140E-007  0.2180835E+04  0.7818608E-02  0.8526448E-01
          2   -1    0    0  501    0  0.00000000000E+00  0.00000000000E+00  0.11026155828E+04  0.11026155828E+04  0.00000000000E+00 0. -1.
         -1   -1    0    0    0  501 -0.00000000000E+00 -0.00000000000E+00 -0.10783541035E+04  0.10783541035E+04  0.00000000000E+00 0.  1.
         24    2    1    2    0    0 -0.46207965396E+03 -0.67935250678E+03  0.38761097488E+03  0.91259179520E+03  0.86856673659E+02 0.  0.
        254    2    1    2    0    0  0.46207965396E+03  0.67935250678E+03 -0.36334949559E+03  0.12683778911E+04  0.89538940335E+03 0.  0.
         23    2    4    4    0    0  0.16295110995E+02  0.74040584159E+03 -0.14570074519E+03  0.76016970357E+03  0.90348935651E+02 0.  0.
         23    2    4    4    0    0  0.44578454296E+03 -0.61053334807E+02 -0.21764875039E+03  0.50820818754E+03  0.91941366643E+02 0.  0.
          4    1    3    3  502    0 -0.38878262523E+03 -0.53451257734E+03  0.27988067652E+03  0.71776654847E+03  0.00000000000E+00 0. -1.
         -3    1    3    3    0  502 -0.73297028727E+02 -0.14483992944E+03  0.10773029835E+03  0.19482524673E+03  0.00000000000E+00 0.  1.
         11    1    5    5    0    0 -0.23051325058E+02  0.55672887705E+03 -0.12618024661E+03  0.57131415243E+03  0.00000000000E+00 0.  1.
        -11    1    5    5    0    0  0.39346436053E+02  0.18367696453E+03 -0.19520498580E+02  0.18885555114E+03  0.00000000000E+00 0. -1.
          4    1    6    6  503    0 -0.97940360469E+00 -0.19810562340E+01 -0.13137241366E+02  0.13321821419E+02  0.00000000000E+00 0. -1.
         -4    1    6    6    0  503  0.44676394657E+03 -0.59072278573E+02 -0.20451150903E+03  0.49488636612E+03  0.00000000000E+00 0.  1.
<mgrwt>
<rscale>  0 0.21808347E+04</rscale>
<asrwt>0</asrwt>
<pdfrwt beam="1">  1        2 0.16963317E+00 0.21808347E+04</pdfrwt>
<pdfrwt beam="2">  1       -1 0.16590063E+00 0.21808347E+04</pdfrwt>
<totfact> 0.59789186E+00</totfact>
</mgrwt>
</event>
<event>
12    6  0.1510140E-007  0.1714522E+04  0.7818608E-02  0.8753125E-01
          2   -1    0    0  501    0  0.00000000000E+00  0.00000000000E+00  0.13594672963E+04  0.13594672963E+04  0.00000000000E+00 0. -1.
         -1   -1    0    0    0  501 -0.00000000000E+00 -0.00000000000E+00 -0.54057662985E+03  0.54057662985E+03  0.00000000000E+00 0.  1.
         24    2    1    2    0    0  0.60318793382E+03 -0.13189995516E+03  0.33206760360E+03  0.70581925599E+03  0.81722989905E+02 0.  0.
        254    2    1    2    0    0 -0.60318793382E+03  0.13189995516E+03  0.48682306284E+03  0.11942246701E+04  0.89885626581E+03 0.  0.
         23    2    4    4    0    0 -0.45751392192E+03 -0.18779117102E+03  0.62828828372E+03  0.80477045546E+03  0.91240374026E+02 0.  0.
         23    2    4    4    0    0 -0.14567401191E+03  0.31969112618E+03 -0.14146522089E+03  0.38945421468E+03  0.90768070998E+02 0.  0.
          2    1    3    3  502    0  0.44371252645E+03 -0.65516531467E+02  0.26176579601E+03  0.51932124353E+03  0.00000000000E+00 0. -1.
         -1    1    3    3    0  502  0.15947540737E+03 -0.66383423695E+02  0.70301807583E+02  0.18649801245E+03  0.00000000000E+00 0.  1.
         11    1    5    5    0    0 -0.41692146936E+03 -0.18786834079E+03  0.60357948703E+03  0.75724911505E+03  0.00000000000E+00 0.  1.
        -11    1    5    5    0    0 -0.40592452560E+02  0.77169774623E-01  0.24708796698E+02  0.47521340409E+02  0.00000000000E+00 0. -1.
          2    1    6    6  503    0 -0.21826307669E+02  0.10309028821E+02  0.62486278017E+01  0.24934095755E+02  0.00000000000E+00 0. -1.
         -2    1    6    6    0  503 -0.12384770424E+03  0.30938209736E+03 -0.14771384869E+03  0.36452011893E+03  0.00000000000E+00 0.  1.
<mgrwt>
<rscale>  0 0.17145218E+04</rscale>
<asrwt>0</asrwt>
<pdfrwt beam="1">  1        2 0.20914881E+00 0.17145218E+04</pdfrwt>
<pdfrwt beam="2">  1       -1 0.83165636E-01 0.17145218E+04</pdfrwt>
<totfact> 0.23743007E+01</totfact>
</mgrwt>
</event>
<event>
12    6  0.1510140E-007  0.2437082E+04  0.7818608E-02  0.8425750E-01
          2   -1    0    0  501    0  0.00000000000E+00  0.00000000000E+00  0.31171444845E+04  0.31171444845E+04  0.00000000000E+00 0. -1.
         -1   -1    0    0    0  501 -0.00000000000E+00 -0.00000000000E+00 -0.47634696002E+03  0.47634696002E+03  0.00000000000E+00 0.  1.
         24    2    1    2    0    0 -0.35174512316E+02  0.83776052731E+03  0.20684370728E+04  0.22332686832E+04  0.77311966174E+02 0.  0.
        254    2    1    2    0    0  0.35174512316E+02 -0.83776052731E+03  0.57236045177E+03  0.13602227613E+04  0.90527870089E+03 0.  0.
         23    2    4    4    0    0  0.35966764117E+03 -0.78846206303E+03  0.29565535383E+03  0.92118942191E+03  0.10072053343E+03 0.  0.
         23    2    4    4    0    0 -0.32449312885E+03 -0.49298464273E+02  0.27670509795E+03  0.43903333943E+03  0.91969737665E+02 0.  0.
          2    1    3    3  502    0 -0.29088274324E+02  0.81382799184E+03  0.19678310286E+04  0.21296762865E+04  0.00000000000E+00 0. -1.
         -1    1    3    3    0  502 -0.60862379920E+01  0.23932535462E+02  0.10060604417E+03  0.10359239677E+03  0.00000000000E+00 0.  1.
         11    1    5    5    0    0  0.56137680994E+02 -0.17910525459E+03  0.10096061120E+03  0.21312713685E+03  0.00000000000E+00 0. -1.
        -11    1    5    5    0    0  0.30352996018E+03 -0.60935680845E+03  0.19469474263E+03  0.70806228506E+03  0.00000000000E+00 0.  1.
          2    1    6    6  503    0 -0.52432552247E+02  0.19571553270E+02  0.74282530870E+02  0.93005981662E+02  0.00000000000E+00 0. -1.
         -2    1    6    6    0  503 -0.27206057661E+03 -0.68870017543E+02  0.20242256708E+03  0.34602735776E+03  0.00000000000E+00 0.  1.
<mgrwt>
<rscale>  0 0.24370821E+04</rscale>
<asrwt>0</asrwt>
<pdfrwt beam="1">  1        2 0.47956068E+00 0.24370821E+04</pdfrwt>
<pdfrwt beam="2">  1       -1 0.73284150E-01 0.24370821E+04</pdfrwt>
<totfact> 0.28089789E+00</totfact>
</mgrwt>
</event>
<event>
12    6  0.1510140E-007  0.2748728E+04  0.7818608E-02  0.8319365E-01
         -1   -1    0    0    0  501 -0.00000000000E+00  0.00000000000E+00  0.14401167006E+04  0.14401167006E+04  0.00000000000E+00 0.  1.
          2   -1    0    0  501    0  0.00000000000E+00 -0.00000000000E+00 -0.13116137991E+04  0.13116137991E+04  0.00000000000E+00 0. -1.
         24    2    1    2    0    0  0.16777332296E+03 -0.47298943702E+03 -0.10976438800E+04  0.12095563136E+04  0.79608371861E+02 0.  0.
        254    2    1    2    0    0 -0.16777332296E+03  0.47298943702E+03  0.12261467815E+04  0.15421741862E+04  0.78930247382E+03 0.  0.
         23    2    4    4    0    0 -0.37624360902E+03  0.17123454974E+03  0.10361571034E+04  0.11191476893E+04  0.89383909497E+02 0.  0.
         23    2    4    4    0    0  0.20847028607E+03  0.30175488727E+03  0.18998967816E+03  0.42302649685E+03  0.91320682547E+02 0.  0.
          2    1    3    3  502    0  0.14766558636E+03 -0.46186635675E+03 -0.10393847109E+04  0.11469290449E+04  0.00000000000E+00 0. -1.
         -1    1    3    3    0  502  0.20107736597E+02 -0.11123080272E+02 -0.58259169146E+02  0.62627268624E+02  0.00000000000E+00 0.  1.
         11    1    5    5    0    0 -0.28363390919E+03  0.10460614337E+03  0.83282731463E+03  0.88599772893E+03  0.00000000000E+00 0.  1.
        -11    1    5    5    0    0 -0.92609699837E+02  0.66628406372E+02  0.20332978875E+03  0.23314996040E+03  0.00000000000E+00 0. -1.
          4    1    6    6  503    0 -0.63942735648E+01  0.27427881553E+02  0.24234657170E+02  0.37155000054E+02  0.00000000000E+00 0. -1.
         -4    1    6    6    0  503  0.21486455963E+03  0.27432700572E+03  0.16575502099E+03  0.38587149679E+03  0.00000000000E+00 0.  1.
<mgrwt>
<rscale>  0 0.27487284E+04</rscale>
<asrwt>0</asrwt>
<pdfrwt beam="1">  1        2 0.20178674E+00 0.27487284E+04</pdfrwt>
<pdfrwt beam="2">  1       -1 0.22155642E+00 0.27487284E+04</pdfrwt>
<totfact> 0.17407271E+00</totfact>
</mgrwt>
</event>
<event>
12    6  0.1510140E-007  0.1636042E+04  0.7818608E-02  0.8798707E-01
          2   -1    0    0  501    0  0.00000000000E+00  0.00000000000E+00  0.79652339169E+03  0.79652339169E+03  0.00000000000E+00 0. -1.
         -1   -1    0    0    0  501 -0.00000000000E+00 -0.00000000000E+00 -0.84009904658E+03  0.84009904658E+03  0.00000000000E+00 0.  1.
         24    2    1    2    0    0  0.53087551254E+03  0.10173922783E+03  0.14634485524E+03  0.56831014272E+03  0.96849994179E+02 0.  0.
        254    2    1    2    0    0 -0.53087551254E+03 -0.10173922783E+03 -0.18992051012E+03  0.10683122955E+04  0.90168823900E+03 0.  0.
         23    2    4    4    0    0  0.14859881574E+02  0.18278947261E+03 -0.36783789812E+03  0.42104915918E+03  0.91350247849E+02 0.  0.
         23    2    4    4    0    0 -0.54573539412E+03 -0.28452870044E+03  0.17791738799E+03  0.64726313636E+03  0.92256538965E+02 0.  0.
          2    1    3    3  502    0  0.42868791268E+03  0.53731709178E+02  0.14391554241E+03  0.45538127585E+03  0.00000000000E+00 0. -1.
         -1    1    3    3    0  502  0.10218759986E+03  0.48007518651E+02  0.24293128324E+01  0.11292886687E+03  0.00000000000E+00 0.  1.
         11    1    5    5    0    0  0.22378962490E+02  0.11104390834E+03 -0.12959066529E+03  0.17212003972E+03  0.00000000000E+00 0. -1.
        -11    1    5    5    0    0 -0.75190809161E+01  0.71745564267E+02 -0.23824723282E+03  0.24892911946E+03  0.00000000000E+00 0.  1.
          2    1    6    6  503    0 -0.41156871188E+03 -0.25298990315E+03  0.12015933319E+03  0.49782623579E+03  0.00000000000E+00 0. -1.
         -2    1    6    6    0  503 -0.13416668224E+03 -0.31538797287E+02  0.57758054804E+02  0.14943690057E+03  0.00000000000E+00 0.  1.
<mgrwt>
<rscale>  0 0.16360422E+04</rscale>
<asrwt>0</asrwt>
<pdfrwt beam="1">  1        2 0.12254206E+00 0.16360422E+04</pdfrwt>
<pdfrwt beam="2">  1       -1 0.12924601E+00 0.16360422E+04</pdfrwt>
<totfact> 0.19470750E+01</totfact>
</mgrwt>
</event>
<event>
12    6  0.1510140E-007  0.1871803E+04  0.7818608E-02  0.8669020E-01
         -1   -1    0    0    0  501 -0.00000000000E+00  0.00000000000E+00  0.21998214670E+03  0.21998214670E+03  0.00000000000E+00 0.  1.
          2   -1    0    0  501    0  0.00000000000E+00 -0.00000000000E+00 -0.39817397979E+04  0.39817397979E+04  0.00000000000E+00 0. -1.
         24    2    1    2    0    0  0.47813916694E+03  0.36439681758E+03 -0.23035388862E+04  0.23821588137E+04  0.83588934302E+02 0.  0.
        254    2    1    2    0    0 -0.47813916694E+03 -0.36439681758E+03 -0.14582187650E+04  0.18195631309E+04  0.90719673558E+03 0.  0.
         23    2    4    4    0    0 -0.52108978486E+03 -0.60640119972E+03 -0.12415471334E+04  0.14793327432E+04  0.87915310011E+02 0.  0.
         23    2    4    4    0    0  0.42950617926E+02  0.24200438214E+03 -0.21667163162E+03  0.34023038770E+03  0.91647390642E+02 0.  0.
          2    1    3    3  502    0  0.20702615281E+03  0.12564355505E+03 -0.80139613763E+03  0.83718689687E+03  0.00000000000E+00 0. -1.
         -1    1    3    3    0  502  0.27111301412E+03  0.23875326254E+03 -0.15021427486E+04  0.15449719169E+04  0.00000000000E+00 0.  1.
         11    1    5    5    0    0 -0.25076813346E+03 -0.34229293650E+03 -0.70991320380E+03  0.82705856387E+03  0.00000000000E+00 0.  1.
        -11    1    5    5    0    0 -0.27032165140E+03 -0.26410826323E+03 -0.53163392955E+03  0.65227417929E+03  0.00000000000E+00 0. -1.
          2    1    6    6  503    0  0.15612589793E+02  0.71161761175E+00 -0.30393232320E+02  0.34176131006E+02  0.00000000000E+00 0. -1.
         -2    1    6    6    0  503  0.27338028133E+02  0.24129276453E+03 -0.18627839930E+03  0.30605425670E+03  0.00000000000E+00 0.  1.
<mgrwt>
<rscale>  0 0.18718031E+04</rscale>
<asrwt>0</asrwt>
<pdfrwt beam="1">  1        2 0.61257535E+00 0.18718031E+04</pdfrwt>
<pdfrwt beam="2">  1       -1 0.33843408E-01 0.18718031E+04</pdfrwt>
<totfact> 0.31568824E+00</totfact>
</mgrwt>
</event>
<event>
12    6  0.1510140E-007  0.1411379E+04  0.7818608E-02  0.8945623E-01
          2   -1    0    0  501    0  0.00000000000E+00  0.00000000000E+00  0.90717332438E+03  0.90717332438E+03  0.00000000000E+00 0. -1.
         -1   -1    0    0    0  501 -0.00000000000E+00 -0.00000000000E+00 -0.54895549607E+03  0.54895549607E+03  0.00000000000E+00 0.  1.
         24    2    1    2    0    0 -0.14356914743E+03  0.76871195211E+02 -0.28756456021E+03  0.33957867133E+03  0.78096203430E+02 0.  0.
        254    2    1    2    0    0  0.14356914743E+03 -0.76871195211E+02  0.64578238851E+03  0.11165501491E+04  0.89617412451E+03 0.  0.
         23    2    4    4    0    0 -0.11052905840E+03 -0.10367302668E+03  0.79020921461E+03  0.80965905733E+03  0.90290736179E+02 0.  0.
         23    2    4    4    0    0  0.25409820583E+03  0.26801831467E+02 -0.14442682611E+03  0.30689109179E+03  0.89659342770E+02 0.  0.
          2    1    3    3  502    0 -0.11927893886E+03  0.53055120317E+02 -0.15466576184E+03  0.20239518012E+03  0.00000000000E+00 0. -1.
         -1    1    3    3    0  502 -0.24290208567E+02  0.23816074894E+02 -0.13289879836E+03  0.13718349122E+03  0.00000000000E+00 0.  1.
         11    1    5    5    0    0 -0.12164824169E+01 -0.56220254553E+02  0.29513866196E+03  0.30044804316E+03  0.00000000000E+00 0. -1.
        -11    1    5    5    0    0 -0.10931257598E+03 -0.47452772126E+02  0.49507055265E+03  0.50921101417E+03  0.00000000000E+00 0.  1.
          1    1    6    6  503    0  0.16880811486E+02 -0.74111469324E+01 -0.42726808520E+02  0.46534579203E+02  0.00000000000E+00 0. -1.
         -1    1    6    6    0  503  0.23721739434E+03  0.34212978399E+02 -0.10170001759E+03  0.26035651259E+03  0.00000000000E+00 0.  1.
<mgrwt>
<rscale>  0 0.14113792E+04</rscale>
<asrwt>0</asrwt>
<pdfrwt beam="1">  1        2 0.13956513E+00 0.14113792E+04</pdfrwt>
<pdfrwt beam="2">  1       -1 0.84454692E-01 0.14113792E+04</pdfrwt>
<totfact> 0.44694242E+01</totfact>
</mgrwt>
</event>
<event>
12    6  0.1510140E-007  0.1948103E+04  0.7818608E-02  0.8631276E-01
          2   -1    0    0  501    0  0.00000000000E+00  0.00000000000E+00  0.12345201940E+04  0.12345201940E+04  0.00000000000E+00 0. -1.
         -1   -1    0    0    0  501 -0.00000000000E+00 -0.00000000000E+00 -0.76853832239E+03  0.76853832239E+03  0.00000000000E+00 0.  1.
         24    2    1    2    0    0  0.54155991173E+03  0.26651902418E+03  0.66884533993E+03  0.90360863868E+03  0.69533839940E+02 0.  0.
        254    2    1    2    0    0 -0.54155991173E+03 -0.26651902418E+03 -0.20286346832E+03  0.10994498777E+04  0.89627948686E+03 0.  0.
         23    2    4    4    0    0 -0.25918328534E+03 -0.78867561278E+02 -0.54121191956E+03  0.61190195630E+03  0.90097694920E+02 0.  0.
         23    2    4    4    0    0 -0.28237662639E+03 -0.18765146291E+03  0.33834845124E+03  0.48754792141E+03  0.90959719361E+02 0.  0.
          4    1    3    3  502    0  0.47585232359E+03  0.24390526534E+03  0.55850327000E+03  0.77320832570E+03  0.00000000000E+00 0. -1.
         -3    1    3    3    0  502  0.65707588136E+02  0.22613758847E+02  0.11034206993E+03  0.13040031298E+03  0.00000000000E+00 0.  1.
         11    1    5    5    0    0 -0.12022242506E+03 -0.69637035613E+02 -0.33906245433E+03  0.36642338374E+03  0.00000000000E+00 0. -1.
        -11    1    5    5    0    0 -0.13896086027E+03 -0.92305256648E+01 -0.20214946523E+03  0.24547857256E+03  0.00000000000E+00 0.  1.
          2    1    6    6  503    0 -0.16460491519E+03 -0.56409733385E+02  0.15274337760E+03  0.23153266622E+03  0.00000000000E+00 0. -1.
         -2    1    6    6    0  503 -0.11777171120E+03 -0.13124172952E+03  0.18560507364E+03  0.25601525519E+03  0.00000000000E+00 0.  1.
<mgrwt>
<rscale>  0 0.19481027E+04</rscale>
<asrwt>0</asrwt>
<pdfrwt beam="1">  1        2 0.18992618E+00 0.19481027E+04</pdfrwt>
<pdfrwt beam="2">  1       -1 0.11823666E+00 0.19481027E+04</pdfrwt>
<totfact> 0.12335301E+01</totfact>
</mgrwt>
</event>
<event>
12    6  0.1510140E-007  0.1334422E+04  0.7818608E-02  0.9002705E-01
          2   -1    0    0  501    0  0.00000000000E+00  0.00000000000E+00  0.34077553002E+03  0.34077553002E+03  0.00000000000E+00 0. -1.
         -1   -1    0    0    0  501 -0.00000000000E+00 -0.00000000000E+00 -0.13063445355E+04  0.13063445355E+04  0.00000000000E+00 0.  1.
         24    2    1    2    0    0  0.15622916860E+03  0.31751450707E+03 -0.37753072803E+03  0.52344458959E+03  0.79004888720E+02 0.  0.
        254    2    1    2    0    0 -0.15622916860E+03 -0.31751450707E+03 -0.58803827742E+03  0.11236754759E+04  0.88973846951E+03 0.  0.
         23    2    4    4    0    0  0.12816051999E+03  0.25783560612E+03 -0.13003006270E+03  0.32989041172E+03  0.94950238929E+02 0.  0.
         23    2    4    4    0    0 -0.28438968859E+03 -0.57535011319E+03 -0.45800821473E+03  0.79378506419E+03  0.91749417711E+02 0.  0.
          2    1    3    3  502    0 -0.57710682743E+01  0.24457756508E+01 -0.83117240379E+00  0.63228075351E+01  0.00000000000E+00 0. -1.
         -3    1    3    3    0  502  0.16200023688E+03  0.31506873142E+03 -0.37669955563E+03  0.51712178205E+03  0.00000000000E+00 0.  1.
         11    1    5    5    0    0  0.48059417588E+02  0.23164086087E+02 -0.95247341706E+01  0.54194123890E+02  0.00000000000E+00 0. -1.
        -11    1    5    5    0    0  0.80101102404E+02  0.23467152003E+03 -0.12050532853E+03  0.27569628783E+03  0.00000000000E+00 0.  1.
          2    1    6    6  503    0 -0.11221670085E+02 -0.57728178945E+02 -0.17827198189E+02  0.61451424061E+02  0.00000000000E+00 0. -1.
         -2    1    6    6    0  503 -0.27316801851E+03 -0.51762193425E+03 -0.44018101654E+03  0.73233364013E+03  0.00000000000E+00 0.  1.
<mgrwt>
<rscale>  0 0.13344216E+04</rscale>
<asrwt>0</asrwt>
<pdfrwt beam="1">  1        2 0.52427005E-01 0.13344216E+04</pdfrwt>
<pdfrwt beam="2">  1       -1 0.20097608E+00 0.13344216E+04</pdfrwt>
<totfact> 0.15798206E+01</totfact>
</mgrwt>
</event>
<event>
12    6  0.1510140E-007  0.1385505E+04  0.7818608E-02  0.8964378E-01
         -1   -1    0    0    0  501 -0.00000000000E+00  0.00000000000E+00  0.66317427685E+03  0.66317427685E+03  0.00000000000E+00 0.  1.
          2   -1    0    0  501    0  0.00000000000E+00 -0.00000000000E+00 -0.72365004411E+03  0.72365004411E+03  0.00000000000E+00 0. -1.
         24    2    1    2    0    0  0.15102021774E+02 -0.49848102019E+02 -0.39861814314E+03  0.41588969162E+03  0.10655940699E+03 0.  0.
        254    2    1    2    0    0 -0.15102021774E+02  0.49848102019E+02  0.33814237588E+03  0.97093462934E+03  0.90865883793E+03 0.  0.
         23    2    4    4    0    0  0.86194804359E+02 -0.27019523768E+03 -0.17926453924E+03  0.34757988109E+03  0.90779887355E+02 0.  0.
         23    2    4    4    0    0 -0.10129682613E+03  0.32004333970E+03  0.51740691512E+03  0.62335474825E+03  0.90401549102E+02 0.  0.
          4    1    3    3  502    0  0.34695687343E+02 -0.52956362293E+02 -0.38849069344E+03  0.39361553058E+03  0.00000000000E+00 0. -1.
         -3    1    3    3    0  502 -0.19593665569E+02  0.31082602740E+01 -0.10127449702E+02  0.22274161035E+02  0.00000000000E+00 0.  1.
         11    1    5    5    0    0  0.36572485485E+01 -0.83823146948E+02 -0.13772274764E+02  0.85025707779E+02  0.00000000000E+00 0. -1.
        -11    1    5    5    0    0  0.82537555810E+02 -0.18637209073E+03 -0.16549226447E+03  0.26255417331E+03  0.00000000000E+00 0.  1.
          1    1    6    6  503    0  0.13078809117E+02  0.80782693598E+01  0.23734442977E+02  0.28277861786E+02  0.00000000000E+00 0. -1.
         -1    1    6    6    0  503 -0.11437563525E+03  0.31196507034E+03  0.49367247214E+03  0.59507688646E+03  0.00000000000E+00 0.  1.
<mgrwt>
<rscale>  0 0.13855051E+04</rscale>
<asrwt>0</asrwt>
<pdfrwt beam="1">  1        2 0.11133078E+00 0.13855051E+04</pdfrwt>
<pdfrwt beam="2">  1       -1 0.10202681E+00 0.13855051E+04</pdfrwt>
<totfact> 0.39789102E+01</totfact>
</mgrwt>
</event>
<event>
12    6  0.1510140E-007  0.2017361E+04  0.7818608E-02  0.8598547E-01
         -1   -1    0    0    0  501 -0.00000000000E+00  0.00000000000E+00  0.71821954638E+03  0.71821954638E+03  0.00000000000E+00 0.  1.
          2   -1    0    0  501    0  0.00000000000E+00 -0.00000000000E+00 -0.14166084173E+04  0.14166084173E+04  0.00000000000E+00 0. -1.
         24    2    1    2    0    0  0.64214682247E+03  0.24433679977E+03 -0.86320922447E+03  0.11062903357E+04  0.81823764192E+02 0.  0.
        254    2    1    2    0    0 -0.64214682247E+03 -0.24433679977E+03  0.16482035357E+03  0.10285376279E+04  0.74744290069E+03 0.  0.
         23    2    4    4    0    0 -0.42485223248E+03 -0.68704813349E+02  0.44278746347E+03  0.62410768419E+03  0.90718756838E+02 0.  0.
         23    2    4    4    0    0 -0.21729458999E+03 -0.17563198642E+03 -0.27796710990E+03  0.40442994374E+03  0.90743218562E+02 0.  0.
          2    1    3    3  502    0  0.50207554430E+03  0.20655094874E+03 -0.72654916966E+03  0.90698227245E+03  0.00000000000E+00 0. -1.
         -1    1    3    3    0  502  0.14007127817E+03  0.37785851029E+02 -0.13666005481E+03  0.19930806327E+03  0.00000000000E+00 0.  1.
         11    1    5    5    0    0 -0.10900504841E+02 -0.84641595015E+01  0.44198793227E+02  0.46303307922E+02  0.00000000000E+00 0.  1.
        -11    1    5    5    0    0 -0.41395172764E+03 -0.60240653847E+02  0.39858867024E+03  0.57780437627E+03  0.00000000000E+00 0. -1.
          1    1    6    6  503    0 -0.17966483617E+03 -0.13583527473E+03 -0.26566743610E+03  0.34829565289E+03  0.00000000000E+00 0. -1.
         -1    1    6    6    0  503 -0.37629753815E+02 -0.39796711690E+02 -0.12299673799E+02  0.56134290849E+02  0.00000000000E+00 0.  1.
<mgrwt>
<rscale>  0 0.20173605E+04</rscale>
<asrwt>0</asrwt>
<pdfrwt beam="1">  1        2 0.21793976E+00 0.20173605E+04</pdfrwt>
<pdfrwt beam="2">  1       -1 0.11049531E+00 0.20173605E+04</pdfrwt>
<totfact> 0.11302604E+01</totfact>
</mgrwt>
</event>
<event>
12    6  0.1510140E-007  0.2062698E+04  0.7818608E-02  0.8577856E-01
          2   -1    0    0  501    0  0.00000000000E+00  0.00000000000E+00  0.33795179632E+04  0.33795179632E+04  0.00000000000E+00 0. -1.
         -1   -1    0    0    0  501 -0.00000000000E+00 -0.00000000000E+00 -0.31474332093E+03  0.31474332093E+03  0.00000000000E+00 0.  1.
         24    2    1    2    0    0  0.60081044028E+03  0.71208966287E+02  0.22626575443E+04  0.23435531739E+04  0.81107422778E+02 0.  0.
        254    2    1    2    0    0 -0.60081044028E+03 -0.71208966287E+02  0.80211709801E+03  0.13507081103E+04  0.90276057636E+03 0.  0.
         23    2    4    4    0    0  0.16491042389E+03 -0.16791994304E+03  0.28103317131E+02  0.25387331126E+03  0.90935727612E+02 0.  0.
         23    2    4    4    0    0 -0.76572086417E+03  0.96710976757E+02  0.77401378088E+03  0.10968347990E+04  0.90927380362E+02 0.  0.
          4    1    3    3  502    0  0.18711462880E+03  0.20356357169E+02  0.56722301520E+03  0.59763551983E+03  0.00000000000E+00 0. -1.
         -1    1    3    3    0  502  0.41369581149E+03  0.50852609118E+02  0.16954345291E+04  0.17459176541E+04  0.00000000000E+00 0.  1.
         11    1    5    5    0    0  0.15033517047E+03 -0.13669787906E+03  0.54608002955E+02  0.21040201427E+03  0.00000000000E+00 0. -1.
        -11    1    5    5    0    0  0.14575253417E+02 -0.31222063980E+02 -0.26504685824E+02  0.43471296990E+02  0.00000000000E+00 0.  1.
          3    1    6    6  503    0 -0.38205764765E+03  0.86245685288E+02  0.35504221639E+03  0.52864103111E+03  0.00000000000E+00 0. -1.
         -3    1    6    6    0  503 -0.38366321653E+03  0.10465291469E+02  0.41897156449E+03  0.56819376791E+03  0.00000000000E+00 0.  1.
<mgrwt>
<rscale>  0 0.20626979E+04</rscale>
<asrwt>0</asrwt>
<pdfrwt beam="1">  1        2 0.51992581E+00 0.20626979E+04</pdfrwt>
<pdfrwt beam="2">  1       -1 0.48422052E-01 0.20626979E+04</pdfrwt>
<totfact> 0.44368768E+00</totfact>
</mgrwt>
</event>
<event>
12    6  0.1510140E-007  0.1127531E+04  0.7818608E-02  0.9178766E-01
         -1   -1    0    0    0  501 -0.00000000000E+00  0.00000000000E+00  0.17482217631E+03  0.17482217631E+03  0.00000000000E+00 0.  1.
          2   -1    0    0  501    0  0.00000000000E+00 -0.00000000000E+00 -0.18180263912E+04  0.18180263912E+04  0.00000000000E+00 0. -1.
         24    2    1    2    0    0  0.32974816759E+02 -0.57795187761E+02 -0.59524533103E+03  0.60893454008E+03  0.10980276734E+03 0.  0.
        254    2    1    2    0    0 -0.32974816759E+02  0.57795187761E+02 -0.10479588838E+04  0.13839140274E+04  0.90142808409E+03 0.  0.
         23    2    4    4    0    0 -0.13620400403E+03  0.25824437519E+03  0.27789117500E+01  0.30601191815E+03  0.91618140498E+02 0.  0.
         23    2    4    4    0    0  0.10322918727E+03 -0.20044918743E+03 -0.10507377956E+04  0.10779021092E+04  0.83587679881E+02 0.  0.
          2    1    3    3  502    0 -0.26803155288E+02  0.11681489467E+02 -0.25098916439E+03  0.25268642024E+03  0.00000000000E+00 0. -1.
         -1    1    3    3    0  502  0.59777972047E+02 -0.69476677229E+02 -0.34425616664E+03  0.35624811984E+03  0.00000000000E+00 0.  1.
         11    1    5    5    0    0 -0.13017480010E+03  0.25824126866E+03  0.17884061351E+02  0.28974794403E+03  0.00000000000E+00 0.  1.
        -11    1    5    5    0    0 -0.60292039379E+01  0.31065303824E-02 -0.15105149601E+02  0.16263974122E+02  0.00000000000E+00 0. -1.
          2    1    6    6  503    0  0.56760855833E+02 -0.15213325662E+03 -0.57582385320E+03  0.59828039617E+03  0.00000000000E+00 0. -1.
         -2    1    6    6    0  503  0.46468331442E+02 -0.48315930809E+02 -0.47491394236E+03  0.47962171307E+03  0.00000000000E+00 0.  1.
<mgrwt>
<rscale>  0 0.11275306E+04</rscale>
<asrwt>0</asrwt>
<pdfrwt beam="1">  1        2 0.27969637E+00 0.11275306E+04</pdfrwt>
<pdfrwt beam="2">  1       -1 0.26895719E-01 0.11275306E+04</pdfrwt>
<totfact> 0.11763837E+02</totfact>
</mgrwt>
</event>
<event>
12    6  0.1510140E-007  0.1902086E+04  0.7818608E-02  0.8653819E-01
         -1   -1    0    0    0  501 -0.00000000000E+00  0.00000000000E+00  0.13396044173E+04  0.13396044173E+04  0.00000000000E+00 0.  1.
          2   -1    0    0  501    0  0.00000000000E+00 -0.00000000000E+00 -0.67518647992E+03  0.67518647992E+03  0.00000000000E+00 0. -1.
         24    2    1    2    0    0  0.39808547697E+03  0.22582403041E+03  0.86235498627E+03  0.97966540109E+03  0.81361145854E+02 0.  0.
        254    2    1    2    0    0 -0.39808547697E+03 -0.22582403041E+03 -0.19793704888E+03  0.10351254961E+04  0.90710373043E+03 0.  0.
         23    2    4    4    0    0 -0.11137711049E+03 -0.26871651378E+03 -0.51334470189E+03  0.59706068999E+03  0.91352389380E+02 0.  0.
         23    2    4    4    0    0 -0.28670836648E+03  0.42892483367E+02  0.31540765301E+03  0.43806480616E+03  0.91527778726E+02 0.  0.
          2    1    3    3  502    0  0.14314278311E+03  0.52778479465E+02  0.34983618216E+03  0.38165531386E+03  0.00000000000E+00 0. -1.
         -1    1    3    3    0  502  0.25494269385E+03  0.17304555095E+03  0.51251880411E+03  0.59801008722E+03  0.00000000000E+00 0.  1.
         11    1    5    5    0    0 -0.53148613871E+02 -0.98777383971E+02 -0.28668297957E+03  0.30784554165E+03  0.00000000000E+00 0.  1.
        -11    1    5    5    0    0 -0.58228496617E+02 -0.16993912981E+03 -0.22666172233E+03  0.28921514834E+03  0.00000000000E+00 0. -1.
          4    1    6    6  503    0 -0.68801625536E+01  0.18946385562E+01 -0.64406829414E+01  0.96129438141E+01  0.00000000000E+00 0. -1.
         -4    1    6    6    0  503 -0.27982820393E+03  0.40997844811E+02  0.32184833595E+03  0.42845186235E+03  0.00000000000E+00 0.  1.
<mgrwt>
<rscale>  0 0.19020860E+04</rscale>
<asrwt>0</asrwt>
<pdfrwt beam="1">  1        2 0.10387484E+00 0.19020860E+04</pdfrwt>
<pdfrwt beam="2">  1       -1 0.20609299E+00 0.19020860E+04</pdfrwt>
<totfact> 0.62656281E+00</totfact>
</mgrwt>
</event>
<event>
12    6  0.1510140E-007  0.1558462E+04  0.7818608E-02  0.8846481E-01
         -3   -1    0    0    0  501 -0.00000000000E+00  0.00000000000E+00  0.67023733949E+03  0.67023733949E+03  0.00000000000E+00 0.  1.
          2   -1    0    0  501    0  0.00000000000E+00 -0.00000000000E+00 -0.90594899745E+03  0.90594899745E+03  0.00000000000E+00 0. -1.
         24    2    1    2    0    0 -0.17693127929E+03 -0.38158448857E+03  0.19923010596E+03  0.47182492797E+03  0.77554677626E+02 0.  0.
        254    2    1    2    0    0  0.17693127929E+03  0.38158448857E+03 -0.43494176392E+03  0.11043614090E+04  0.92386599900E+03 0.  0.
         23    2    4    4    0    0 -0.21613399969E+03  0.38966117335E+03  0.67739206634E+02  0.45990372377E+03  0.91504640244E+02 0.  0.
         23    2    4    4    0    0  0.39306527898E+03 -0.80766847840E+01 -0.50268097056E+03  0.64445768520E+03  0.89844329116E+02 0.  0.
          2    1    3    3  502    0 -0.66223090373E+02 -0.19721211414E+03  0.63465705812E+02  0.21749945167E+03  0.00000000000E+00 0. -1.
         -1    1    3    3    0  502 -0.11070818892E+03 -0.18437237443E+03  0.13576440015E+03  0.25432547630E+03  0.00000000000E+00 0.  1.
         11    1    5    5    0    0 -0.12615662137E+03  0.29974327788E+03  0.26976360386E+02  0.32632690629E+03  0.00000000000E+00 0. -1.
        -11    1    5    5    0    0 -0.89977378316E+02  0.89917895478E+02  0.40762846248E+02  0.13357681749E+03  0.00000000000E+00 0.  1.
          2    1    6    6  503    0  0.32722219593E+03 -0.36634390285E+02 -0.38478210503E+03  0.50643233745E+03  0.00000000000E+00 0. -1.
         -2    1    6    6    0  503  0.65843083046E+02  0.28557705501E+02 -0.11789886553E+03  0.13802534775E+03  0.00000000000E+00 0.  1.
<mgrwt>
<rscale>  0 0.15584619E+04</rscale>
<asrwt>0</asrwt>
<pdfrwt beam="1">  1        2 0.13937677E+00 0.15584619E+04</pdfrwt>
<pdfrwt beam="2">  1       -3 0.10311344E+00 0.15584619E+04</pdfrwt>
<totfact> 0.14385976E+01</totfact>
</mgrwt>
</event>
<event>
12    6  0.1510140E-007  0.1744175E+04  0.7818608E-02  0.8736563E-01
          2   -1    0    0  501    0  0.00000000000E+00  0.00000000000E+00  0.12611406176E+04  0.12611406176E+04  0.00000000000E+00 0. -1.
         -1   -1    0    0    0  501 -0.00000000000E+00 -0.00000000000E+00 -0.60305464234E+03  0.60305464234E+03  0.00000000000E+00 0.  1.
         24    2    1    2    0    0 -0.21077672119E+03  0.52893529718E+02 -0.38782866068E+03  0.45166352920E+03  0.79776700123E+02 0.  0.
        254    2    1    2    0    0  0.21077672119E+03 -0.52893529718E+02  0.10459146360E+04  0.14125317308E+04  0.92416660459E+03 0.  0.
         23    2    4    4    0    0  0.17973842212E+03 -0.20310400918E+02  0.12063431804E+04  0.12229863952E+04  0.87826198331E+02 0.  0.
         23    2    4    4    0    0  0.31038299075E+02 -0.32583128801E+02 -0.16042854445E+03  0.18954533559E+03  0.90360832652E+02 0.  0.
          2    1    3    3  502    0 -0.11461054590E+02  0.81719815488E+01 -0.86405159361E+02  0.87544209511E+02  0.00000000000E+00 0. -1.
         -1    1    3    3    0  502 -0.19931566660E+03  0.44721548170E+02 -0.30142350132E+03  0.36411931969E+03  0.00000000000E+00 0.  1.
         11    1    5    5    0    0  0.88785433482E+02  0.29592847847E+02  0.69059974748E+03  0.69691219036E+03  0.00000000000E+00 0. -1.
        -11    1    5    5    0    0  0.90952988634E+02 -0.49903248765E+02  0.51574343293E+03  0.52607420483E+03  0.00000000000E+00 0.  1.
          3    1    6    6  503    0  0.28799790830E+02 -0.49389201954E+02 -0.44676851344E+02  0.72558543725E+02  0.00000000000E+00 0. -1.
         -3    1    6    6    0  503  0.22385082454E+01  0.16806073153E+02 -0.11575169310E+03  0.11698679186E+03  0.00000000000E+00 0.  1.
<mgrwt>
<rscale>  0 0.17441751E+04</rscale>
<asrwt>0</asrwt>
<pdfrwt beam="1">  1        2 0.19402163E+00 0.17441751E+04</pdfrwt>
<pdfrwt beam="2">  1       -1 0.92777638E-01 0.17441751E+04</pdfrwt>
<totfact> 0.21268173E+01</totfact>
</mgrwt>
</event>
<event>
12    6  0.1510140E-007  0.1606180E+04  0.7818608E-02  0.8816761E-01
          2   -1    0    0  501    0  0.00000000000E+00  0.00000000000E+00  0.10553829097E+04  0.10553829097E+04  0.00000000000E+00 0. -1.
         -1   -1    0    0    0  501 -0.00000000000E+00 -0.00000000000E+00 -0.61110823208E+03  0.61110823208E+03  0.00000000000E+00 0.  1.
         24    2    1    2    0    0 -0.35936122779E+03 -0.30445656838E+03 -0.13067619832E+03  0.49713525278E+03  0.90735311128E+02 0.  0.
        254    2    1    2    0    0  0.35936122779E+03  0.30445656838E+03  0.57495087592E+03  0.11693558890E+04  0.90276818248E+03 0.  0.
         23    2    4    4    0    0  0.24236437137E+03  0.12845455923E+03  0.79793701547E+03  0.84863453940E+03  0.90752622606E+02 0.  0.
         23    2    4    4    0    0  0.11699685642E+03  0.17600200915E+03 -0.22298613955E+03  0.32072134958E+03  0.92056471827E+02 0.  0.
          2    1    3    3  502    0 -0.90315899236E+02 -0.52823839883E+02 -0.64341098221E+02  0.12282954301E+03  0.00000000000E+00 0. -1.
         -3    1    3    3    0  502 -0.26904532855E+03 -0.25163272850E+03 -0.66335100097E+02  0.37430570978E+03  0.00000000000E+00 0.  1.
         11    1    5    5    0    0 -0.70203260502E+01  0.26580587453E+01  0.43682562850E+02  0.44322867138E+02  0.00000000000E+00 0. -1.
        -11    1    5    5    0    0  0.24938469742E+03  0.12579650049E+03  0.75425445262E+03  0.80431167226E+03  0.00000000000E+00 0.  1.
          2    1    6    6  503    0 -0.39459156007E+01  0.37851894734E+00  0.64012051706E+01  0.75292067416E+01  0.00000000000E+00 0. -1.
         -2    1    6    6    0  503  0.12094277202E+03  0.17562349020E+03 -0.22938734472E+03  0.31319214283E+03  0.00000000000E+00 0.  1.
<mgrwt>
<rscale>  0 0.16061795E+04</rscale>
<asrwt>0</asrwt>
<pdfrwt beam="1">  1        2 0.16236660E+00 0.16061795E+04</pdfrwt>
<pdfrwt beam="2">  1       -1 0.94016651E-01 0.16061795E+04</pdfrwt>
<totfact> 0.27840496E+01</totfact>
</mgrwt>
</event>
<event>
12    6  0.1510140E-007  0.2253554E+04  0.7818608E-02  0.8496463E-01
         -1   -1    0    0    0  501 -0.00000000000E+00  0.00000000000E+00  0.58512174920E+03  0.58512174920E+03  0.00000000000E+00 0.  1.
          2   -1    0    0  501    0  0.00000000000E+00 -0.00000000000E+00 -0.21698502962E+04  0.21698502962E+04  0.00000000000E+00 0. -1.
         24    2    1    2    0    0  0.46815900038E+03  0.68739341851E+03 -0.12199396818E+04  0.14786058728E+04  0.79623730731E+02 0.  0.
        254    2    1    2    0    0 -0.46815900038E+03 -0.68739341851E+03 -0.36478886517E+03  0.12763661726E+04  0.89685959260E+03 0.  0.
         23    2    4    4    0    0 -0.40086843134E+03 -0.76962489749E+03  0.13472668368E+02  0.87268157506E+03  0.91507576579E+02 0.  0.
         23    2    4    4    0    0 -0.67290569035E+02  0.82231478985E+02 -0.37826153354E+03  0.40368459749E+03  0.92679176068E+02 0.  0.
          4    1    3    3  502    0  0.37341351472E+03  0.55701328235E+03 -0.92508521646E+03  0.11425778343E+04  0.00000000000E+00 0. -1.
         -3    1    3    3    0  502  0.94745485654E+02  0.13038013616E+03 -0.29485446534E+03  0.33602803854E+03  0.00000000000E+00 0.  1.
         11    1    5    5    0    0 -0.37897905272E+03 -0.75499076372E+03  0.21843814815E+02  0.84505226344E+03  0.00000000000E+00 0.  1.
        -11    1    5    5    0    0 -0.21889378621E+02 -0.14634133773E+02 -0.83711464472E+01  0.27629311619E+02  0.00000000000E+00 0. -1.
          2    1    6    6  503    0  0.20700023251E+02  0.27015386346E+01 -0.38184634366E+02  0.43518450975E+02  0.00000000000E+00 0. -1.
         -2    1    6    6    0  503 -0.87990592286E+02  0.79529940350E+02 -0.34007689917E+03  0.36016614651E+03  0.00000000000E+00 0.  1.
<mgrwt>
<rscale>  0 0.22535542E+04</rscale>
<asrwt>0</asrwt>
<pdfrwt beam="1">  1        2 0.33382312E+00 0.22535542E+04</pdfrwt>
<pdfrwt beam="2">  1       -1 0.90018732E-01 0.22535542E+04</pdfrwt>
<totfact> 0.67133130E+00</totfact>
</mgrwt>
</event>
<event>
12    6  0.1510140E-007  0.1181921E+04  0.7818608E-02  0.9128830E-01
          2   -1    0    0  501    0  0.00000000000E+00  0.00000000000E+00  0.15962953124E+04  0.15962953124E+04  0.00000000000E+00 0. -1.
         -1   -1    0    0    0  501 -0.00000000000E+00 -0.00000000000E+00 -0.21877815931E+03  0.21877815931E+03  0.00000000000E+00 0.  1.
         24    2    1    2    0    0  0.18104129245E+03  0.10074158235E+03  0.86681962451E+02  0.23821614834E+03  0.79425151740E+02 0.  0.
        254    2    1    2    0    0 -0.18104129245E+03 -0.10074158235E+03  0.12908351906E+04  0.15768573233E+04  0.88164545758E+03 0.  0.
         23    2    4    4    0    0  0.13120750769E+03 -0.23396011134E+03  0.11725512815E+04  0.12062312488E+04  0.90358031835E+02 0.  0.
         23    2    4    4    0    0 -0.31224880014E+03  0.13321852899E+03  0.11828390909E+03  0.37062607458E+03  0.90144963006E+02 0.  0.
          4    1    3    3  502    0  0.24397980983E+02  0.97639127448E+01  0.45350323346E+02  0.52414189832E+02  0.00000000000E+00 0. -1.
         -1    1    3    3    0  502  0.15664331146E+03  0.90977669605E+02  0.41331639105E+02  0.18580195851E+03  0.00000000000E+00 0.  1.
         11    1    5    5    0    0  0.13993374896E+03 -0.19000896410E+03  0.92291863561E+03  0.95260887487E+03  0.00000000000E+00 0.  1.
        -11    1    5    5    0    0 -0.87262412676E+01 -0.43951147243E+02  0.24963264591E+03  0.25362237389E+03  0.00000000000E+00 0. -1.
          1    1    6    6  503    0 -0.85719864558E+02  0.79807887427E+02  0.24234277273E+02  0.11960139744E+03  0.00000000000E+00 0. -1.
         -1    1    6    6    0  503 -0.22652893558E+03  0.53410641567E+02  0.94049631820E+02  0.25102467714E+03  0.00000000000E+00 0.  1.
<mgrwt>
<rscale>  0 0.11819214E+04</rscale>
<asrwt>0</asrwt>
<pdfrwt beam="1">  1        2 0.24558389E+00 0.11819214E+04</pdfrwt>
<pdfrwt beam="2">  1       -1 0.33658179E-01 0.11819214E+04</pdfrwt>
<totfact> 0.10492116E+02</totfact>
</mgrwt>
</event>
<event>
12    6  0.1510140E-007  0.1340050E+04  0.7818608E-02  0.8998394E-01
         -1   -1    0    0    0  501 -0.00000000000E+00  0.00000000000E+00  0.25715452192E+03  0.25715452192E+03  0.00000000000E+00 0.  1.
          2   -1    0    0  501    0  0.00000000000E+00 -0.00000000000E+00 -0.17457741405E+04  0.17457741405E+04  0.00000000000E+00 0. -1.
         24    2    1    2    0    0 -0.96792662106E+02 -0.33468080492E+03 -0.29914703831E+03  0.46614846688E+03  0.80158480685E+02 0.  0.
        254    2    1    2    0    0  0.96792662106E+02  0.33468080492E+03 -0.11894725802E+04  0.15367801955E+04  0.90855285458E+03 0.  0.
         23    2    4    4    0    0 -0.29419993065E+03  0.27132505939E+03 -0.18057855073E+03  0.44902991752E+03  0.94065757791E+02 0.  0.
         23    2    4    4    0    0  0.39099259276E+03  0.63355745528E+02 -0.10088940295E+04  0.10877502780E+04  0.91893125014E+02 0.  0.
          2    1    3    3  502    0  0.98880737870E+01 -0.11446619801E+02 -0.40571244239E+01  0.15660758815E+02  0.00000000000E+00 0. -1.
         -1    1    3    3    0  502 -0.10668073589E+03 -0.32323418512E+03 -0.29508991389E+03  0.45048770806E+03  0.00000000000E+00 0.  1.
         11    1    5    5    0    0  0.22466802955E+01  0.11962138844E+02  0.55499338819E+01  0.13376924317E+02  0.00000000000E+00 0.  1.
        -11    1    5    5    0    0 -0.29644661095E+03  0.25936292055E+03 -0.18612848462E+03  0.43565299320E+03  0.00000000000E+00 0. -1.
          3    1    6    6  503    0  0.19338350316E+03  0.54557767356E+02 -0.61477129141E+03  0.64677466711E+03  0.00000000000E+00 0. -1.
         -3    1    6    6    0  503  0.19760908960E+03  0.87979781718E+01 -0.39412273810E+03  0.44097561089E+03  0.00000000000E+00 0.  1.
<mgrwt>
<rscale>  0 0.13400503E+04</rscale>
<asrwt>0</asrwt>
<pdfrwt beam="1">  1        2 0.26858063E+00 0.13400503E+04</pdfrwt>
<pdfrwt beam="2">  1       -1 0.39562235E-01 0.13400503E+04</pdfrwt>
<totfact> 0.64006615E+01</totfact>
</mgrwt>
</event>
<event>
12    6  0.1510140E-007  0.1705589E+04  0.7818608E-02  0.8758183E-01
         -1   -1    0    0    0  501 -0.00000000000E+00  0.00000000000E+00  0.66399177200E+03  0.66399177200E+03  0.00000000000E+00 0.  1.
          2   -1    0    0  501    0  0.00000000000E+00 -0.00000000000E+00 -0.10952822269E+04  0.10952822269E+04  0.00000000000E+00 0. -1.
         24    2    1    2    0    0  0.11880453393E+02  0.41395565974E+03 -0.62627155033E+03  0.75511386142E+03  0.80501276671E+02 0.  0.
        254    2    1    2    0    0 -0.11880453393E+02 -0.41395565974E+03  0.19498109545E+03  0.10041601375E+04  0.89376703939E+03 0.  0.
         23    2    4    4    0    0 -0.21109379394E+03 -0.53532509006E+03 -0.12729972060E+03  0.59612365038E+03  0.89580387305E+02 0.  0.
         23    2    4    4    0    0  0.19921334054E+03  0.12136943032E+03  0.32228081605E+03  0.40803648709E+03  0.90622054353E+02 0.  0.
          2    1    3    3  502    0  0.21863296455E+02  0.22411744823E+03 -0.27249480057E+03  0.35349688920E+03  0.00000000000E+00 0. -1.
         -1    1    3    3    0  502 -0.99828430620E+01  0.18983821151E+03 -0.35377674976E+03  0.40161697222E+03  0.00000000000E+00 0.  1.
         11    1    5    5    0    0 -0.11480592705E+02 -0.91770962526E+02  0.31288293311E+01  0.92539197883E+02  0.00000000000E+00 0.  1.
        -11    1    5    5    0    0 -0.19961320123E+03 -0.44355412754E+03 -0.13042854993E+03  0.50358445250E+03  0.00000000000E+00 0. -1.
          1    1    6    6  503    0  0.41656159485E+02 -0.52938003609E+01  0.94950329247E+02  0.10382112005E+03  0.00000000000E+00 0. -1.
         -1    1    6    6    0  503  0.15755718106E+03  0.12666323068E+03  0.22733048680E+03  0.30421536704E+03  0.00000000000E+00 0.  1.
<mgrwt>
<rscale>  0 0.17055889E+04</rscale>
<asrwt>0</asrwt>
<pdfrwt beam="1">  1        2 0.16850496E+00 0.17055889E+04</pdfrwt>
<pdfrwt beam="2">  1       -1 0.10215258E+00 0.17055889E+04</pdfrwt>
<totfact> 0.21596598E+01</totfact>
</mgrwt>
</event>
<event>
12    6  0.1510140E-007  0.1094376E+04  0.7818608E-02  0.9210691E-01
         -1   -1    0    0    0  501 -0.00000000000E+00  0.00000000000E+00  0.11900391984E+04  0.11900391984E+04  0.00000000000E+00 0.  1.
          2   -1    0    0  501    0  0.00000000000E+00 -0.00000000000E+00 -0.25160065600E+03  0.25160065600E+03  0.00000000000E+00 0. -1.
         24    2    1    2    0    0  0.92702802817E+02  0.57884650137E+02  0.28153039959E+03  0.31639787427E+03  0.94359984000E+02 0.  0.
        254    2    1    2    0    0 -0.92702802817E+02 -0.57884650137E+02  0.65690814280E+03  0.11252419801E+04  0.90702633002E+03 0.  0.
         23    2    4    4    0    0 -0.14223348701E+03  0.81945054148E+02  0.84651580890E+03  0.86732000389E+03  0.93325332522E+02 0.  0.
         23    2    4    4    0    0  0.49530684196E+02 -0.13982970428E+03 -0.18960766610E+03  0.25792197623E+03  0.92558327005E+02 0.  0.
          2    1    3    3  502    0  0.25688833883E+02 -0.25377453552E+02  0.91586167568E+02  0.98447739562E+02  0.00000000000E+00 0. -1.
         -1    1    3    3    0  502  0.67013968934E+02  0.83262103688E+02  0.18994423202E+03  0.21795013471E+03  0.00000000000E+00 0.  1.
         11    1    5    5    0    0 -0.99870909089E+02  0.77997253091E+02  0.76444337323E+03  0.77487511307E+03  0.00000000000E+00 0.  1.
        -11    1    5    5    0    0 -0.42362577924E+02  0.39478010567E+01  0.82072435672E+02  0.92444890820E+02  0.00000000000E+00 0. -1.
          1    1    6    6  503    0  0.44090716871E+02 -0.14767260528E+03 -0.19370617213E+03  0.24753438304E+03  0.00000000000E+00 0.  1.
         -1    1    6    6    0  503  0.54399673258E+01  0.78429009976E+01  0.40985060275E+01  0.10387593187E+02  0.00000000000E+00 0. -1.
<mgrwt>
<rscale>  0 0.10943759E+04</rscale>
<asrwt>0</asrwt>
<pdfrwt beam="1">  1        2 0.38707794E-01 0.10943759E+04</pdfrwt>
<pdfrwt beam="2">  1       -1 0.18308295E+00 0.10943759E+04</pdfrwt>
<totfact> 0.30117013E+01</totfact>
</mgrwt>
</event>
<event>
12    6  0.1510140E-007  0.2626249E+04  0.7818608E-02  0.8359339E-01
          2   -1    0    0  501    0  0.00000000000E+00  0.00000000000E+00  0.12756092283E+04  0.12756092283E+04  0.00000000000E+00 0. -1.
         -1   -1    0    0    0  501 -0.00000000000E+00 -0.00000000000E+00 -0.13517434108E+04  0.13517434108E+04  0.00000000000E+00 0.  1.
         24    2    1    2    0    0 -0.56398249332E+03 -0.27442595469E+03 -0.10096101482E+04  0.11911611257E+04  0.78525910726E+02 0.  0.
        254    2    1    2    0    0  0.56398249332E+03  0.27442595469E+03  0.93347596567E+03  0.14361915134E+04  0.89324287136E+03 0.  0.
         23    2    4    4    0    0  0.48311113332E+03  0.14455323535E+03  0.10880137484E+04  0.12026337328E+04  0.90895398765E+02 0.  0.
         23    2    4    4    0    0  0.80871359999E+02  0.12987271934E+03 -0.15453778278E+03  0.23355778056E+03  0.85206868594E+02 0.  0.
          2    1    3    3  502    0 -0.23629895498E+03 -0.15145732919E+03 -0.40972700770E+03  0.49664145974E+03  0.00000000000E+00 0. -1.
         -1    1    3    3    0  502 -0.32768353834E+03 -0.12296862549E+03 -0.59988314046E+03  0.69451966592E+03  0.00000000000E+00 0.  1.
         11    1    5    5    0    0  0.22265971129E+03  0.79238712658E+02  0.40773968970E+03  0.47128311573E+03  0.00000000000E+00 0. -1.
        -11    1    5    5    0    0  0.26045142203E+03  0.65314522689E+02  0.68027405875E+03  0.73135061709E+03  0.00000000000E+00 0.  1.
          2    1    6    6  503    0  0.25268658342E+02  0.40339336092E+02 -0.13541707295E+01  0.47619333355E+02  0.00000000000E+00 0.  1.
         -2    1    6    6    0  503  0.55602701657E+02  0.89533383245E+02 -0.15318361205E+03  0.18593844720E+03  0.00000000000E+00 0. -1.
<mgrwt>
<rscale>  0 0.26262493E+04</rscale>
<asrwt>0</asrwt>
<pdfrwt beam="1">  1        2 0.19624757E+00 0.26262493E+04</pdfrwt>
<pdfrwt beam="2">  1       -1 0.20796053E+00 0.26262493E+04</pdfrwt>
<totfact> 0.22805013E+00</totfact>
</mgrwt>
</event>
<event>
12    6  0.1510140E-007  0.1767599E+04  0.7818608E-02  0.8723722E-01
          2   -1    0    0  501    0  0.00000000000E+00  0.00000000000E+00  0.24964686883E+04  0.24964686883E+04  0.00000000000E+00 0. -1.
         -1   -1    0    0    0  501 -0.00000000000E+00 -0.00000000000E+00 -0.31288260694E+03  0.31288260694E+03  0.00000000000E+00 0.  1.
         24    2    1    2    0    0  0.79138839609E+02  0.23163914779E+03 -0.14975570409E+03  0.29809575860E+03  0.80713441649E+02 0.  0.
        254    2    1    2    0    0 -0.79138839609E+02 -0.23163914779E+03  0.23333417855E+04  0.25112555366E+04  0.89554499150E+03 0.  0.
         23    2    4    4    0    0 -0.40835717074E+03  0.12302357567E+03  0.11094823025E+04  0.11920109606E+04  0.89714947055E+02 0.  0.
         23    2    4    4    0    0  0.32921833113E+03 -0.35466272346E+03  0.12238594830E+04  0.13192445760E+04  0.91672570779E+02 0.  0.
          2    1    3    3  502    0  0.19825552434E+02  0.13309700218E+01 -0.99299138881E+01  0.22213221296E+02  0.00000000000E+00 0. -1.
         -1    1    3    3    0  502  0.59313287175E+02  0.23030817777E+03 -0.13982579020E+03  0.27588253730E+03  0.00000000000E+00 0.  1.
         11    1    5    5    0    0 -0.23181135893E+03  0.39678821408E+02  0.69816522167E+03  0.73671269280E+03  0.00000000000E+00 0.  1.
        -11    1    5    5    0    0 -0.17654581181E+03  0.83344754267E+02  0.41131708081E+03  0.45529826784E+03  0.00000000000E+00 0. -1.
          1    1    6    6  503    0  0.10565720202E+02 -0.76727417317E+01  0.96939823706E+02  0.97815309790E+02  0.00000000000E+00 0. -1.
         -1    1    6    6    0  503  0.31865261093E+03 -0.34698998173E+03  0.11269196593E+04  0.12214292662E+04  0.00000000000E+00 0.  1.
<mgrwt>
<rscale>  0 0.17675991E+04</rscale>
<asrwt>0</asrwt>
<pdfrwt beam="1">  1        2 0.38407209E+00 0.17675991E+04</pdfrwt>
<pdfrwt beam="2">  1       -1 0.48135787E-01 0.17675991E+04</pdfrwt>
<totfact> 0.16283988E+01</totfact>
</mgrwt>
</event>
<event>
12    6  0.1510140E-007  0.2318751E+04  0.7818608E-02  0.8470565E-01
          2   -1    0    0  501    0  0.00000000000E+00  0.00000000000E+00  0.25163197277E+04  0.25163197277E+04  0.00000000000E+00 0. -1.
         -1   -1    0    0    0  501 -0.00000000000E+00 -0.00000000000E+00 -0.53417342273E+03  0.53417342273E+03  0.00000000000E+00 0.  1.
         24    2    1    2    0    0 -0.40566492708E+03 -0.18405611543E+03 -0.30936020628E+03  0.54843221209E+03  0.81446100798E+02 0.  0.
        254    2    1    2    0    0  0.40566492708E+03  0.18405611543E+03  0.22915065112E+04  0.25020609383E+04  0.90048107220E+03 0.  0.
         23    2    4    4    0    0  0.44993347189E+03  0.47038634263E+03  0.11902300681E+04  0.13597209929E+04  0.92141864009E+02 0.  0.
         23    2    4    4    0    0 -0.44268544802E+02 -0.28633022720E+03  0.11012764431E+04  0.11423399454E+04  0.90476757338E+02 0.  0.
          4    1    3    3  502    0 -0.33059260823E+01 -0.14572329162E+02 -0.18677008687E+02  0.23918874931E+02  0.00000000000E+00 0. -1.
         -3    1    3    3    0  502 -0.40235900100E+03 -0.16948378627E+03 -0.29068319759E+03  0.52451333716E+03  0.00000000000E+00 0.  1.
         11    1    5    5    0    0  0.14387672884E+03  0.19467066439E+03  0.37532273989E+03  0.44661430761E+03  0.00000000000E+00 0.  1.
        -11    1    5    5    0    0  0.30605674304E+03  0.27571567824E+03  0.81490732822E+03  0.91310668532E+03  0.00000000000E+00 0. -1.
          2    1    6    6  503    0 -0.71579094562E+02 -0.18375956277E+03  0.69709432916E+03  0.72445265368E+03  0.00000000000E+00 0. -1.
         -2    1    6    6    0  503  0.27310549759E+02 -0.10257066443E+03  0.40418211397E+03  0.41788729172E+03  0.00000000000E+00 0.  1.
<mgrwt>
<rscale>  0 0.23187506E+04</rscale>
<asrwt>0</asrwt>
<pdfrwt beam="1">  1        2 0.38712611E+00 0.23187506E+04</pdfrwt>
<pdfrwt beam="2">  1       -1 0.82180528E-01 0.23187506E+04</pdfrwt>
<totfact> 0.51655003E+00</totfact>
</mgrwt>
</event>
<event>
12    6  0.1510140E-007  0.1461472E+04  0.7818608E-02  0.8910486E-01
         -1   -1    0    0    0  501 -0.00000000000E+00  0.00000000000E+00  0.25158219340E+03  0.25158219340E+03  0.00000000000E+00 0.  1.
          2   -1    0    0  501    0  0.00000000000E+00 -0.00000000000E+00 -0.21224665109E+04  0.21224665109E+04  0.00000000000E+00 0. -1.
         24    2    1    2    0    0 -0.64657601243E+02 -0.36373185342E+02 -0.13260839765E+04  0.13305266375E+04  0.79365018113E+02 0.  0.
        254    2    1    2    0    0  0.64657601243E+02  0.36373185342E+02 -0.54480034094E+03  0.10435220668E+04  0.88692010829E+03 0.  0.
         23    2    4    4    0    0  0.69247936562E+02  0.26700484624E+03  0.13471413044E+03  0.32021343800E+03  0.91114676659E+02 0.  0.
         23    2    4    4    0    0 -0.45903353194E+01 -0.23063166090E+03 -0.67951447138E+03  0.72330862885E+03  0.90683083076E+02 0.  0.
          2    1    3    3  502    0 -0.81818768487E+01 -0.49457793684E+02 -0.68132846952E+03  0.68317018366E+03  0.00000000000E+00 0. -1.
         -1    1    3    3    0  502 -0.56475724394E+02  0.13084608342E+02 -0.64475550703E+03  0.64735645379E+03  0.00000000000E+00 0.  1.
         11    1    5    5    0    0  0.70630362884E+02  0.27046783925E+03  0.11857136752E+03  0.30364563133E+03  0.00000000000E+00 0.  1.
        -11    1    5    5    0    0 -0.13824263218E+01 -0.34629930150E+01  0.16142762916E+02  0.16567806666E+02  0.00000000000E+00 0. -1.
          2    1    6    6  503    0 -0.23547801826E+02 -0.13827604352E+02 -0.46471655336E+02  0.53900986657E+02  0.00000000000E+00 0. -1.
         -2    1    6    6    0  503  0.18957466506E+02 -0.21680405655E+03 -0.63304281605E+03  0.66940764219E+03  0.00000000000E+00 0.  1.
<mgrwt>
<rscale>  0 0.14614716E+04</rscale>
<asrwt>0</asrwt>
<pdfrwt beam="1">  1        2 0.32653331E+00 0.14614716E+04</pdfrwt>
<pdfrwt beam="2">  1       -1 0.38704952E-01 0.14614716E+04</pdfrwt>
<totfact> 0.40789247E+01</totfact>
</mgrwt>
</event>
<event>
12    6  0.1510140E-007  0.2606751E+04  0.7818608E-02  0.8365912E-01
         -1   -1    0    0    0  501 -0.00000000000E+00  0.00000000000E+00  0.46536846461E+03  0.46536846461E+03  0.00000000000E+00 0.  1.
          2   -1    0    0  501    0  0.00000000000E+00 -0.00000000000E+00 -0.36504147023E+04  0.36504147023E+04  0.00000000000E+00 0. -1.
         24    2    1    2    0    0 -0.84137688779E+02  0.15737373126E+03  0.38624365319E+03  0.43230940461E+03  0.76561215517E+02 0.  0.
        254    2    1    2    0    0  0.84137688779E+02 -0.15737373126E+03 -0.35712898909E+04  0.36834737623E+04  0.88431998220E+03 0.  0.
         23    2    4    4    0    0 -0.19395402302E+03  0.14158892205E+03 -0.27510403242E+04  0.27630194894E+04  0.91587377423E+02 0.  0.
         23    2    4    4    0    0  0.27809171180E+03 -0.29896265331E+03 -0.82024956666E+03  0.92045427286E+03  0.87823963519E+02 0.  0.
          4    1    3    3  502    0  0.15750835903E+01 -0.76938108125E+01  0.21316944300E+02  0.22717564293E+02  0.00000000000E+00 0. -1.
         -3    1    3    3    0  502 -0.85712772370E+02  0.16506754207E+03  0.36492670889E+03  0.40959184031E+03  0.00000000000E+00 0.  1.
         11    1    5    5    0    0 -0.92143730333E+02  0.97528051648E+02 -0.10802884074E+04  0.10885886418E+04  0.00000000000E+00 0. -1.
        -11    1    5    5    0    0 -0.10181029269E+03  0.44060870402E+02 -0.16707519168E+04  0.16744308476E+04  0.00000000000E+00 0.  1.
          4    1    6    6  503    0  0.27455418699E+03 -0.26006778970E+03 -0.75478237671E+03  0.84422253762E+03  0.00000000000E+00 0.  1.
         -4    1    6    6    0  503  0.35375248045E+01 -0.38894863611E+02 -0.65467189955E+02  0.76231735240E+02  0.00000000000E+00 0. -1.
<mgrwt>
<rscale>  0 0.26067511E+04</rscale>
<asrwt>0</asrwt>
<pdfrwt beam="1">  1        2 0.56160224E+00 0.26067511E+04</pdfrwt>
<pdfrwt beam="2">  1       -1 0.71595151E-01 0.26067511E+04</pdfrwt>
<totfact> 0.12579447E+00</totfact>
</mgrwt>
</event>
<event>
12    6  0.1510140E-007  0.1483737E+04  0.7818608E-02  0.8895340E-01
          2   -1    0    0  501    0  0.00000000000E+00  0.00000000000E+00  0.34070299524E+04  0.34070299524E+04  0.00000000000E+00 0. -1.
         -1   -1    0    0    0  501 -0.00000000000E+00 -0.00000000000E+00 -0.16153915328E+03  0.16153915328E+03  0.00000000000E+00 0.  1.
         24    2    1    2    0    0  0.37992585881E+03  0.26841412396E+03  0.11243010425E+04  0.12204981042E+04  0.95775716915E+02 0.  0.
        254    2    1    2    0    0 -0.37992585881E+03 -0.26841412396E+03  0.21211897566E+04  0.23480710015E+04  0.89308546316E+03 0.  0.
         23    2    4    4    0    0 -0.49194345739E+03  0.88926465609E+02  0.63911470526E+03  0.81646666159E+03  0.90740957999E+02 0.  0.
         23    2    4    4    0    0  0.11201759857E+03 -0.35734058957E+03  0.14820750514E+04  0.15316043399E+04  0.95000825880E+02 0.  0.
          4    1    3    3  502    0 -0.37855919183E+01  0.13837482947E+02  0.38636134664E+02  0.41213560175E+02  0.00000000000E+00 0. -1.
         -3    1    3    3    0  502  0.38371145073E+03  0.25457664101E+03  0.10856649078E+04  0.11792845440E+04  0.00000000000E+00 0.  1.
         11    1    5    5    0    0 -0.21940421787E+03 -0.39499202883E+01  0.25508748372E+03  0.33648690471E+03  0.00000000000E+00 0.  1.
        -11    1    5    5    0    0 -0.27253923952E+03  0.92876385898E+02  0.38402722153E+03  0.47997975688E+03  0.00000000000E+00 0. -1.
          4    1    6    6  503    0  0.43230844454E+02 -0.14986295763E+03  0.43934011326E+03  0.46620547734E+03  0.00000000000E+00 0. -1.
         -4    1    6    6    0  503  0.68786754120E+02 -0.20747763193E+03  0.10427349381E+04  0.10653988626E+04  0.00000000000E+00 0.  1.
<mgrwt>
<rscale>  0 0.14837368E+04</rscale>
<asrwt>0</asrwt>
<pdfrwt beam="1">  1        2 0.52415840E+00 0.14837368E+04</pdfrwt>
<pdfrwt beam="2">  1       -1 0.24852180E-01 0.14837368E+04</pdfrwt>
<totfact> 0.14892691E+01</totfact>
</mgrwt>
</event>
<event>
12    6  0.1510140E-007  0.1812331E+04  0.7818608E-02  0.8699769E-01
         -1   -1    0    0    0  501 -0.00000000000E+00  0.00000000000E+00  0.36173790076E+03  0.36173790076E+03  0.00000000000E+00 0.  1.
          2   -1    0    0  501    0  0.00000000000E+00 -0.00000000000E+00 -0.22699749119E+04  0.22699749119E+04  0.00000000000E+00 0. -1.
         24    2    1    2    0    0 -0.40393640227E+03  0.53330657365E+03 -0.57851584050E+03  0.88785397603E+03  0.77611767527E+02 0.  0.
        254    2    1    2    0    0  0.40393640227E+03 -0.53330657365E+03 -0.13297211706E+04  0.17438588366E+04  0.90846284012E+03 0.  0.
         23    2    4    4    0    0 -0.38460019234E+02 -0.87781791163E+02  0.10898975496E+03  0.17183063600E+03  0.91990134494E+02 0.  0.
         23    2    4    4    0    0  0.44239642150E+03 -0.44552478249E+03 -0.14387109256E+04  0.15720282006E+04  0.84714878219E+02 0.  0.
          2    1    3    3  502    0 -0.41327417224E+02  0.75795408843E+02 -0.46701321627E+02  0.98152497970E+02  0.00000000000E+00 0. -1.
         -1    1    3    3    0  502 -0.36260898504E+03  0.45751116481E+03 -0.53181451888E+03  0.78970147806E+03  0.00000000000E+00 0.  1.
         11    1    5    5    0    0 -0.62948075271E+02 -0.42045284547E+02  0.87436319754E+02  0.11565196127E+03  0.00000000000E+00 0. -1.
        -11    1    5    5    0    0  0.24488056037E+02 -0.45736506616E+02  0.21553435202E+02  0.56178674734E+02  0.00000000000E+00 0.  1.
          4    1    6    6  503    0  0.26182475549E+03 -0.30573335624E+03 -0.84701789762E+03  0.93779763627E+03  0.00000000000E+00 0. -1.
         -4    1    6    6    0  503  0.18057166602E+03 -0.13979142624E+03 -0.59169302794E+03  0.63423056433E+03  0.00000000000E+00 0.  1.
<mgrwt>
<rscale>  0 0.18123311E+04</rscale>
<asrwt>0</asrwt>
<pdfrwt beam="1">  1        2 0.34922691E+00 0.18123311E+04</pdfrwt>
<pdfrwt beam="2">  1       -1 0.55651985E-01 0.18123311E+04</pdfrwt>
<totfact> 0.16540741E+01</totfact>
</mgrwt>
</event>
<event>
12    6  0.1510140E-007  0.1130818E+04  0.7818608E-02  0.9175664E-01
         -1   -1    0    0    0  501 -0.00000000000E+00  0.00000000000E+00  0.39055217035E+03  0.39055217035E+03  0.00000000000E+00 0.  1.
          2   -1    0    0  501    0  0.00000000000E+00 -0.00000000000E+00 -0.81855230741E+03  0.81855230741E+03  0.00000000000E+00 0. -1.
         24    2    1    2    0    0 -0.13777396272E+03  0.13051939457E+03 -0.86452147606E+02  0.22169666686E+03  0.75222743289E+02 0.  0.
        254    2    1    2    0    0  0.13777396272E+03 -0.13051939457E+03 -0.34154798946E+03  0.98740781091E+03  0.90680878843E+03 0.  0.
         23    2    4    4    0    0  0.47680021015E+03 -0.34100945863E+02  0.21566800977E+01  0.48679341099E+03  0.91988362347E+02 0.  0.
         23    2    4    4    0    0 -0.33902624743E+03 -0.96418448704E+02 -0.34370466955E+03  0.50061439992E+03  0.90810593182E+02 0.  0.
          2    1    3    3  502    0 -0.13156036777E+03  0.13315889340E+03 -0.95710964587E+02  0.21023798420E+03  0.00000000000E+00 0. -1.
         -1    1    3    3    0  502 -0.62135949540E+01 -0.26394988332E+01  0.92588169808E+01  0.11458682657E+02  0.00000000000E+00 0.  1.
         11    1    5    5    0    0  0.42776975129E+03 -0.81485620745E+01  0.20571354728E+02  0.42834161579E+03  0.00000000000E+00 0. -1.
        -11    1    5    5    0    0  0.49030458856E+02 -0.25952383789E+02 -0.18414674630E+02  0.58451795196E+02  0.00000000000E+00 0.  1.
          2    1    6    6  503    0 -0.25714519475E+03 -0.92423163045E+02 -0.30640850378E+03  0.41055068315E+03  0.00000000000E+00 0. -1.
         -2    1    6    6    0  503 -0.81881052682E+02 -0.39952856591E+01 -0.37296165775E+02  0.90063716764E+02  0.00000000000E+00 0.  1.
<mgrwt>
<rscale>  0 0.11308181E+04</rscale>
<asrwt>0</asrwt>
<pdfrwt beam="1">  1        2 0.12593112E+00 0.11308181E+04</pdfrwt>
<pdfrwt beam="2">  1       -1 0.60084950E-01 0.11308181E+04</pdfrwt>
<totfact> 0.10613871E+02</totfact>
</mgrwt>
</event>
<event>
12    6  0.1510140E-007  0.1894522E+04  0.7818608E-02  0.8657588E-01
         -1   -1    0    0    0  501 -0.00000000000E+00  0.00000000000E+00  0.16900771518E+04  0.16900771518E+04  0.00000000000E+00 0.  1.
          2   -1    0    0  501    0  0.00000000000E+00 -0.00000000000E+00 -0.53092474657E+03  0.53092474657E+03  0.00000000000E+00 0. -1.
         24    2    1    2    0    0  0.36667946158E+03 -0.11507658627E+03  0.11738046609E+04  0.12378683558E+04  0.82487793780E+02 0.  0.
        254    2    1    2    0    0 -0.36667946158E+03  0.11507658627E+03 -0.14652255578E+02  0.98313354264E+03  0.90478750313E+03 0.  0.
         23    2    4    4    0    0 -0.24017880683E+03  0.24575061567E+03 -0.40729148815E+03  0.54090132657E+03  0.92782888573E+02 0.  0.
         23    2    4    4    0    0 -0.12650065476E+03 -0.13067402940E+03  0.39263923257E+03  0.44223221607E+03  0.91244990882E+02 0.  0.
          4    1    3    3  502    0  0.78753728089E+02  0.92074675954E+01  0.22252735435E+03  0.23623156136E+03  0.00000000000E+00 0. -1.
         -3    1    3    3    0  502  0.28792573349E+03 -0.12428405387E+03  0.95127730651E+03  0.10016367944E+04  0.00000000000E+00 0.  1.
         11    1    5    5    0    0 -0.95521012371E+01 -0.49613246972E+01 -0.33416381459E+02  0.35107149281E+02  0.00000000000E+00 0. -1.
        -11    1    5    5    0    0 -0.23062670559E+03  0.25071194037E+03 -0.37387510669E+03  0.50579417729E+03  0.00000000000E+00 0.  1.
          2    1    6    6  503    0 -0.77107299008E+02 -0.76125091729E+02  0.12876218313E+03  0.16828625896E+03  0.00000000000E+00 0.  1.
         -2    1    6    6    0  503 -0.49393355749E+02 -0.54548937670E+02  0.26387704944E+03  0.27394595711E+03  0.00000000000E+00 0. -1.
<mgrwt>
<rscale>  0 0.18945224E+04</rscale>
<asrwt>0</asrwt>
<pdfrwt beam="1">  1        2 0.81680731E-01 0.18945224E+04</pdfrwt>
<pdfrwt beam="2">  1       -1 0.26001187E+00 0.18945224E+04</pdfrwt>
<totfact> 0.36865532E+00</totfact>
</mgrwt>
</event>
<event>
12    6  0.1510140E-007  0.2794260E+04  0.7818608E-02  0.8305052E-01
          2   -1    0    0  501    0  0.00000000000E+00  0.00000000000E+00  0.33096864555E+04  0.33096864555E+04  0.00000000000E+00 0. -1.
         -1   -1    0    0    0  501 -0.00000000000E+00 -0.00000000000E+00 -0.58977578094E+03  0.58977578094E+03  0.00000000000E+00 0.  1.
         24    2    1    2    0    0 -0.40910830790E+02 -0.57367828615E+03  0.27697334257E+04  0.28299669138E+04  0.80678445051E+02 0.  0.
        254    2    1    2    0    0  0.40910830790E+02  0.57367828615E+03 -0.49822751237E+02  0.10694953226E+04  0.90030965029E+03 0.  0.
         23    2    4    4    0    0  0.23809566988E+03  0.30886637503E+03  0.35759561533E+03  0.53713410013E+03  0.92468544777E+02 0.  0.
         23    2    4    4    0    0 -0.19718483909E+03  0.26481191111E+03 -0.40741836657E+03  0.53236122245E+03  0.91714430267E+02 0.  0.
          2    1    3    3  502    0 -0.59645274087E+02 -0.44035080995E+03  0.22142484268E+04  0.22583982134E+04  0.00000000000E+00 0. -1.
         -1    1    3    3    0  502  0.18734443297E+02 -0.13332747619E+03  0.55548499891E+03  0.57156870041E+03  0.00000000000E+00 0.  1.
         11    1    5    5    0    0  0.58664641331E+02  0.14847318677E+03  0.12975169214E+03  0.20572148392E+03  0.00000000000E+00 0. -1.
        -11    1    5    5    0    0  0.17943102855E+03  0.16039318826E+03  0.22784392319E+03  0.33141261621E+03  0.00000000000E+00 0.  1.
          1    1    6    6  503    0 -0.42734663546E+01  0.60234421460E+02 -0.56638209214E+02  0.82790910046E+02  0.00000000000E+00 0. -1.
         -1    1    6    6    0  503 -0.19291137273E+03  0.20457748965E+03 -0.35078015735E+03  0.44957031240E+03  0.00000000000E+00 0.  1.
<mgrwt>
<rscale>  0 0.27942605E+04</rscale>
<asrwt>0</asrwt>
<pdfrwt beam="1">  1        2 0.50918252E+00 0.27942605E+04</pdfrwt>
<pdfrwt beam="2">  1       -1 0.90734737E-01 0.27942605E+04</pdfrwt>
<totfact> 0.12877411E+00</totfact>
</mgrwt>
</event>
<event>
12    6  0.1510140E-007  0.1508704E+04  0.7818608E-02  0.8878685E-01
          2   -1    0    0  501    0  0.00000000000E+00  0.00000000000E+00  0.12783382138E+04  0.12783382138E+04  0.00000000000E+00 0. -1.
         -1   -1    0    0    0  501 -0.00000000000E+00 -0.00000000000E+00 -0.44514596512E+03  0.44514596512E+03  0.00000000000E+00 0.  1.
         24    2    1    2    0    0 -0.17787354519E+03  0.30679963858E+03  0.66988249621E+03  0.76211110166E+03  0.79408791889E+02 0.  0.
        254    2    1    2    0    0  0.17787354519E+03 -0.30679963858E+03  0.16330975251E+03  0.96137307730E+03  0.87852325080E+03 0.  0.
         23    2    4    4    0    0  0.59536061025E+02 -0.36671709752E+03  0.47468388074E+03  0.61056927486E+03  0.97180659531E+02 0.  0.
         23    2    4    4    0    0  0.11833748416E+03  0.59917458944E+02 -0.31137412824E+03  0.35080380245E+03  0.92279998005E+02 0.  0.
          2    1    3    3  502    0 -0.72817666952E+02  0.20269565948E+03  0.38683157572E+03  0.44274892542E+03  0.00000000000E+00 0. -1.
         -1    1    3    3    0  502 -0.10505587823E+03  0.10410397910E+03  0.28305092050E+03  0.31936217624E+03  0.00000000000E+00 0.  1.
         11    1    5    5    0    0  0.72651195208E+02 -0.21487501111E+03  0.23562472214E+03  0.32706035567E+03  0.00000000000E+00 0. -1.
        -11    1    5    5    0    0 -0.13115134183E+02 -0.15184208642E+03  0.23905915860E+03  0.28350891919E+03  0.00000000000E+00 0.  1.
          2    1    6    6  503    0  0.31643309005E+02 -0.24880515769E+02 -0.81794775761E+02  0.91163174646E+02  0.00000000000E+00 0.  1.
         -2    1    6    6    0  503  0.86694175156E+02  0.84797974713E+02 -0.22957935248E+03  0.25964062780E+03  0.00000000000E+00 0. -1.
<mgrwt>
<rscale>  0 0.15087042E+04</rscale>
<asrwt>0</asrwt>
<pdfrwt beam="1">  1        2 0.19666742E+00 0.15087042E+04</pdfrwt>
<pdfrwt beam="2">  1       -1 0.68483995E-01 0.15087042E+04</pdfrwt>
<totfact> 0.40434900E+01</totfact>
</mgrwt>
</event>
<event>
12    6  0.1510140E-007  0.1661817E+04  0.7818608E-02  0.8783446E-01
          2   -1    0    0  501    0  0.00000000000E+00  0.00000000000E+00  0.30405959963E+04  0.30405959963E+04  0.00000000000E+00 0. -1.
         -1   -1    0    0    0  501 -0.00000000000E+00 -0.00000000000E+00 -0.22706364484E+03  0.22706364484E+03  0.00000000000E+00 0.  1.
         24    2    1    2    0    0 -0.28646593807E+03 -0.86320813898E+02  0.18541982498E+02  0.31147758743E+03  0.84619535382E+02 0.  0.
        254    2    1    2    0    0  0.28646593807E+03  0.86320813898E+02  0.27949903690E+04  0.29561820537E+04  0.91516509742E+03 0.  0.
         23    2    4    4    0    0  0.11177954999E+03  0.19503394938E+02 -0.85694410224E+01  0.14492425801E+03  0.89747172833E+02 0.  0.
         23    2    4    4    0    0  0.17468638809E+03  0.66817418959E+02  0.28035598100E+04  0.28112577957E+04  0.90790330408E+02 0.  0.
          2    1    3    3  502    0 -0.21555498222E+02 -0.48090584821E+01  0.26121455630E+02  0.34206680506E+02  0.00000000000E+00 0. -1.
         -1    1    3    3    0  502 -0.26491043985E+03 -0.81511755416E+02 -0.75794731317E+01  0.27727090692E+03  0.00000000000E+00 0.  1.
         11    1    5    5    0    0 -0.14933904750E+02  0.63981730088E+01  0.45210025325E+01  0.16864091818E+02  0.00000000000E+00 0.  1.
        -11    1    5    5    0    0  0.12671345474E+03  0.13105221930E+02 -0.13090443555E+02  0.12806016619E+03  0.00000000000E+00 0. -1.
          1    1    6    6  503    0  0.11538589446E+03  0.84865042156E+02  0.21496451389E+04  0.21544117998E+04  0.00000000000E+00 0. -1.
         -1    1    6    6    0  503  0.59300493626E+02 -0.18047623196E+02  0.65391467113E+03  0.65684599593E+03  0.00000000000E+00 0.  1.
<mgrwt>
<rscale>  0 0.16618168E+04</rscale>
<asrwt>0</asrwt>
<pdfrwt beam="1">  1        2 0.46778397E+00 0.16618168E+04</pdfrwt>
<pdfrwt beam="2">  1       -1 0.34932871E-01 0.16618168E+04</pdfrwt>
<totfact> 0.13968838E+01</totfact>
</mgrwt>
</event>
<event>
12    6  0.1510140E-007  0.1377614E+04  0.7818608E-02  0.8970184E-01
         -1   -1    0    0    0  501 -0.00000000000E+00  0.00000000000E+00  0.33309358505E+03  0.33309358505E+03  0.00000000000E+00 0.  1.
          2   -1    0    0  501    0  0.00000000000E+00 -0.00000000000E+00 -0.14243894224E+04  0.14243894224E+04  0.00000000000E+00 0. -1.
         24    2    1    2    0    0  0.12023409788E+03 -0.23579494755E+03 -0.66441859572E+03  0.72010004157E+03  0.83883871831E+02 0.  0.
        254    2    1    2    0    0 -0.12023409788E+03  0.23579494755E+03 -0.42687724164E+03  0.10373829659E+04  0.90768041892E+03 0.  0.
         23    2    4    4    0    0 -0.25564161167E+03  0.29678887127E+02 -0.64191832194E+03  0.69766274689E+03  0.91873317160E+02 0.  0.
         23    2    4    4    0    0  0.13540751379E+03  0.20611606042E+03  0.21504108030E+03  0.33972021899E+03  0.91368133499E+02 0.  0.
          4    1    3    3  502    0  0.10291818945E+03 -0.18111483061E+03 -0.41721067398E+03  0.46632551085E+03  0.00000000000E+00 0. -1.
         -3    1    3    3    0  502  0.17315908428E+02 -0.54680116941E+02 -0.24720792174E+03  0.25377453072E+03  0.00000000000E+00 0.  1.
         11    1    5    5    0    0 -0.11758833553E+03 -0.55833595418E+01 -0.39937240955E+03  0.41636103573E+03  0.00000000000E+00 0. -1.
        -11    1    5    5    0    0 -0.13805327614E+03  0.35262246669E+02 -0.24254591238E+03  0.28130171117E+03  0.00000000000E+00 0.  1.
          4    1    6    6  503    0  0.22202015921E+02  0.11316225374E+03  0.11092392507E+03  0.16000856956E+03  0.00000000000E+00 0. -1.
         -4    1    6    6    0  503  0.11320549787E+03  0.92953806683E+02  0.10411715523E+03  0.17971164942E+03  0.00000000000E+00 0.  1.
<mgrwt>
<rscale>  0 0.13776138E+04</rscale>
<asrwt>0</asrwt>
<pdfrwt beam="1">  1        2 0.21913684E+00 0.13776138E+04</pdfrwt>
<pdfrwt beam="2">  1       -1 0.51245167E-01 0.13776138E+04</pdfrwt>
<totfact> 0.59610461E+01</totfact>
</mgrwt>
</event>
<event>
12    6  0.1510140E-007  0.1949850E+04  0.7818608E-02  0.8630433E-01
          2   -1    0    0  501    0  0.00000000000E+00  0.00000000000E+00  0.93046606015E+03  0.93046606015E+03  0.00000000000E+00 0. -1.
         -1   -1    0    0    0  501 -0.00000000000E+00 -0.00000000000E+00 -0.10215086179E+04  0.10215086179E+04  0.00000000000E+00 0.  1.
         24    2    1    2    0    0 -0.74182448740E+03 -0.14503675038E+03 -0.12194014131E+03  0.76974075590E+03  0.79323414941E+02 0.  0.
        254    2    1    2    0    0  0.74182448740E+03  0.14503675038E+03  0.30897583513E+02  0.11822339222E+04  0.90850600278E+03 0.  0.
         23    2    4    4    0    0  0.92071432876E+03  0.21210178928E+03  0.10284508591E+03  0.95463763754E+03  0.89743317938E+02 0.  0.
         23    2    4    4    0    0 -0.17888984136E+03 -0.67065038905E+02 -0.71947502395E+02  0.22759628467E+03  0.10061973420E+03 0.  0.
          2    1    3    3  502    0 -0.35624507321E+02 -0.19315260909E+01 -0.22945761417E+02  0.42418678456E+02  0.00000000000E+00 0. -1.
         -1    1    3    3    0  502 -0.70619998008E+03 -0.14310522428E+03 -0.98994379892E+02  0.72732207744E+03  0.00000000000E+00 0.  1.
         11    1    5    5    0    0  0.64671015754E+03  0.18881303550E+03  0.85274590745E+02  0.67908478562E+03  0.00000000000E+00 0.  1.
        -11    1    5    5    0    0  0.27400417122E+03  0.23288753778E+02  0.17570495163E+02  0.27555285192E+03  0.00000000000E+00 0. -1.
          4    1    6    6  503    0 -0.12697575675E+03  0.46391210306E+01 -0.36100594398E+02  0.13208942866E+03  0.00000000000E+00 0.  1.
         -4    1    6    6    0  503 -0.51914084602E+02 -0.71704159935E+02 -0.35846907997E+02  0.95506856011E+02  0.00000000000E+00 0. -1.
<mgrwt>
<rscale>  0 0.19498504E+04</rscale>
<asrwt>0</asrwt>
<pdfrwt beam="1">  1        2 0.14314863E+00 0.19498504E+04</pdfrwt>
<pdfrwt beam="2">  1       -1 0.15715517E+00 0.19498504E+04</pdfrwt>
<totfact> 0.91455397E+00</totfact>
</mgrwt>
</event>
<event>
12    6  0.1510140E-007  0.1445990E+04  0.7818608E-02  0.8921185E-01
         -1   -1    0    0    0  501 -0.00000000000E+00  0.00000000000E+00  0.79933782185E+03  0.79933782185E+03  0.00000000000E+00 0.  1.
          2   -1    0    0  501    0  0.00000000000E+00 -0.00000000000E+00 -0.65394320677E+03  0.65394320677E+03  0.00000000000E+00 0. -1.
         24    2    1    2    0    0  0.24733016927E+03  0.31853736564E+03  0.19171915294E+03  0.45356525731E+03  0.79542083782E+02 0.  0.
        254    2    1    2    0    0 -0.24733016927E+03 -0.31853736564E+03 -0.46324537868E+02  0.99971577131E+03  0.91359038670E+03 0.  0.
         23    2    4    4    0    0  0.36653515884E+01 -0.12190273658E+03 -0.45157404005E+03  0.47610059885E+03  0.88763475540E+02 0.  0.
         23    2    4    4    0    0 -0.25099552086E+03 -0.19663462906E+03  0.40524950218E+03  0.52361517247E+03  0.91004181130E+02 0.  0.
          2    1    3    3  502    0  0.16134639414E+02  0.68679066858E+02  0.29309310508E+02  0.76394872184E+02  0.00000000000E+00 0. -1.
         -1    1    3    3    0  502  0.23119552986E+03  0.24985829878E+03  0.16240984244E+03  0.37717038512E+03  0.00000000000E+00 0.  1.
         11    1    5    5    0    0 -0.13575461254E+02 -0.77916857389E+02 -0.13858027715E+03  0.15956134566E+03  0.00000000000E+00 0. -1.
        -11    1    5    5    0    0  0.17240812843E+02 -0.43985879187E+02 -0.31299376290E+03  0.31653925319E+03  0.00000000000E+00 0.  1.
          1    1    6    6  503    0 -0.45012024796E+02 -0.34847465259E+02  0.13863615073E+03  0.14986797690E+03  0.00000000000E+00 0. -1.
         -1    1    6    6    0  503 -0.20598349606E+03 -0.16178716380E+03  0.26661335145E+03  0.37374719556E+03  0.00000000000E+00 0.  1.
<mgrwt>
<rscale>  0 0.14459897E+04</rscale>
<asrwt>0</asrwt>
<pdfrwt beam="1">  1        2 0.10060665E+00 0.14459897E+04</pdfrwt>
<pdfrwt beam="2">  1       -1 0.12297505E+00 0.14459897E+04</pdfrwt>
<totfact> 0.28832526E+01</totfact>
</mgrwt>
</event>
<event>
12    6  0.1510140E-007  0.4105194E+04  0.7818608E-02  0.7983655E-01
         -1   -1    0    0    0  501 -0.00000000000E+00  0.00000000000E+00  0.16486171421E+04  0.16486171421E+04  0.00000000000E+00 0.  1.
          2   -1    0    0  501    0  0.00000000000E+00 -0.00000000000E+00 -0.25555682825E+04  0.25555682825E+04  0.00000000000E+00 0. -1.
         24    2    1    2    0    0 -0.28869884802E+03 -0.19253243751E+04 -0.26860856796E+03  0.19669063601E+04  0.79681194134E+02 0.  0.
        254    2    1    2    0    0  0.28869884802E+03  0.19253243751E+04 -0.63834257249E+03  0.22372790645E+04  0.89872988080E+03 0.  0.
         23    2    4    4    0    0  0.10721838903E+03  0.47669339132E+03 -0.59275193138E+03  0.77359395810E+03  0.91435155072E+02 0.  0.
         23    2    4    4    0    0  0.18148045899E+03  0.14486309837E+04 -0.45590641106E+02  0.14636851064E+04  0.93961162968E+02 0.  0.
          4    1    3    3  502    0 -0.24396702137E+03 -0.17731475685E+04 -0.24490532193E+03  0.18065300507E+04  0.00000000000E+00 0. -1.
         -3    1    3    3    0  502 -0.44731826652E+02 -0.15217680654E+03 -0.23703246029E+02  0.16037630946E+03  0.00000000000E+00 0.  1.
         11    1    5    5    0    0  0.43809173640E+02  0.18435016978E+03 -0.16280380830E+03  0.24981855173E+03  0.00000000000E+00 0. -1.
        -11    1    5    5    0    0  0.63409215389E+02  0.29234322154E+03 -0.42994812308E+03  0.52377540637E+03  0.00000000000E+00 0.  1.
          2    1    6    6  503    0  0.62696095579E+01  0.23121592020E+03 -0.33143807183E+02  0.23366347962E+03  0.00000000000E+00 0. -1.
         -2    1    6    6    0  503  0.17521084943E+03  0.12174150635E+04 -0.12446833923E+02  0.12300216268E+04  0.00000000000E+00 0.  1.
<mgrwt>
<rscale>  0 0.41051936E+04</rscale>
<asrwt>0</asrwt>
<pdfrwt beam="1">  1        2 0.39316435E+00 0.41051936E+04</pdfrwt>
<pdfrwt beam="2">  1       -1 0.25363341E+00 0.41051936E+04</pdfrwt>
<totfact> 0.18963186E-01</totfact>
</mgrwt>
</event>
<event>
12    6  0.1510140E-007  0.2077321E+04  0.7818608E-02  0.8571300E-01
          2   -1    0    0  501    0  0.00000000000E+00  0.00000000000E+00  0.15746053392E+04  0.15746053392E+04  0.00000000000E+00 0. -1.
         -1   -1    0    0    0  501 -0.00000000000E+00 -0.00000000000E+00 -0.68513402451E+03  0.68513402451E+03  0.00000000000E+00 0.  1.
         24    2    1    2    0    0  0.58329351477E+03 -0.42229882786E+03 -0.11027013221E+03  0.73275693429E+03  0.78775619984E+02 0.  0.
        254    2    1    2    0    0 -0.58329351477E+03  0.42229882786E+03  0.99974144687E+03  0.15269824294E+04  0.90201150475E+03 0.  0.
         23    2    4    4    0    0  0.85247178480E+02 -0.19740246990E+03  0.15502597715E+03  0.28089139034E+03  0.92909111562E+02 0.  0.
         23    2    4    4    0    0 -0.66854069325E+03  0.61970129776E+03  0.84471546972E+03  0.12460910391E+04  0.90676876123E+02 0.  0.
          2    1    3    3  502    0  0.24172108628E+02 -0.33583918609E+01  0.42511401672E+01  0.24771794932E+02  0.00000000000E+00 0. -1.
         -3    1    3    3    0  502  0.55912140614E+03 -0.41894043600E+03 -0.11452127238E+03  0.70798513936E+03  0.00000000000E+00 0.  1.
         11    1    5    5    0    0  0.61393024307E+02 -0.19476551932E+03  0.15583257046E+03  0.25687837777E+03  0.00000000000E+00 0. -1.
        -11    1    5    5    0    0  0.23854154172E+02 -0.26369505791E+01 -0.80659330902E+00  0.24013012564E+02  0.00000000000E+00 0.  1.
          3    1    6    6  503    0 -0.22245600894E+03  0.26315325628E+03  0.33645960602E+03  0.48160292637E+03  0.00000000000E+00 0. -1.
         -3    1    6    6    0  503 -0.44608468431E+03  0.35654804148E+03  0.50825586370E+03  0.76448811269E+03  0.00000000000E+00 0.  1.
<mgrwt>
<rscale>  0 0.20773211E+04</rscale>
<asrwt>0</asrwt>
<pdfrwt beam="1">  1        2 0.24224697E+00 0.20773211E+04</pdfrwt>
<pdfrwt beam="2">  1       -1 0.10540524E+00 0.20773211E+04</pdfrwt>
<totfact> 0.10225697E+01</totfact>
</mgrwt>
</event>
<event>
12    6  0.1510140E-007  0.1422319E+04  0.7818608E-02  0.8937820E-01
         -1   -1    0    0    0  501 -0.00000000000E+00  0.00000000000E+00  0.81745468959E+03  0.81745468959E+03  0.00000000000E+00 0.  1.
          2   -1    0    0  501    0  0.00000000000E+00 -0.00000000000E+00 -0.61868564384E+03  0.61868564384E+03  0.00000000000E+00 0. -1.
         24    2    1    2    0    0 -0.40096721138E+03 -0.58485419789E+02  0.18105699638E+03  0.45087230650E+03  0.79428910971E+02 0.  0.
        254    2    1    2    0    0  0.40096721138E+03  0.58485419789E+02  0.17712049373E+02  0.98526802694E+03  0.89791097514E+03 0.  0.
         23    2    4    4    0    0  0.23109454841E+03  0.31889248818E+03 -0.32023157456E+03  0.51600377268E+03  0.92814453364E+02 0.  0.
         23    2    4    4    0    0  0.16987266297E+03 -0.26040706839E+03  0.33794362393E+03  0.46926425426E+03  0.96615135893E+02 0.  0.
          4    1    3    3  502    0 -0.16984578570E+03 -0.22910973664E+02  0.11990842048E+03  0.20916628059E+03  0.00000000000E+00 0. -1.
         -3    1    3    3    0  502 -0.23112142568E+03 -0.35574446125E+02  0.61148575905E+02  0.24170602591E+03  0.00000000000E+00 0.  1.
         11    1    5    5    0    0  0.88770878656E+02  0.14373657554E+03 -0.81813674339E+02  0.18770708392E+03  0.00000000000E+00 0. -1.
        -11    1    5    5    0    0  0.14232366976E+03  0.17515591264E+03 -0.23841790022E+03  0.32829668875E+03  0.00000000000E+00 0.  1.
          1    1    6    6  503    0  0.37952818240E+02 -0.13194134413E+03  0.10800201077E+03  0.17468076320E+03  0.00000000000E+00 0. -1.
         -1    1    6    6    0  503  0.13191984473E+03 -0.12846572426E+03  0.22994161316E+03  0.29458349106E+03  0.00000000000E+00 0.  1.
<mgrwt>
<rscale>  0 0.14223185E+04</rscale>
<asrwt>0</asrwt>
<pdfrwt beam="1">  1        2 0.95182407E-01 0.14223185E+04</pdfrwt>
<pdfrwt beam="2">  1       -1 0.12576226E+00 0.14223185E+04</pdfrwt>
<totfact> 0.29251200E+01</totfact>
</mgrwt>
</event>
<event>
12    6  0.1510140E-007  0.3606059E+04  0.7818608E-02  0.8089105E-01
          2   -1    0    0  501    0  0.00000000000E+00  0.00000000000E+00  0.35223208983E+04  0.35223208983E+04  0.00000000000E+00 0. -1.
         -1   -1    0    0    0  501 -0.00000000000E+00 -0.00000000000E+00 -0.92294695412E+03  0.92294695412E+03  0.00000000000E+00 0.  1.
         24    2    1    2    0    0  0.95809869487E+03 -0.11873952140E+04  0.31879161486E+03  0.15607660781E+04  0.80635932595E+02 0.  0.
        254    2    1    2    0    0 -0.95809869487E+03  0.11873952140E+04  0.22805823293E+04  0.28845017742E+04  0.88962588857E+03 0.  0.
         23    2    4    4    0    0 -0.32091924765E+03  0.51186082249E+03  0.16459608144E+04  0.17560273955E+04  0.97234491853E+02 0.  0.
         23    2    4    4    0    0 -0.63717944722E+03  0.67553439151E+03  0.63462151491E+03  0.11284743787E+04  0.91463621576E+02 0.  0.
          2    1    3    3  502    0  0.26964559410E+03 -0.34822913520E+03  0.12842377556E+03  0.45876458358E+03  0.00000000000E+00 0. -1.
         -1    1    3    3    0  502  0.68845310077E+03 -0.83916607881E+03  0.19036783930E+03  0.11020014946E+04  0.00000000000E+00 0.  1.
         11    1    5    5    0    0  0.55069073097E+01  0.25950009317E+02  0.68744467783E+02  0.73685350392E+02  0.00000000000E+00 0.  1.
        -11    1    5    5    0    0 -0.32642615496E+03  0.48591081317E+03  0.15772163466E+04  0.16823420452E+04  0.00000000000E+00 0. -1.
          3    1    6    6  503    0 -0.37182588618E+03  0.45792680178E+03  0.39432451304E+03  0.70953736125E+03  0.00000000000E+00 0. -1.
         -3    1    6    6    0  503 -0.26535356105E+03  0.21760758973E+03  0.24029700187E+03  0.41893701744E+03  0.00000000000E+00 0.  1.
<mgrwt>
<rscale>  0 0.36060590E+04</rscale>
<asrwt>0</asrwt>
<pdfrwt beam="1">  1        2 0.54189552E+00 0.36060590E+04</pdfrwt>
<pdfrwt beam="2">  1       -1 0.14199184E+00 0.36060590E+04</pdfrwt>
<totfact> 0.29232932E-01</totfact>
</mgrwt>
</event>
<event>
12    6  0.1510140E-007  0.1671949E+04  0.7818608E-02  0.8777527E-01
         -1   -1    0    0    0  501 -0.00000000000E+00  0.00000000000E+00  0.25918810658E+03  0.25918810658E+03  0.00000000000E+00 0.  1.
          2   -1    0    0  501    0  0.00000000000E+00 -0.00000000000E+00 -0.26963166990E+04  0.26963166990E+04  0.00000000000E+00 0. -1.
         24    2    1    2    0    0  0.54148696084E+02  0.26959024607E+03  0.54510097678E+02  0.29200279258E+03  0.81751440727E+02 0.  0.
        254    2    1    2    0    0 -0.54148696084E+02 -0.26959024607E+03 -0.24916386901E+04  0.26635020130E+04  0.90020477071E+03 0.  0.
         23    2    4    4    0    0 -0.96072811222E+02 -0.41822140512E+03 -0.24341480492E+04  0.24731652931E+04  0.85619582634E+02 0.  0.
         23    2    4    4    0    0  0.41924115138E+02  0.14863115905E+03 -0.57490640889E+02  0.19033671987E+03  0.95257757009E+02 0.  0.
          2    1    3    3  502    0 -0.19317799033E+02  0.61707527487E+02  0.25969136703E+02  0.69680645585E+02  0.00000000000E+00 0. -1.
         -1    1    3    3    0  502  0.73466495117E+02  0.20788271858E+03  0.28540960975E+02  0.22232214699E+03  0.00000000000E+00 0.  1.
         11    1    5    5    0    0 -0.82111566999E+02 -0.41136466020E+03 -0.23851932874E+04  0.24217989618E+04  0.00000000000E+00 0.  1.
        -11    1    5    5    0    0 -0.13961244223E+02 -0.68567449198E+01 -0.48954761784E+02  0.51366331312E+02  0.00000000000E+00 0. -1.
          1    1    6    6  503    0 -0.33468448591E+01 -0.12336010041E+02 -0.10785334506E+02  0.16724292352E+02  0.00000000000E+00 0. -1.
         -1    1    6    6    0  503  0.45270959997E+02  0.16096716909E+03 -0.46705306383E+02  0.17361242752E+03  0.00000000000E+00 0.  1.
<mgrwt>
<rscale>  0 0.16719488E+04</rscale>
<asrwt>0</asrwt>
<pdfrwt beam="1">  1        2 0.41481794E+00 0.16719488E+04</pdfrwt>
<pdfrwt beam="2">  1       -1 0.39875094E-01 0.16719488E+04</pdfrwt>
<totfact> 0.17805374E+01</totfact>
</mgrwt>
</event>
<event>
12    6  0.1510140E-007  0.3486839E+04  0.7818608E-02  0.8116916E-01
         -1   -1    0    0    0  501 -0.00000000000E+00  0.00000000000E+00  0.25006342612E+04  0.25006342612E+04  0.00000000000E+00 0.  1.
          2   -1    0    0  501    0  0.00000000000E+00 -0.00000000000E+00 -0.12154963912E+04  0.12154963912E+04  0.00000000000E+00 0. -1.
         24    2    1    2    0    0  0.14997001185E+04 -0.63564840095E+03  0.60692085728E+03  0.17400483797E+04  0.79158711469E+02 0.  0.
        254    2    1    2    0    0 -0.14997001185E+04  0.63564840095E+03  0.67821701265E+03  0.19760822727E+04  0.88981655253E+03 0.  0.
         23    2    4    4    0    0 -0.10862327435E+04  0.83435393416E+03  0.38982723963E+03  0.14270855019E+04  0.92518607173E+02 0.  0.
         23    2    4    4    0    0 -0.41346737505E+03 -0.19870553321E+03  0.28838977302E+03  0.54899677077E+03  0.88258903079E+02 0.  0.
          2    1    3    3  502    0  0.13907349966E+04 -0.57856263286E+03  0.58024976529E+03  0.16141772954E+04  0.00000000000E+00 0. -1.
         -1    1    3    3    0  502  0.10896512194E+03 -0.57085768083E+02  0.26671091991E+02  0.12587108431E+03  0.00000000000E+00 0.  1.
         11    1    5    5    0    0 -0.10072932470E+04  0.80160612586E+03  0.36741664353E+03  0.13387333776E+04  0.00000000000E+00 0.  1.
        -11    1    5    5    0    0 -0.78939496465E+02  0.32747808291E+02  0.22410596100E+02  0.88352124296E+02  0.00000000000E+00 0. -1.
          4    1    6    6  503    0 -0.88701608051E+02 -0.51217042752E+01  0.48399335054E+02  0.10117659195E+03  0.00000000000E+00 0. -1.
         -4    1    6    6    0  503 -0.32476576700E+03 -0.19358382893E+03  0.23999043796E+03  0.44782017881E+03  0.00000000000E+00 0.  1.
<mgrwt>
<rscale>  0 0.34868392E+04</rscale>
<asrwt>0</asrwt>
<pdfrwt beam="1">  1        2 0.18699945E+00 0.34868392E+04</pdfrwt>
<pdfrwt beam="2">  1       -1 0.38471296E+00 0.34868392E+04</pdfrwt>
<totfact> 0.15783487E-01</totfact>
</mgrwt>
</event>
<event>
12    6  0.1510140E-007  0.3100638E+04  0.7818608E-02  0.8215563E-01
         -1   -1    0    0    0  501 -0.00000000000E+00  0.00000000000E+00  0.17255698632E+04  0.17255698632E+04  0.00000000000E+00 0.  1.
          2   -1    0    0  501    0  0.00000000000E+00 -0.00000000000E+00 -0.13928670516E+04  0.13928670516E+04  0.00000000000E+00 0. -1.
         24    2    1    2    0    0  0.84993175827E+03  0.53991862777E+03  0.11690176085E+04  0.15450341897E+04  0.81439303680E+02 0.  0.
        254    2    1    2    0    0 -0.84993175827E+03 -0.53991862777E+03 -0.83631479688E+03  0.15734027251E+04  0.87308509190E+03 0.  0.
         23    2    4    4    0    0  0.13021677733E+03  0.26464636642E+02  0.50722023407E+01  0.15995640954E+03  0.88901853896E+02 0.  0.
         23    2    4    4    0    0 -0.98014853560E+03 -0.56638326441E+03 -0.84138699922E+03  0.14134463156E+04  0.91745575321E+02 0.  0.
          4    1    3    3  502    0  0.64724716453E+02  0.43864705127E+02  0.60536354763E+02  0.98884030682E+02  0.00000000000E+00 0. -1.
         -3    1    3    3    0  502  0.78520704182E+03  0.49605392264E+03  0.11084812537E+04  0.14461501590E+04  0.00000000000E+00 0.  1.
         11    1    5    5    0    0  0.11676192087E+03  0.18344129746E+02 -0.29638696514E+02  0.12185362364E+03  0.00000000000E+00 0.  1.
        -11    1    5    5    0    0  0.13454856457E+02  0.81205068955E+01  0.34710898855E+02  0.38102785906E+02  0.00000000000E+00 0. -1.
          4    1    6    6  503    0 -0.15448425474E+03 -0.52512299048E+02 -0.11595117942E+03  0.20016893496E+03  0.00000000000E+00 0. -1.
         -4    1    6    6    0  503 -0.82566428086E+03 -0.51387096536E+03 -0.72543581980E+03  0.12132773806E+04  0.00000000000E+00 0.  1.
<mgrwt>
<rscale>  0 0.31006383E+04</rscale>
<asrwt>0</asrwt>
<pdfrwt beam="1">  1        2 0.21428724E+00 0.31006383E+04</pdfrwt>
<pdfrwt beam="2">  1       -1 0.26547229E+00 0.31006383E+04</pdfrwt>
<totfact> 0.78077562E-01</totfact>
</mgrwt>
</event>
<event>
12    6  0.1510140E-007  0.3547384E+04  0.7818608E-02  0.8102651E-01
         -1   -1    0    0    0  501 -0.00000000000E+00  0.00000000000E+00  0.81403984449E+03  0.81403984449E+03  0.00000000000E+00 0.  1.
          2   -1    0    0  501    0  0.00000000000E+00 -0.00000000000E+00 -0.38646562255E+04  0.38646562255E+04  0.00000000000E+00 0. -1.
         24    2    1    2    0    0  0.10621122691E+04 -0.10743098920E+04 -0.52188125341E+03  0.16002959701E+04  0.79767993809E+02 0.  0.
        254    2    1    2    0    0 -0.10621122691E+04  0.10743098920E+04 -0.25287351276E+04  0.30784000999E+04  0.89432746423E+03 0.  0.
         23    2    4    4    0    0 -0.32519843763E+02  0.61944083233E+03 -0.91742107812E+03  0.11109894696E+04  0.88722500013E+02 0.  0.
         23    2    4    4    0    0 -0.10295924254E+04  0.45486905968E+03 -0.16113140495E+04  0.19674106303E+04  0.86053462180E+02 0.  0.
          2    1    3    3  502    0  0.22598966116E+03 -0.21145897564E+03 -0.13886602113E+03  0.33921968863E+03  0.00000000000E+00 0. -1.
         -1    1    3    3    0  502  0.83612260797E+03 -0.86285091637E+03 -0.38301523229E+03  0.12610762814E+04  0.00000000000E+00 0.  1.
         11    1    5    5    0    0 -0.33617397911E+02  0.57101561514E+03 -0.88092410881E+03  0.10503410149E+04  0.00000000000E+00 0. -1.
        -11    1    5    5    0    0  0.10975541478E+01  0.48425217194E+02 -0.36496969302E+02  0.60648454668E+02  0.00000000000E+00 0.  1.
          2    1    6    6  503    0 -0.26977958582E+03  0.15966466732E+03 -0.42919687952E+03  0.53149204350E+03  0.00000000000E+00 0.  1.
         -2    1    6    6    0  503 -0.75981283955E+03  0.29520439236E+03 -0.11821171700E+04  0.14359185868E+04  0.00000000000E+00 0. -1.
<mgrwt>
<rscale>  0 0.35473845E+04</rscale>
<asrwt>0</asrwt>
<pdfrwt beam="1">  1        2 0.59456249E+00 0.35473845E+04</pdfrwt>
<pdfrwt beam="2">  1       -1 0.12523690E+00 0.35473845E+04</pdfrwt>
<totfact> 0.22609068E-01</totfact>
</mgrwt>
</event>
<event>
12    6  0.1510140E-007  0.1477045E+04  0.7818608E-02  0.8899863E-01
         -1   -1    0    0    0  501 -0.00000000000E+00  0.00000000000E+00  0.20585362827E+03  0.20585362827E+03  0.00000000000E+00 0.  1.
          2   -1    0    0  501    0  0.00000000000E+00 -0.00000000000E+00 -0.26495320618E+04  0.26495320618E+04  0.00000000000E+00 0. -1.
         24    2    1    2    0    0 -0.22301558890E+03  0.13686411004E+03 -0.32118930172E+02  0.27579333772E+03  0.81009887978E+02 0.  0.
        254    2    1    2    0    0  0.22301558890E+03 -0.13686411004E+03 -0.24115595034E+04  0.25795923524E+04  0.87761593454E+03 0.  0.
         23    2    4    4    0    0 -0.33122547166E+03 -0.49922264335E+02 -0.87032913188E+03  0.93690193461E+03  0.90054937232E+02 0.  0.
         23    2    4    4    0    0  0.55424106056E+03 -0.86941845701E+02 -0.15412303715E+04  0.16426904178E+04  0.91097271325E+02 0.  0.
          4    1    3    3  502    0 -0.37153180733E+02  0.77643923422E+01  0.20950850877E+02  0.43354155274E+02  0.00000000000E+00 0. -1.
         -3    1    3    3    0  502 -0.18586240816E+03  0.12909971769E+03 -0.53069781049E+02  0.23243918245E+03  0.00000000000E+00 0.  1.
         11    1    5    5    0    0 -0.59598433783E+02  0.17696103601E+02 -0.22603246156E+03  0.23442653235E+03  0.00000000000E+00 0. -1.
        -11    1    5    5    0    0 -0.27162703788E+03 -0.67618367936E+02 -0.64429667032E+03  0.70247540226E+03  0.00000000000E+00 0.  1.
          2    1    6    6  503    0  0.10761570139E+03 -0.13503802769E+02 -0.20565115384E+03  0.23249922354E+03  0.00000000000E+00 0. -1.
         -2    1    6    6    0  503  0.44662535917E+03 -0.73438042932E+02 -0.13355792177E+04  0.14101911942E+04  0.00000000000E+00 0.  1.
<mgrwt>
<rscale>  0 0.14770454E+04</rscale>
<asrwt>0</asrwt>
<pdfrwt beam="1">  1        2 0.40762030E+00 0.14770454E+04</pdfrwt>
<pdfrwt beam="2">  1       -1 0.31669790E-01 0.14770454E+04</pdfrwt>
<totfact> 0.29205459E+01</totfact>
</mgrwt>
</event>
<event>
12    6  0.1510140E-007  0.3053838E+04  0.7818608E-02  0.8228522E-01
         -1   -1    0    0    0  501 -0.00000000000E+00  0.00000000000E+00  0.13670489657E+04  0.13670489657E+04  0.00000000000E+00 0.  1.
          2   -1    0    0  501    0  0.00000000000E+00 -0.00000000000E+00 -0.17054848856E+04  0.17054848856E+04  0.00000000000E+00 0. -1.
         24    2    1    2    0    0 -0.10343760738E+04  0.77379959646E+03  0.37139354205E+03  0.13464849690E+04  0.79930790230E+02 0.  0.
        254    2    1    2    0    0  0.10343760738E+04 -0.77379959646E+03 -0.70982946188E+03  0.17260488823E+04  0.89815767074E+03 0.  0.
         23    2    4    4    0    0  0.61129875501E+02  0.15468122972E+03 -0.22198015602E+03  0.29201537895E+03  0.91294289924E+02 0.  0.
         23    2    4    4    0    0  0.97324619831E+03 -0.92848082617E+03 -0.48784930586E+03  0.14340335033E+04  0.95761873109E+02 0.  0.
          2    1    3    3  502    0 -0.63898500549E+01  0.15663913599E+02  0.57781739320E+01  0.17876679417E+02  0.00000000000E+00 0. -1.
         -1    1    3    3    0  502 -0.10279862238E+04  0.75813568286E+03  0.36561536812E+03  0.13286082896E+04  0.00000000000E+00 0.  1.
         11    1    5    5    0    0  0.77314824901E+02  0.72887671678E+02 -0.11975452452E+03  0.16009791059E+03  0.00000000000E+00 0. -1.
        -11    1    5    5    0    0 -0.16184949401E+02  0.81793558037E+02 -0.10222563149E+03  0.13191746836E+03  0.00000000000E+00 0.  1.
          2    1    6    6  503    0  0.23542068771E+03 -0.17259388873E+03 -0.11813825327E+03  0.31490982442E+03  0.00000000000E+00 0.  1.
         -2    1    6    6    0  503  0.73782551060E+03 -0.75588693745E+03 -0.36971105259E+03  0.11191236789E+04  0.00000000000E+00 0. -1.
<mgrwt>
<rscale>  0 0.30538378E+04</rscale>
<asrwt>0</asrwt>
<pdfrwt beam="1">  1        2 0.26238229E+00 0.30538378E+04</pdfrwt>
<pdfrwt beam="2">  1       -1 0.21031523E+00 0.30538378E+04</pdfrwt>
<totfact> 0.12084506E+00</totfact>
</mgrwt>
</event>
<event>
12    6  0.1510140E-007  0.1737132E+04  0.7818608E-02  0.8740466E-01
          2   -1    0    0  501    0  0.00000000000E+00  0.00000000000E+00  0.43180006813E+03  0.43180006813E+03  0.00000000000E+00 0. -1.
         -1   -1    0    0    0  501 -0.00000000000E+00 -0.00000000000E+00 -0.17471204241E+04  0.17471204241E+04  0.00000000000E+00 0.  1.
         24    2    1    2    0    0  0.13204082211E+03 -0.59441741057E+03 -0.22098097272E+03  0.65272343603E+03  0.80302284794E+02 0.  0.
        254    2    1    2    0    0 -0.13204082211E+03  0.59441741057E+03 -0.10943393833E+04  0.15261970562E+04  0.87231412459E+03 0.  0.
         23    2    4    4    0    0 -0.43672699162E+03  0.30820532697E+03 -0.29007975417E+03  0.61492700324E+03  0.90928360527E+02 0.  0.
         23    2    4    4    0    0  0.30468616952E+03  0.28621208360E+03 -0.80425962912E+03  0.91127005300E+03  0.93960309513E+02 0.  0.
          2    1    3    3  502    0  0.11764139019E+03 -0.58554379309E+03 -0.21402645550E+03  0.63443546084E+03  0.00000000000E+00 0. -1.
         -1    1    3    3    0  502  0.14399431919E+02 -0.88736174758E+01 -0.69545172184E+01  0.18287975187E+02  0.00000000000E+00 0.  1.
         11    1    5    5    0    0 -0.41036489935E+03  0.31199068025E+03 -0.27804240198E+03  0.58570053140E+03  0.00000000000E+00 0. -1.
        -11    1    5    5    0    0 -0.26362092274E+02 -0.37853532806E+01 -0.12037352192E+02  0.29226471842E+02  0.00000000000E+00 0.  1.
          1    1    6    6  503    0  0.18540630083E+03  0.14091643002E+03 -0.52846725959E+03  0.57750374986E+03  0.00000000000E+00 0. -1.
         -1    1    6    6    0  503  0.11927986869E+03  0.14529565358E+03 -0.27579236953E+03  0.33376630314E+03  0.00000000000E+00 0.  1.
<mgrwt>
<rscale>  0 0.17371318E+04</rscale>
<asrwt>0</asrwt>
<pdfrwt beam="1">  1        2 0.66430780E-01 0.17371318E+04</pdfrwt>
<pdfrwt beam="2">  1       -1 0.26878776E+00 0.17371318E+04</pdfrwt>
<totfact> 0.41632805E+00</totfact>
</mgrwt>
</event>
<event>
12    6  0.1510140E-007  0.2813087E+04  0.7818608E-02  0.8299217E-01
         -1   -1    0    0    0  501 -0.00000000000E+00  0.00000000000E+00  0.10718847908E+04  0.10718847908E+04  0.00000000000E+00 0.  1.
          2   -1    0    0  501    0  0.00000000000E+00 -0.00000000000E+00 -0.18456870867E+04  0.18456870867E+04  0.00000000000E+00 0. -1.
         24    2    1    2    0    0  0.87112670174E+03  0.63394599615E+03 -0.97045221099E+03  0.14521910498E+04  0.79574459703E+02 0.  0.
        254    2    1    2    0    0 -0.87112670174E+03 -0.63394599615E+03  0.19664991507E+03  0.14653808278E+04  0.97361210181E+03 0.  0.
         23    2    4    4    0    0 -0.54727686885E+03 -0.69146705898E+03 -0.23316227496E+03  0.91671770291E+03  0.91476967198E+02 0.  0.
         23    2    4    4    0    0 -0.32384983289E+03  0.57521062827E+02  0.42981219003E+03  0.54866312487E+03  0.90029544923E+02 0.  0.
          2    1    3    3  502    0  0.50521896291E+03  0.37194947607E+03 -0.51211053050E+03  0.80984554618E+03  0.00000000000E+00 0. -1.
         -1    1    3    3    0  502  0.36590773884E+03  0.26199652008E+03 -0.45834168050E+03  0.64234550357E+03  0.00000000000E+00 0.  1.
         11    1    5    5    0    0 -0.25596788571E+03 -0.30302103690E+03 -0.59751059744E+02  0.40113775247E+03  0.00000000000E+00 0.  1.
        -11    1    5    5    0    0 -0.29130898315E+03 -0.38844602208E+03 -0.17341121522E+03  0.51557995044E+03  0.00000000000E+00 0. -1.
          1    1    6    6  503    0  0.48045754455E+01  0.68028325446E+01  0.82033178633E+01  0.11690034209E+02  0.00000000000E+00 0.  1.
         -1    1    6    6    0  503 -0.32865440834E+03  0.50718230283E+02  0.42160887217E+03  0.53697309066E+03  0.00000000000E+00 0. -1.
<mgrwt>
<rscale>  0 0.28130865E+04</rscale>
<asrwt>0</asrwt>
<pdfrwt beam="1">  1        2 0.28395186E+00 0.28130865E+04</pdfrwt>
<pdfrwt beam="2">  1       -1 0.16490535E+00 0.28130865E+04</pdfrwt>
<totfact> 0.21611246E+00</totfact>
</mgrwt>
</event>
<event>
12    6  0.1510140E-007  0.1329091E+04  0.7818608E-02  0.9006809E-01
          2   -1    0    0  501    0  0.00000000000E+00  0.00000000000E+00  0.38702631430E+03  0.38702631430E+03  0.00000000000E+00 0. -1.
         -1   -1    0    0    0  501 -0.00000000000E+00 -0.00000000000E+00 -0.11410606247E+04  0.11410606247E+04  0.00000000000E+00 0.  1.
         24    2    1    2    0    0  0.32695869679E+03 -0.14644723216E+03 -0.14470595918E+03  0.39426358269E+03  0.78454934825E+02 0.  0.
        254    2    1    2    0    0 -0.32695869679E+03  0.14644723216E+03 -0.60932835124E+03  0.11338233563E+04  0.88652443990E+03 0.  0.
         23    2    4    4    0    0 -0.41368266201E+03  0.39709035601E+03 -0.15797194720E+03  0.60183880331E+03  0.91873355136E+02 0.  0.
         23    2    4    4    0    0  0.86723965218E+02 -0.25064312385E+03 -0.45135640405E+03  0.53198455303E+03  0.94561829032E+02 0.  0.
          4    1    3    3  502    0  0.69848786381E+02 -0.25615472278E+02  0.22199841706E+01  0.74430730942E+02  0.00000000000E+00 0. -1.
         -3    1    3    3    0  502  0.25710991041E+03 -0.12083175988E+03 -0.14692594335E+03  0.31983285175E+03  0.00000000000E+00 0.  1.
         11    1    5    5    0    0 -0.31638396183E+03  0.34442236784E+03 -0.14897328627E+03  0.49083461450E+03  0.00000000000E+00 0.  1.
        -11    1    5    5    0    0 -0.97298700179E+02  0.52667988175E+02 -0.89986609292E+01  0.11100418881E+03  0.00000000000E+00 0. -1.
          2    1    6    6  503    0  0.44797718463E+01 -0.92331846726E+02 -0.22868408899E+03  0.24666100388E+03  0.00000000000E+00 0. -1.
         -2    1    6    6    0  503  0.82244193371E+02 -0.15831127713E+03 -0.22267231506E+03  0.28532354915E+03  0.00000000000E+00 0.  1.
<mgrwt>
<rscale>  0 0.13290906E+04</rscale>
<asrwt>0</asrwt>
<pdfrwt beam="1">  1        2 0.59542510E-01 0.13290906E+04</pdfrwt>
<pdfrwt beam="2">  1       -1 0.17554779E+00 0.13290906E+04</pdfrwt>
<totfact> 0.20707337E+01</totfact>
</mgrwt>
</event>
<event>
12    6  0.1510140E-007  0.2884725E+04  0.7818608E-02  0.8277437E-01
          2   -1    0    0  501    0  0.00000000000E+00  0.00000000000E+00  0.66409221330E+03  0.66409221330E+03  0.00000000000E+00 0. -1.
         -1   -1    0    0    0  501 -0.00000000000E+00 -0.00000000000E+00 -0.31327109363E+04  0.31327109363E+04  0.00000000000E+00 0.  1.
         24    2    1    2    0    0  0.44800284225E+03 -0.11342083060E+04 -0.17032708459E+04  0.20964981976E+04  0.83893324582E+02 0.  0.
        254    2    1    2    0    0 -0.44800284225E+03  0.11342083060E+04 -0.76534787711E+03  0.17003049521E+04  0.90451342113E+03 0.  0.
         23    2    4    4    0    0 -0.41914616075E+03  0.68290793471E+02 -0.12232711935E+03  0.45172343066E+03  0.93503995281E+02 0.  0.
         23    2    4    4    0    0 -0.28856681501E+02  0.10659175125E+04 -0.64302075776E+03  0.12485815214E+04  0.92017765478E+02 0.  0.
          2    1    3    3  502    0  0.17910106984E+03 -0.38525776559E+03 -0.64700671240E+03  0.77402740589E+03  0.00000000000E+00 0. -1.
         -1    1    3    3    0  502  0.26890177241E+03 -0.74895054037E+03 -0.10562641335E+04  0.13224707917E+04  0.00000000000E+00 0.  1.
         11    1    5    5    0    0 -0.15795797209E+03  0.65294524851E+02 -0.73209339662E+02  0.18594005307E+03  0.00000000000E+00 0. -1.
        -11    1    5    5    0    0 -0.26118818865E+03  0.29962686199E+01 -0.49117779693E+02  0.26578337758E+03  0.00000000000E+00 0.  1.
          2    1    6    6  503    0  0.13630880294E+02  0.98457704170E+02 -0.36264789914E+02  0.10580574368E+03  0.00000000000E+00 0. -1.
         -2    1    6    6    0  503 -0.42487561795E+02  0.96745980832E+03 -0.60675596784E+03  0.11427757777E+04  0.00000000000E+00 0.  1.
<mgrwt>
<rscale>  0 0.28847246E+04</rscale>
<asrwt>0</asrwt>
<pdfrwt beam="1">  1        2 0.10216804E+00 0.28847246E+04</pdfrwt>
<pdfrwt beam="2">  1       -1 0.48195552E+00 0.28847246E+04</pdfrwt>
<totfact> 0.84351436E-02</totfact>
</mgrwt>
</event>
<event>
12    6  0.1510140E-007  0.2075797E+04  0.7818608E-02  0.8571981E-01
          2   -1    0    0  501    0  0.00000000000E+00  0.00000000000E+00  0.14451293721E+04  0.14451293721E+04  0.00000000000E+00 0. -1.
         -1   -1    0    0    0  501 -0.00000000000E+00 -0.00000000000E+00 -0.74542312496E+03  0.74542312496E+03  0.00000000000E+00 0.  1.
         24    2    1    2    0    0  0.78391970305E+03  0.28400662274E+03  0.37688587859E+03  0.91848858941E+03  0.79927847567E+02 0.  0.
        254    2    1    2    0    0 -0.78391970305E+03 -0.28400662274E+03  0.32282036853E+03  0.12720639076E+04  0.90484459006E+03 0.  0.
         23    2    4    4    0    0 -0.18911305692E+03 -0.32389343311E+03  0.51119798725E+03  0.64010840005E+03  0.88003848426E+02 0.  0.
         23    2    4    4    0    0 -0.59480664613E+03  0.39886810374E+02 -0.18837761873E+03  0.63195550757E+03  0.92172297309E+02 0.  0.
          2    1    3    3  502    0  0.19481292149E+03  0.88991518383E+02  0.13060493519E+03  0.25085695888E+03  0.00000000000E+00 0. -1.
         -1    1    3    3    0  502  0.58910678156E+03  0.19501510435E+03  0.24628094340E+03  0.66763163053E+03  0.00000000000E+00 0.  1.
         11    1    5    5    0    0 -0.34110393599E+02 -0.20722379566E+02  0.90301087132E+02  0.98728021876E+02  0.00000000000E+00 0.  1.
        -11    1    5    5    0    0 -0.15500266332E+03 -0.30317105354E+03  0.42089690012E+03  0.54138037818E+03  0.00000000000E+00 0. -1.
          3    1    6    6  503    0 -0.40752782762E+03 -0.13195950604E+02 -0.11193014755E+03  0.42282552114E+03  0.00000000000E+00 0. -1.
         -3    1    6    6    0  503 -0.18727881851E+03  0.53082760978E+02 -0.76447471179E+02  0.20912998643E+03  0.00000000000E+00 0.  1.
<mgrwt>
<rscale>  0 0.20757966E+04</rscale>
<asrwt>0</asrwt>
<pdfrwt beam="1">  1        2 0.22232760E+00 0.20757966E+04</pdfrwt>
<pdfrwt beam="2">  1       -1 0.11468048E+00 0.20757966E+04</pdfrwt>
<totfact> 0.99148273E+00</totfact>
</mgrwt>
</event>
<event>
12    6  0.1510140E-007  0.1405894E+04  0.7818608E-02  0.8949563E-01
          2   -1    0    0  501    0  0.00000000000E+00  0.00000000000E+00  0.24763633447E+04  0.24763633447E+04  0.00000000000E+00 0. -1.
         -1   -1    0    0    0  501 -0.00000000000E+00 -0.00000000000E+00 -0.19954049082E+03  0.19954049082E+03  0.00000000000E+00 0.  1.
         24    2    1    2    0    0  0.18326231617E+03  0.69677493985E+02  0.13288828529E+04  0.13456363130E+04  0.79796118380E+02 0.  0.
        254    2    1    2    0    0 -0.18326231617E+03 -0.69677493985E+02  0.94794000100E+03  0.13302675225E+04  0.91245898880E+03 0.  0.
         23    2    4    4    0    0 -0.22654686484E+03 -0.39973211345E+03  0.20596897952E+03  0.51180143150E+03  0.91696457202E+02 0.  0.
         23    2    4    4    0    0  0.43284548671E+02  0.33005461947E+03  0.74197102148E+03  0.81846609101E+03  0.92499413128E+02 0.  0.
          2    1    3    3  502    0  0.17938334486E+03  0.78898343093E+02  0.11583084083E+04  0.11747687865E+04  0.00000000000E+00 0. -1.
         -1    1    3    3    0  502  0.38789713122E+01 -0.92208491081E+01  0.17057444460E+03  0.17086752655E+03  0.00000000000E+00 0.  1.
         11    1    5    5    0    0 -0.43813578529E+01 -0.24288781649E+02  0.35914454690E+02  0.43577393983E+02  0.00000000000E+00 0.  1.
        -11    1    5    5    0    0 -0.22216550699E+03 -0.37544333180E+03  0.17005452483E+03  0.46822403752E+03  0.00000000000E+00 0. -1.
          3    1    6    6  503    0  0.48649549708E+02  0.33078459421E+03  0.74103857483E+03  0.81297195267E+03  0.00000000000E+00 0. -1.
         -3    1    6    6    0  503 -0.53650010376E+01 -0.72997474226E+00  0.93244665099E+00  0.54941383323E+01  0.00000000000E+00 0.  1.
<mgrwt>
<rscale>  0 0.14058944E+04</rscale>
<asrwt>0</asrwt>
<pdfrwt beam="1">  1        2 0.38097895E+00 0.14058944E+04</pdfrwt>
<pdfrwt beam="2">  1       -1 0.30698539E-01 0.14058944E+04</pdfrwt>
<totfact> 0.39139878E+01</totfact>
</mgrwt>
</event>
<event>
12    6  0.1510140E-007  0.1214577E+04  0.7818608E-02  0.9100192E-01
          2   -1    0    0  501    0  0.00000000000E+00  0.00000000000E+00  0.27990612304E+04  0.27990612304E+04  0.00000000000E+00 0. -1.
         -1   -1    0    0    0  501 -0.00000000000E+00 -0.00000000000E+00 -0.13175817190E+03  0.13175817190E+03  0.00000000000E+00 0.  1.
         24    2    1    2    0    0  0.35985359481E+02  0.84219821896E+00 -0.23561533078E+02  0.86802485601E+02  0.75391446934E+02 0.  0.
        254    2    1    2    0    0 -0.35985359481E+02 -0.84219821896E+00  0.26908645916E+04  0.28440169167E+04  0.91999147650E+03 0.  0.
         23    2    4    4    0    0 -0.37410823957E+03 -0.23323225555E+03  0.18584232908E+04  0.19122691853E+04  0.93177515493E+02 0.  0.
         23    2    4    4    0    0  0.33812288009E+03  0.23239005733E+03  0.83244130082E+03  0.93174773141E+03  0.82843798163E+02 0.  0.
          2    1    3    3  502    0 -0.14083782619E+02 -0.14931705456E+02 -0.27321744545E+02  0.34172891093E+02  0.00000000000E+00 0. -1.
         -1    1    3    3    0  502  0.50069142100E+02  0.15773903675E+02  0.37602114671E+01  0.52629594508E+02  0.00000000000E+00 0.  1.
         11    1    5    5    0    0 -0.39977891253E+02 -0.63107088285E+02  0.26523450059E+03  0.27555412660E+03  0.00000000000E+00 0.  1.
        -11    1    5    5    0    0 -0.33413034832E+03 -0.17012516727E+03  0.15931887902E+04  0.16367150587E+04  0.00000000000E+00 0. -1.
          3    1    6    6  503    0  0.25803356432E+03  0.21668490392E+03  0.67099852617E+03  0.75084798064E+03  0.00000000000E+00 0. -1.
         -3    1    6    6    0  503  0.80089315769E+02  0.15705153410E+02  0.16144277465E+03  0.18089975077E+03  0.00000000000E+00 0.  1.
<mgrwt>
<rscale>  0 0.12145768E+04</rscale>
<asrwt>0</asrwt>
<pdfrwt beam="1">  1        2 0.43062476E+00 0.12145768E+04</pdfrwt>
<pdfrwt beam="2">  1       -1 0.20270490E-01 0.12145768E+04</pdfrwt>
<totfact> 0.52541484E+01</totfact>
</mgrwt>
</event>
<event>
12    6  0.1510140E-007  0.1545484E+04  0.7818608E-02  0.8854758E-01
         -1   -1    0    0    0  501 -0.00000000000E+00  0.00000000000E+00  0.24055156482E+04  0.24055156482E+04  0.00000000000E+00 0.  1.
          2   -1    0    0  501    0  0.00000000000E+00 -0.00000000000E+00 -0.24823373284E+03  0.24823373284E+03  0.00000000000E+00 0. -1.
         24    2    1    2    0    0 -0.24332389266E+03  0.14081310685E+03 -0.35183130342E+01  0.29802404859E+03  0.98848911004E+02 0.  0.
        254    2    1    2    0    0  0.24332389266E+03 -0.14081310685E+03  0.21608002284E+04  0.23557253324E+04  0.89518119235E+03 0.  0.
         23    2    4    4    0    0  0.22230745909E+02  0.29670858310E+03  0.14760569464E+04  0.15083388513E+04  0.88384341928E+02 0.  0.
         23    2    4    4    0    0  0.22109314675E+03 -0.43752168995E+03  0.68474328198E+03  0.84738648116E+03  0.94250079713E+02 0.  0.
          4    1    3    3  502    0 -0.25072809684E+03  0.12476975068E+03 -0.63490988862E+01  0.28012922069E+03  0.00000000000E+00 0. -1.
         -3    1    3    3    0  502  0.74042041774E+01  0.16043356170E+02  0.28307858520E+01  0.17894827891E+02  0.00000000000E+00 0.  1.
         11    1    5    5    0    0 -0.11955782694E+02  0.25688943269E+03  0.11843984863E+04  0.12119962441E+04  0.00000000000E+00 0.  1.
        -11    1    5    5    0    0  0.34186528603E+02  0.39819150405E+02  0.29165846013E+03  0.29634260720E+03  0.00000000000E+00 0. -1.
          2    1    6    6  503    0  0.14031380682E+02 -0.10393431204E+03  0.11724729336E+03  0.15730908639E+03  0.00000000000E+00 0. -1.
         -2    1    6    6    0  503  0.20706176607E+03 -0.33358737792E+03  0.56749598862E+03  0.69007739477E+03  0.00000000000E+00 0.  1.
<mgrwt>
<rscale>  0 0.15454839E+04</rscale>
<asrwt>0</asrwt>
<pdfrwt beam="1">  1        2 0.38189807E-01 0.15454839E+04</pdfrwt>
<pdfrwt beam="2">  1       -1 0.37007931E+00 0.15454839E+04</pdfrwt>
<totfact> 0.17168887E+00</totfact>
</mgrwt>
</event>
<event>
12    6  0.1510140E-007  0.1104155E+04  0.7818608E-02  0.9201151E-01
          2   -1    0    0  501    0  0.00000000000E+00  0.00000000000E+00  0.88675755665E+03  0.88675755665E+03  0.00000000000E+00 0. -1.
         -1   -1    0    0    0  501 -0.00000000000E+00 -0.00000000000E+00 -0.34371255954E+03  0.34371255954E+03  0.00000000000E+00 0.  1.
         24    2    1    2    0    0 -0.14922552051E+03 -0.45306717737E+02  0.14073939206E+03  0.22516522545E+03  0.81060765069E+02 0.  0.
        254    2    1    2    0    0  0.14922552051E+03  0.45306717737E+02  0.40230560506E+03  0.10053048907E+04  0.90800174495E+03 0.  0.
         23    2    4    4    0    0 -0.28870992505E+03 -0.16222777460E+03  0.37905216592E+03  0.51146386061E+03  0.90793527047E+02 0.  0.
         23    2    4    4    0    0  0.43793544556E+03  0.20753449234E+03  0.23253439144E+02  0.49384103012E+03  0.92088113306E+02 0.  0.
          2    1    3    3  502    0 -0.78185913267E+02 -0.32373582011E+02  0.12550387107E+03  0.15136811916E+03  0.00000000000E+00 0. -1.
         -1    1    3    3    0  502 -0.71039607244E+02 -0.12933135726E+02  0.15235520986E+02  0.73797106290E+02  0.00000000000E+00 0.  1.
         11    1    5    5    0    0 -0.53462878371E+01 -0.26581613931E+02  0.47631648531E+02  0.54808201344E+02  0.00000000000E+00 0. -1.
        -11    1    5    5    0    0 -0.28336363721E+03 -0.13564616067E+03  0.33142051738E+03  0.45665565927E+03  0.00000000000E+00 0.  1.
          1    1    6    6  503    0  0.23340613376E+03  0.80525575496E+02  0.48968441519E+02  0.25171551372E+03  0.00000000000E+00 0. -1.
         -1    1    6    6    0  503  0.20452931180E+03  0.12700891684E+03 -0.25715002375E+02  0.24212551640E+03  0.00000000000E+00 0.  1.
<mgrwt>
<rscale>  0 0.11041553E+04</rscale>
<asrwt>0</asrwt>
<pdfrwt beam="1">  1        2 0.13642424E+00 0.11041553E+04</pdfrwt>
<pdfrwt beam="2">  1       -1 0.52878856E-01 0.11041553E+04</pdfrwt>
<totfact> 0.12221885E+02</totfact>
</mgrwt>
</event>
<event>
12    6  0.1510140E-007  0.1950373E+04  0.7818608E-02  0.8630181E-01
          2   -1    0    0  501    0  0.00000000000E+00  0.00000000000E+00  0.73676085027E+03  0.73676085027E+03  0.00000000000E+00 0. -1.
         -1   -1    0    0    0  501 -0.00000000000E+00 -0.00000000000E+00 -0.12907701010E+04  0.12907701010E+04  0.00000000000E+00 0.  1.
         24    2    1    2    0    0 -0.29110824109E+03 -0.56591296107E+03  0.22189034227E+03  0.67885800294E+03  0.81310372187E+02 0.  0.
        254    2    1    2    0    0  0.29110824109E+03  0.56591296107E+03 -0.77589959302E+03  0.13486729483E+04  0.90105330342E+03 0.  0.
         23    2    4    4    0    0  0.59701426272E+03  0.27877540005E+03 -0.55209222049E+03  0.86449343955E+03  0.91658788707E+02 0.  0.
         23    2    4    4    0    0 -0.30590602162E+03  0.28713756102E+03 -0.22380737253E+03  0.48417950879E+03  0.91178855636E+02 0.  0.
          4    1    3    3  502    0 -0.32102924614E+02 -0.55958357712E+02  0.50022361333E+02  0.81634381237E+02  0.00000000000E+00 0. -1.
         -3    1    3    3    0  502 -0.25900531648E+03 -0.50995460335E+03  0.17186798094E+03  0.59722362170E+03  0.00000000000E+00 0.  1.
         11    1    5    5    0    0  0.41676588012E+03  0.22988862764E+03 -0.42940971927E+03  0.64104234412E+03  0.00000000000E+00 0. -1.
        -11    1    5    5    0    0  0.18024838259E+03  0.48886772405E+02 -0.12268250122E+03  0.22345109543E+03  0.00000000000E+00 0.  1.
          1    1    6    6  503    0 -0.19513005332E+03  0.14302382955E+03 -0.16612400839E+03  0.29347698324E+03  0.00000000000E+00 0. -1.
         -1    1    6    6    0  503 -0.11077596830E+03  0.14411373147E+03 -0.57683364144E+02  0.19070252555E+03  0.00000000000E+00 0.  1.
<mgrwt>
<rscale>  0 0.19503732E+04</rscale>
<asrwt>0</asrwt>
<pdfrwt beam="1">  1        2 0.11334782E+00 0.19503732E+04</pdfrwt>
<pdfrwt beam="2">  1       -1 0.19858002E+00 0.19503732E+04</pdfrwt>
<totfact> 0.62896957E+00</totfact>
</mgrwt>
</event>
<event>
12    6  0.1510140E-007  0.1889622E+04  0.7818608E-02  0.8660040E-01
         -1   -1    0    0    0  501 -0.00000000000E+00  0.00000000000E+00  0.45370414065E+03  0.45370414065E+03  0.00000000000E+00 0.  1.
          2   -1    0    0  501    0  0.00000000000E+00 -0.00000000000E+00 -0.19675102776E+04  0.19675102776E+04  0.00000000000E+00 0. -1.
         24    2    1    2    0    0  0.54352263139E+03 -0.47493127242E+03 -0.49328927255E+03  0.87786959788E+03  0.79650236142E+02 0.  0.
        254    2    1    2    0    0 -0.54352263139E+03  0.47493127242E+03 -0.10205168644E+04  0.15433448204E+04  0.90525245082E+03 0.  0.
         23    2    4    4    0    0  0.55647192671E+02 -0.20603929049E+03 -0.30949813789E+03  0.38715695770E+03  0.92480339867E+02 0.  0.
         23    2    4    4    0    0 -0.59916982406E+03  0.68097056291E+03 -0.71101872653E+03  0.11561878627E+04  0.92181119159E+02 0.  0.
          4    1    3    3  502    0  0.17907087824E+02 -0.39945341772E+02 -0.33757117509E+02  0.55279626502E+02  0.00000000000E+00 0. -1.
         -1    1    3    3    0  502  0.52561554357E+03 -0.43498593065E+03 -0.45953215504E+03  0.82258997138E+03  0.00000000000E+00 0.  1.
         11    1    5    5    0    0  0.43288615021E+02 -0.19865060585E+03 -0.23264009405E+03  0.30896177879E+03  0.00000000000E+00 0. -1.
        -11    1    5    5    0    0  0.12358577650E+02 -0.73886846470E+01 -0.76858043843E+02  0.78195178916E+02  0.00000000000E+00 0.  1.
          3    1    6    6  503    0 -0.53812363927E+03  0.64661888697E+03 -0.66546313776E+03  0.10726295837E+04  0.00000000000E+00 0. -1.
         -3    1    6    6    0  503 -0.61046184795E+02  0.34351675942E+02 -0.45555588768E+02  0.83558278980E+02  0.00000000000E+00 0.  1.
<mgrwt>
<rscale>  0 0.18896217E+04</rscale>
<asrwt>0</asrwt>
<pdfrwt beam="1">  1        2 0.30269389E+00 0.18896217E+04</pdfrwt>
<pdfrwt beam="2">  1       -1 0.69800637E-01 0.18896217E+04</pdfrwt>
<totfact> 0.15428730E+01</totfact>
</mgrwt>
</event>
<event>
12    6  0.1510140E-007  0.1849558E+04  0.7818608E-02  0.8680380E-01
          2   -1    0    0  501    0  0.00000000000E+00  0.00000000000E+00  0.44432761001E+03  0.44432761001E+03  0.00000000000E+00 0. -1.
         -3   -1    0    0    0  501 -0.00000000000E+00 -0.00000000000E+00 -0.19247429742E+04  0.19247429742E+04  0.00000000000E+00 0.  1.
         24    2    1    2    0    0 -0.38398670999E+03 -0.51695382226E+03 -0.15271306616E+03  0.66646335074E+03  0.78517956537E+02 0.  0.
        254    2    1    2    0    0  0.38398670999E+03  0.51695382226E+03 -0.13277022980E+04  0.17026072335E+04  0.84934736796E+03 0.  0.
         23    2    4    4    0    0  0.50069550606E+03 -0.14734902808E+02 -0.71696214992E+03  0.87952790303E+03  0.92852036256E+02 0.  0.
         23    2    4    4    0    0 -0.11670879606E+03  0.53168872507E+03 -0.61074014809E+03  0.82307933043E+03  0.90234207710E+02 0.  0.
          2    1    3    3  502    0 -0.15329698490E+03 -0.20461536109E+03 -0.21395692800E+02  0.25656419712E+03  0.00000000000E+00 0. -1.
         -1    1    3    3    0  502 -0.23068972509E+03 -0.31233846117E+03 -0.13131737336E+03  0.40989915362E+03  0.00000000000E+00 0.  1.
         11    1    5    5    0    0  0.23579939541E+03  0.11689183134E+02 -0.41085121894E+03  0.47385305315E+03  0.00000000000E+00 0. -1.
        -11    1    5    5    0    0  0.26489611065E+03 -0.26424085941E+02 -0.30611093098E+03  0.40567484988E+03  0.00000000000E+00 0.  1.
          1    1    6    6  503    0 -0.96677267090E+02  0.47060526818E+03 -0.48964833623E+03  0.68598200092E+03  0.00000000000E+00 0. -1.
         -1    1    6    6    0  503 -0.20031528975E+02  0.61083456890E+02 -0.12109181186E+03  0.13709732951E+03  0.00000000000E+00 0.  1.
<mgrwt>
<rscale>  0 0.18495583E+04</rscale>
<asrwt>0</asrwt>
<pdfrwt beam="1">  1        2 0.68358092E-01 0.18495583E+04</pdfrwt>
<pdfrwt beam="2">  1       -3 0.29611431E+00 0.18495583E+04</pdfrwt>
<totfact> 0.16531433E+00</totfact>
</mgrwt>
</event>
<event>
12    6  0.1510140E-007  0.1972118E+04  0.7818608E-02  0.8619769E-01
          2   -1    0    0  501    0  0.00000000000E+00  0.00000000000E+00  0.83382966833E+03  0.83382966833E+03  0.00000000000E+00 0. -1.
         -1   -1    0    0    0  501 -0.00000000000E+00 -0.00000000000E+00 -0.11660800888E+04  0.11660800888E+04  0.00000000000E+00 0.  1.
         24    2    1    2    0    0 -0.29215809793E+03  0.38627991043E+03  0.48829177897E+03  0.69208674196E+03  0.77373597580E+02 0.  0.
        254    2    1    2    0    0  0.29215809793E+03 -0.38627991043E+03 -0.82054219943E+03  0.13078230152E+04  0.89584765140E+03 0.  0.
         23    2    4    4    0    0 -0.81279663704E+02 -0.12462960095E+03 -0.82487803162E+03  0.84286704611E+03  0.88668873889E+02 0.  0.
         23    2    4    4    0    0  0.37343776163E+03 -0.26165030948E+03  0.43358321919E+01  0.46495596904E+03  0.90821844525E+02 0.  0.
          4    1    3    3  502    0 -0.28929517518E+03  0.38660134379E+03  0.47091428117E+03  0.67447205844E+03  0.00000000000E+00 0. -1.
         -3    1    3    3    0  502 -0.28629227477E+01 -0.32143335124E+00  0.17377497798E+02  0.17614683528E+02  0.00000000000E+00 0.  1.
         11    1    5    5    0    0 -0.54307028622E+02 -0.10057853349E+02 -0.24182284930E+03  0.24804980189E+03  0.00000000000E+00 0.  1.
        -11    1    5    5    0    0 -0.26972635083E+02 -0.11457174760E+03 -0.58305518232E+03  0.59481724422E+03  0.00000000000E+00 0. -1.
          2    1    6    6  503    0  0.18765198027E+03 -0.13333091161E+03  0.47573576521E+02  0.23506093438E+03  0.00000000000E+00 0. -1.
         -2    1    6    6    0  503  0.18578578136E+03 -0.12831939788E+03 -0.43237744330E+02  0.22989503466E+03  0.00000000000E+00 0.  1.
<mgrwt>
<rscale>  0 0.19721178E+04</rscale>
<asrwt>0</asrwt>
<pdfrwt beam="1">  1        2 0.12828149E+00 0.19721178E+04</pdfrwt>
<pdfrwt beam="2">  1       -1 0.17939694E+00 0.19721178E+04</pdfrwt>
<totfact> 0.72768965E+00</totfact>
</mgrwt>
</event>
<event>
12    6  0.1510140E-007  0.2424125E+04  0.7818608E-02  0.8430526E-01
         -1   -1    0    0    0  501 -0.00000000000E+00  0.00000000000E+00  0.51916024907E+03  0.51916024907E+03  0.00000000000E+00 0.  1.
          2   -1    0    0  501    0  0.00000000000E+00 -0.00000000000E+00 -0.28297538158E+04  0.28297538158E+04  0.00000000000E+00 0. -1.
         24    2    1    2    0    0  0.28862518647E+03 -0.64644092863E+03 -0.20584198021E+04  0.21777633550E+04  0.66111843748E+02 0.  0.
        254    2    1    2    0    0 -0.28862518647E+03  0.64644092863E+03 -0.25217376462E+03  0.11711507099E+04  0.89822714574E+03 0.  0.
         23    2    4    4    0    0  0.20587116382E+03  0.17243804400E+03 -0.37431516907E+03  0.46959750277E+03  0.91061263436E+02 0.  0.
         23    2    4    4    0    0 -0.49449635029E+03  0.47400288463E+03  0.12214140445E+03  0.70155320717E+03  0.89738535294E+02 0.  0.
          2    1    3    3  502    0  0.24397402222E+03 -0.54524915515E+03 -0.18044996976E+04  0.19007996011E+04  0.00000000000E+00 0. -1.
         -1    1    3    3    0  502  0.44651164255E+02 -0.10119177348E+03 -0.25392010450E+03  0.27696375387E+03  0.00000000000E+00 0.  1.
         11    1    5    5    0    0  0.14739617263E+03  0.65218705611E+02 -0.20299287703E+03  0.25920111765E+03  0.00000000000E+00 0. -1.
        -11    1    5    5    0    0  0.58474991189E+02  0.10721933839E+03 -0.17132229204E+03  0.21039638512E+03  0.00000000000E+00 0.  1.
          4    1    6    6  503    0 -0.21710278842E+03  0.24177958946E+03  0.19614625477E+02  0.32553912845E+03  0.00000000000E+00 0. -1.
         -4    1    6    6    0  503 -0.27739356187E+03  0.23222329517E+03  0.10252677898E+03  0.37601407872E+03  0.00000000000E+00 0.  1.
<mgrwt>
<rscale>  0 0.24241252E+04</rscale>
<asrwt>0</asrwt>
<pdfrwt beam="1">  1        2 0.43534674E+00 0.24241252E+04</pdfrwt>
<pdfrwt beam="2">  1       -1 0.79870809E-01 0.24241252E+04</pdfrwt>
<totfact> 0.35447495E+00</totfact>
</mgrwt>
</event>
<event>
12    6  0.1510140E-007  0.1903119E+04  0.7818608E-02  0.8653305E-01
          2   -1    0    0  501    0  0.00000000000E+00  0.00000000000E+00  0.27128507479E+04  0.27128507479E+04  0.00000000000E+00 0. -1.
         -3   -1    0    0    0  501 -0.00000000000E+00 -0.00000000000E+00 -0.33376906033E+03  0.33376906033E+03  0.00000000000E+00 0.  1.
         24    2    1    2    0    0 -0.36853997955E+03  0.34381245304E+03  0.17852591486E+04  0.18567597614E+04  0.79861534216E+02 0.  0.
        254    2    1    2    0    0  0.36853997955E+03 -0.34381245304E+03  0.59382253901E+03  0.11898600468E+04  0.89950708938E+03 0.  0.
         23    2    4    4    0    0  0.59415679351E+03  0.73286430123E+01  0.30262534217E+03  0.67299448622E+03  0.90903665927E+02 0.  0.
         23    2    4    4    0    0 -0.22561681396E+03 -0.35114109605E+03  0.29119719684E+03  0.51686556062E+03  0.90283909001E+02 0.  0.
          2    1    3    3  502    0 -0.29835469518E+03  0.31334234679E+03  0.15583036664E+04  0.16172536187E+04  0.00000000000E+00 0. -1.
         -1    1    3    3    0  502 -0.70185284373E+02  0.30470106249E+02  0.22695548219E+03  0.23950614275E+03  0.00000000000E+00 0.  1.
         11    1    5    5    0    0  0.17771905133E+03  0.13496366745E+02  0.47013653002E+02  0.18432714582E+03  0.00000000000E+00 0. -1.
        -11    1    5    5    0    0  0.41643774219E+03 -0.61677237323E+01  0.25561168916E+03  0.48866734040E+03  0.00000000000E+00 0.  1.
          1    1    6    6  503    0 -0.47141117339E+02 -0.21334902848E+02  0.41617099693E+02  0.66403659616E+02  0.00000000000E+00 0. -1.
         -1    1    6    6    0  503 -0.17847569662E+03 -0.32980619320E+03  0.24958009715E+03  0.45046190100E+03  0.00000000000E+00 0.  1.
<mgrwt>
<rscale>  0 0.19031192E+04</rscale>
<asrwt>0</asrwt>
<pdfrwt beam="1">  1        2 0.41736164E+00 0.19031192E+04</pdfrwt>
<pdfrwt beam="2">  1       -3 0.51349088E-01 0.19031192E+04</pdfrwt>
<totfact> 0.59235157E+00</totfact>
</mgrwt>
</event>
<event>
12    6  0.1510140E-007  0.1657026E+04  0.7818608E-02  0.8786261E-01
         -1   -1    0    0    0  501 -0.00000000000E+00  0.00000000000E+00  0.32408693233E+03  0.32408693233E+03  0.00000000000E+00 0.  1.
          2   -1    0    0  501    0  0.00000000000E+00 -0.00000000000E+00 -0.21180545887E+04  0.21180545887E+04  0.00000000000E+00 0. -1.
         24    2    1    2    0    0 -0.43343093197E+03 -0.13082325112E+03 -0.11856178838E+04  0.12716503534E+04  0.80173307085E+02 0.  0.
        254    2    1    2    0    0  0.43343093197E+03  0.13082325112E+03 -0.60834977262E+03  0.11704911676E+04  0.89161820969E+03 0.  0.
         23    2    4    4    0    0 -0.76333800540E+01 -0.14179975638E+03 -0.62266993333E+03  0.64500323075E+03  0.90254542276E+02 0.  0.
         23    2    4    4    0    0  0.44106431203E+03  0.27262300750E+03  0.14320160715E+02  0.52548793689E+03  0.84092052235E+02 0.  0.
          4    1    3    3  502    0 -0.40946319603E+03 -0.10317731721E+03 -0.10669684517E+04  0.11474874050E+04  0.00000000000E+00 0. -1.
         -3    1    3    3    0  502 -0.23967735948E+02 -0.27645933914E+02 -0.11864943204E+03  0.12416294838E+03  0.00000000000E+00 0.  1.
         11    1    5    5    0    0 -0.13315299305E+02  0.86067801090E+01 -0.36062582377E+02  0.39393955211E+02  0.00000000000E+00 0.  1.
        -11    1    5    5    0    0  0.56819192510E+01 -0.15040653649E+03 -0.58660735095E+03  0.60560927554E+03  0.00000000000E+00 0. -1.
          2    1    6    6  503    0  0.19629538904E+03  0.73039427856E+02  0.32433488844E+01  0.20946874968E+03  0.00000000000E+00 0.  1.
         -2    1    6    6    0  503  0.24476892298E+03  0.19958357964E+03  0.11076811831E+02  0.31601918720E+03  0.00000000000E+00 0. -1.
<mgrwt>
<rscale>  0 0.16570260E+04</rscale>
<asrwt>0</asrwt>
<pdfrwt beam="1">  1        2 0.32585455E+00 0.16570260E+04</pdfrwt>
<pdfrwt beam="2">  1       -1 0.49859528E-01 0.16570260E+04</pdfrwt>
<totfact> 0.25200726E+01</totfact>
</mgrwt>
</event>
<event>
12    6  0.1510140E-007  0.2313785E+04  0.7818608E-02  0.8472506E-01
         -1   -1    0    0    0  501 -0.00000000000E+00  0.00000000000E+00  0.49694698357E+03  0.49694698357E+03  0.00000000000E+00 0.  1.
          2   -1    0    0  501    0  0.00000000000E+00 -0.00000000000E+00 -0.26932444675E+04  0.26932444675E+04  0.00000000000E+00 0. -1.
         24    2    1    2    0    0 -0.82774711438E+03  0.12839727358E+01 -0.21327525397E+03  0.85865210075E+03  0.81425808004E+02 0.  0.
        254    2    1    2    0    0  0.82774711438E+03 -0.12839727358E+01 -0.19830222300E+04  0.23315393504E+04  0.90472738636E+03 0.  0.
         23    2    4    4    0    0  0.22608685318E+02  0.30499896677E+03 -0.83044589793E+03  0.88967633206E+03  0.91367740766E+02 0.  0.
         23    2    4    4    0    0  0.80513842906E+03 -0.30628293950E+03 -0.11525763321E+04  0.14418630183E+04  0.92084924417E+02 0.  0.
          4    1    3    3  502    0 -0.27309312186E+03 -0.15843309293E+02 -0.10651081446E+03  0.29355649755E+03  0.00000000000E+00 0. -1.
         -3    1    3    3    0  502 -0.55465399252E+03  0.17127282029E+02 -0.10676443951E+03  0.56509560319E+03  0.00000000000E+00 0.  1.
         11    1    5    5    0    0  0.31014199034E+02  0.11510825802E+03 -0.43309766528E+03  0.44920527521E+03  0.00000000000E+00 0. -1.
        -11    1    5    5    0    0 -0.84055137161E+01  0.18989070875E+03 -0.39734823265E+03  0.44047105684E+03  0.00000000000E+00 0.  1.
          3    1    6    6  503    0  0.65479301541E+02 -0.17899706618E+02 -0.55565976918E+02  0.87724091435E+02  0.00000000000E+00 0. -1.
         -3    1    6    6    0  503  0.73965912752E+03 -0.28838323288E+03 -0.10970103552E+04  0.13541389269E+04  0.00000000000E+00 0.  1.
<mgrwt>
<rscale>  0 0.23137845E+04</rscale>
<asrwt>0</asrwt>
<pdfrwt beam="1">  1        2 0.41434531E+00 0.23137845E+04</pdfrwt>
<pdfrwt beam="2">  1       -1 0.76453382E-01 0.23137845E+04</pdfrwt>
<totfact> 0.47428227E+00</totfact>
</mgrwt>
</event>
<event>
12    6  0.1510140E-007  0.1325393E+04  0.7818608E-02  0.9009667E-01
          2   -1    0    0  501    0  0.00000000000E+00  0.00000000000E+00  0.88555004832E+03  0.88555004832E+03  0.00000000000E+00 0. -1.
         -1   -1    0    0    0  501 -0.00000000000E+00 -0.00000000000E+00 -0.49592556954E+03  0.49592556954E+03  0.00000000000E+00 0.  1.
         24    2    1    2    0    0 -0.32960674255E+03  0.24528593592E+02 -0.19051451856E+02  0.34044707990E+03  0.79366238136E+02 0.  0.
        254    2    1    2    0    0  0.32960674255E+03 -0.24528593592E+02  0.40867593063E+03  0.10410285380E+04  0.89860010234E+03 0.  0.
         23    2    4    4    0    0  0.37350540931E+03 -0.93425070629E+02  0.65531672771E+03  0.76559570350E+03  0.91990396206E+02 0.  0.
         23    2    4    4    0    0 -0.43898666767E+02  0.68896477037E+02 -0.24664079708E+03  0.27543283445E+03  0.91420708913E+02 0.  0.
          2    1    3    3  502    0 -0.31704644361E+03  0.32713433244E+02 -0.33631793457E+01  0.31874743465E+03  0.00000000000E+00 0. -1.
         -1    1    3    3    0  502 -0.12560298940E+02 -0.81848396518E+01 -0.15688272510E+02  0.21699645249E+02  0.00000000000E+00 0.  1.
         11    1    5    5    0    0  0.27045416260E+03 -0.10900011291E+03  0.48721135571E+03  0.56780400123E+03  0.00000000000E+00 0.  1.
        -11    1    5    5    0    0  0.10305124672E+03  0.15575042281E+02  0.16810537201E+03  0.19779170228E+03  0.00000000000E+00 0. -1.
          3    1    6    6  503    0 -0.20553762556E+01  0.76998460783E+02 -0.12823718749E+03  0.14959199106E+03  0.00000000000E+00 0. -1.
         -3    1    6    6    0  503 -0.41843290511E+02 -0.81019837454E+01 -0.11840360959E+03  0.12584084339E+03  0.00000000000E+00 0.  1.
<mgrwt>
<rscale>  0 0.13253934E+04</rscale>
<asrwt>0</asrwt>
<pdfrwt beam="1">  1        2 0.13623847E+00 0.13253934E+04</pdfrwt>
<pdfrwt beam="2">  1       -1 0.76296242E-01 0.13253934E+04</pdfrwt>
<totfact> 0.57785913E+01</totfact>
</mgrwt>
</event>
<event>
12    6  0.1510140E-007  0.1861652E+04  0.7818608E-02  0.8674184E-01
          2   -1    0    0  501    0  0.00000000000E+00  0.00000000000E+00  0.62647983959E+03  0.62647983959E+03  0.00000000000E+00 0. -1.
         -1   -1    0    0    0  501 -0.00000000000E+00 -0.00000000000E+00 -0.13830242107E+04  0.13830242107E+04  0.00000000000E+00 0.  1.
         24    2    1    2    0    0 -0.52448784091E+03  0.44266201517E+03 -0.87612129509E+02  0.69651497246E+03  0.80125318664E+02 0.  0.
        254    2    1    2    0    0  0.52448784091E+03 -0.44266201517E+03 -0.66893224161E+03  0.13129890778E+04  0.89745909082E+03 0.  0.
         23    2    4    4    0    0  0.17212365640E+03 -0.23000213035E+03 -0.81318562653E+03  0.86729484524E+03  0.91662164126E+02 0.  0.
         23    2    4    4    0    0  0.35236418451E+03 -0.21265988482E+03  0.14425338491E+03  0.44569423259E+03  0.91921514178E+02 0.  0.
          2    1    3    3  502    0 -0.39206824007E+03  0.30656154078E+03 -0.94118420047E+02  0.50651333659E+03  0.00000000000E+00 0. -1.
         -1    1    3    3    0  502 -0.13241960085E+03  0.13610047439E+03  0.65062905381E+01  0.19000163587E+03  0.00000000000E+00 0.  1.
         11    1    5    5    0    0  0.19960462007E+02 -0.15488994707E+01 -0.21517023647E+02  0.29390499141E+02  0.00000000000E+00 0. -1.
        -11    1    5    5    0    0  0.15216319440E+03 -0.22845323087E+03 -0.79166860288E+03  0.83790434610E+03  0.00000000000E+00 0.  1.
          3    1    6    6  503    0  0.90727581812E+02 -0.85027134666E+02  0.89085023226E+01  0.12466141803E+03  0.00000000000E+00 0. -1.
         -3    1    6    6    0  503  0.26163660270E+03 -0.12763275016E+03  0.13534488259E+03  0.32103281456E+03  0.00000000000E+00 0.  1.
<mgrwt>
<rscale>  0 0.18616517E+04</rscale>
<asrwt>0</asrwt>
<pdfrwt beam="1">  1        2 0.96381514E-01 0.18616517E+04</pdfrwt>
<pdfrwt beam="2">  1       -1 0.21277296E+00 0.18616517E+04</pdfrwt>
<totfact> 0.62137478E+00</totfact>
</mgrwt>
</event>
<event>
12    6  0.1510140E-007  0.2040362E+04  0.7818608E-02  0.8587979E-01
         -1   -1    0    0    0  501 -0.00000000000E+00  0.00000000000E+00  0.30157035652E+03  0.30157035652E+03  0.00000000000E+00 0.  1.
          2   -1    0    0  501    0  0.00000000000E+00 -0.00000000000E+00 -0.34511652785E+04  0.34511652785E+04  0.00000000000E+00 0. -1.
         24    2    1    2    0    0 -0.59626105961E+03  0.39984429428E+03 -0.56197892043E+03  0.91532593666E+03  0.81231474424E+02 0.  0.
        254    2    1    2    0    0  0.59626105961E+03 -0.39984429428E+03 -0.25876160015E+04  0.28374096983E+04  0.91637029303E+03 0.  0.
         23    2    4    4    0    0  0.14274180546E+03 -0.34512423426E+03 -0.21916639043E+04  0.22251293559E+04  0.91236074531E+02 0.  0.
         23    2    4    4    0    0  0.45351925416E+03 -0.54720060013E+02 -0.39595209724E+03  0.61228034238E+03  0.97134728561E+02 0.  0.
          4    1    3    3  502    0 -0.35809699514E+03  0.26531147933E+03 -0.30526302799E+03  0.54019362755E+03  0.00000000000E+00 0. -1.
         -3    1    3    3    0  502 -0.23816406448E+03  0.13453281495E+03 -0.25671589244E+03  0.37513230911E+03  0.00000000000E+00 0.  1.
         11    1    5    5    0    0  0.11872505735E+03 -0.33559168697E+03 -0.20971346272E+04  0.21271321220E+04  0.00000000000E+00 0.  1.
        -11    1    5    5    0    0  0.24016748112E+02 -0.95325472974E+01 -0.94529277012E+02  0.97997233942E+02  0.00000000000E+00 0. -1.
          4    1    6    6  503    0  0.45293595009E+03 -0.61387635860E+02 -0.37803015506E+03  0.59314940348E+03  0.00000000000E+00 0.  1.
         -4    1    6    6    0  503  0.58330406723E+00  0.66675758470E+01 -0.17921942183E+02  0.19130938893E+02  0.00000000000E+00 0. -1.
<mgrwt>
<rscale>  0 0.20403619E+04</rscale>
<asrwt>0</asrwt>
<pdfrwt beam="1">  1        2 0.53094850E+00 0.20403619E+04</pdfrwt>
<pdfrwt beam="2">  1       -1 0.46395439E-01 0.20403619E+04</pdfrwt>
<totfact> 0.43061492E+00</totfact>
</mgrwt>
</event>
<event>
12    6  0.1510140E-007  0.1306663E+04  0.7818608E-02  0.9024298E-01
          4   -1    0    0  501    0  0.00000000000E+00  0.00000000000E+00  0.51831354529E+03  0.51831354529E+03  0.00000000000E+00 0. -1.
         -1   -1    0    0    0  501 -0.00000000000E+00 -0.00000000000E+00 -0.82352080095E+03  0.82352080095E+03  0.00000000000E+00 0.  1.
         24    2    1    2    0    0  0.29621224793E+03 -0.16976987084E+03 -0.66011774342E+02  0.35634147524E+03  0.77834360999E+02 0.  0.
        254    2    1    2    0    0 -0.29621224793E+03  0.16976987084E+03 -0.23919548132E+03  0.98549287101E+03  0.89298276336E+03 0.  0.
         23    2    4    4    0    0 -0.22542608952E+03  0.51592629110E+03 -0.47919594033E+02  0.57340214878E+03  0.97451921771E+02 0.  0.
         23    2    4    4    0    0 -0.70786158415E+02 -0.34615642026E+03 -0.19127588729E+03  0.41209072222E+03  0.91637060040E+02 0.  0.
          4    1    3    3  502    0  0.67447020649E+02 -0.48037241002E+02  0.16402834759E+02  0.84414039742E+02  0.00000000000E+00 0. -1.
         -3    1    3    3    0  502  0.22876522728E+03 -0.12173262983E+03 -0.82414609101E+02  0.27192743549E+03  0.00000000000E+00 0.  1.
         11    1    5    5    0    0 -0.12631186765E+03  0.27985962712E+03  0.22492616893E+02  0.30786688133E+03  0.00000000000E+00 0.  1.
        -11    1    5    5    0    0 -0.99114221867E+02  0.23606666397E+03 -0.70412210926E+02  0.26553526746E+03  0.00000000000E+00 0. -1.
          4    1    6    6  503    0 -0.45711831093E+02 -0.10223370233E+03 -0.21999195775E+02  0.11412828750E+03  0.00000000000E+00 0. -1.
         -4    1    6    6    0  503 -0.25074327322E+02 -0.24392271793E+03 -0.16927669151E+03  0.29796243472E+03  0.00000000000E+00 0.  1.
<mgrwt>
<rscale>  0 0.13066629E+04</rscale>
<asrwt>0</asrwt>
<pdfrwt beam="1">  1        4 0.79740545E-01 0.13066629E+04</pdfrwt>
<pdfrwt beam="2">  1       -1 0.12669551E+00 0.13066629E+04</pdfrwt>
<totfact> 0.30844561E+00</totfact>
</mgrwt>
</event>
<event>
12    6  0.1510140E-007  0.1451097E+04  0.7818608E-02  0.8917640E-01
          2   -1    0    0  501    0  0.00000000000E+00  0.00000000000E+00  0.86886160991E+03  0.86886160991E+03  0.00000000000E+00 0. -1.
         -1   -1    0    0    0  501 -0.00000000000E+00 -0.00000000000E+00 -0.60587403580E+03  0.60587403580E+03  0.00000000000E+00 0.  1.
         24    2    1    2    0    0  0.27809363625E+03  0.21242483655E+03  0.35233720906E+03  0.50559437629E+03  0.94993593148E+02 0.  0.
        254    2    1    2    0    0 -0.27809363625E+03 -0.21242483655E+03 -0.89349634952E+02  0.96914126941E+03  0.89932811649E+03 0.  0.
         23    2    4    4    0    0 -0.39023398061E+03  0.20031082085E+03 -0.23872689953E+03  0.50755491984E+03  0.90633765910E+02 0.  0.
         23    2    4    4    0    0  0.11214034436E+03 -0.41273565740E+03  0.14937726458E+03  0.46158634957E+03  0.88443265488E+02 0.  0.
          4    1    3    3  502    0  0.18619574928E+03  0.15538927398E+03  0.17956017398E+03  0.30175576150E+03  0.00000000000E+00 0. -1.
         -1    1    3    3    0  502  0.91897886969E+02  0.57035562570E+02  0.17277703509E+03  0.20383861479E+03  0.00000000000E+00 0.  1.
         11    1    5    5    0    0 -0.27485835589E+03  0.16452247345E+03 -0.21109831951E+03  0.38363688635E+03  0.00000000000E+00 0.  1.
        -11    1    5    5    0    0 -0.11537562473E+03  0.35788347404E+02 -0.27628580026E+02  0.12391803350E+03  0.00000000000E+00 0. -1.
          4    1    6    6  503    0  0.76216877054E+02 -0.35761001504E+03  0.15142501689E+03  0.39575683310E+03  0.00000000000E+00 0.  1.
         -4    1    6    6    0  503  0.35923467305E+02 -0.55125642358E+02 -0.20477523076E+01  0.65829516466E+02  0.00000000000E+00 0. -1.
<mgrwt>
<rscale>  0 0.14510971E+04</rscale>
<asrwt>0</asrwt>
<pdfrwt beam="1">  1        2 0.13367102E+00 0.14510971E+04</pdfrwt>
<pdfrwt beam="2">  1       -1 0.93211390E-01 0.14510971E+04</pdfrwt>
<totfact> 0.38099963E+01</totfact>
</mgrwt>
</event>
<event>
12    6  0.1510140E-007  0.2140652E+04  0.7818608E-02  0.8543544E-01
         -1   -1    0    0    0  501 -0.00000000000E+00  0.00000000000E+00  0.57041506794E+03  0.57041506794E+03  0.00000000000E+00 0.  1.
          2   -1    0    0  501    0  0.00000000000E+00 -0.00000000000E+00 -0.20083578967E+04  0.20083578967E+04  0.00000000000E+00 0. -1.
         24    2    1    2    0    0 -0.63788284227E+03 -0.43580113367E+03 -0.10949717560E+04  0.13424166401E+04  0.79386023535E+02 0.  0.
        254    2    1    2    0    0  0.63788284227E+03  0.43580113367E+03 -0.34297107282E+03  0.12363563245E+04  0.90229189062E+03 0.  0.
         23    2    4    4    0    0  0.95733809926E+02  0.58861840720E+03 -0.83481127830E+02  0.60893477482E+03  0.90531042338E+02 0.  0.
         23    2    4    4    0    0  0.54214903235E+03 -0.15281727353E+03 -0.25948994499E+03  0.62742154972E+03  0.95100352998E+02 0.  0.
          2    1    3    3  502    0 -0.26647387204E+03 -0.19394298615E+03 -0.53348651670E+03  0.62708059279E+03  0.00000000000E+00 0. -1.
         -1    1    3    3    0  502 -0.37140897023E+03 -0.24185814752E+03 -0.56148523926E+03  0.71533604732E+03  0.00000000000E+00 0.  1.
         11    1    5    5    0    0  0.73265606449E+02  0.56795121755E+03 -0.79285234942E+02  0.57811986913E+03  0.00000000000E+00 0. -1.
        -11    1    5    5    0    0  0.22468203477E+02  0.20667189645E+02 -0.41958928882E+01  0.30814905686E+02  0.00000000000E+00 0.  1.
          3    1    6    6  503    0  0.36756902224E+03 -0.78729477244E+02 -0.12987116819E+03  0.39770823103E+03  0.00000000000E+00 0. -1.
         -3    1    6    6    0  503  0.17458001011E+03 -0.74087796284E+02 -0.12961877680E+03  0.22971331870E+03  0.00000000000E+00 0.  1.
<mgrwt>
<rscale>  0 0.21406519E+04</rscale>
<asrwt>0</asrwt>
<pdfrwt beam="1">  1        2 0.30897813E+00 0.21406519E+04</pdfrwt>
<pdfrwt beam="2">  1       -1 0.87756166E-01 0.21406519E+04</pdfrwt>
<totfact> 0.88248440E+00</totfact>
</mgrwt>
</event>
<event>
12    6  0.1510140E-007  0.1673614E+04  0.7818608E-02  0.8776558E-01
         -1   -1    0    0    0  501 -0.00000000000E+00  0.00000000000E+00  0.14519135935E+03  0.14519135935E+03  0.00000000000E+00 0.  1.
          2   -1    0    0  501    0  0.00000000000E+00 -0.00000000000E+00 -0.48229198445E+04  0.48229198445E+04  0.00000000000E+00 0. -1.
         24    2    1    2    0    0 -0.84505892459E+02 -0.20903560970E+03 -0.32391107268E+04  0.32479118264E+04  0.79093612794E+02 0.  0.
        254    2    1    2    0    0  0.84505892459E+02  0.20903560970E+03 -0.14386177583E+04  0.17201993774E+04  0.91576618828E+03 0.  0.
         23    2    4    4    0    0 -0.18714180675E+03  0.44405848680E+03 -0.11515640725E+04  0.12516619930E+04  0.91367040522E+02 0.  0.
         23    2    4    4    0    0  0.27164769921E+03 -0.23502287710E+03 -0.28705368582E+03  0.46853738444E+03  0.89995760074E+02 0.  0.
          4    1    3    3  502    0 -0.49174370231E+02 -0.15775936695E+03 -0.27318765996E+04  0.27368697251E+04  0.00000000000E+00 0. -1.
         -3    1    3    3    0  502 -0.35331522228E+02 -0.51276242747E+02 -0.50723412720E+03  0.51104210133E+03  0.00000000000E+00 0.  1.
         11    1    5    5    0    0 -0.19209468296E+02  0.69310799745E+01 -0.73582170337E+02  0.76363468578E+02  0.00000000000E+00 0.  1.
        -11    1    5    5    0    0 -0.16793233846E+03  0.43712740682E+03 -0.10779819022E+04  0.11752985244E+04  0.00000000000E+00 0. -1.
          1    1    6    6  503    0  0.25840283787E+03 -0.18716479174E+03 -0.26235387900E+03  0.41307655914E+03  0.00000000000E+00 0. -1.
         -1    1    6    6    0  503  0.13244861344E+02 -0.47858085363E+02 -0.24699806825E+02  0.55460825308E+02  0.00000000000E+00 0.  1.
<mgrwt>
<rscale>  0 0.16736144E+04</rscale>
<asrwt>0</asrwt>
<pdfrwt beam="1">  1        2 0.74198768E+00 0.16736144E+04</pdfrwt>
<pdfrwt beam="2">  1       -1 0.22337132E-01 0.16736144E+04</pdfrwt>
<totfact> 0.10703820E+00</totfact>
</mgrwt>
</event>
<event>
12    6  0.1510140E-007  0.2042525E+04  0.7818608E-02  0.8586993E-01
          2   -1    0    0  501    0  0.00000000000E+00  0.00000000000E+00  0.89743460757E+03  0.89743460757E+03  0.00000000000E+00 0. -1.
         -1   -1    0    0    0  501 -0.00000000000E+00 -0.00000000000E+00 -0.11621755880E+04  0.11621755880E+04  0.00000000000E+00 0.  1.
         24    2    1    2    0    0 -0.15371565479E+02 -0.43619284596E+03 -0.81179195436E+03  0.92516947198E+03  0.80199069967E+02 0.  0.
        254    2    1    2    0    0  0.15371565479E+02  0.43619284596E+03  0.54705097392E+03  0.11344407236E+04  0.89285525335E+03 0.  0.
         23    2    4    4    0    0  0.13772195661E+03  0.70869512061E+02  0.69040782279E+03  0.71339582988E+03  0.90999028830E+02 0.  0.
         23    2    4    4    0    0 -0.12235039113E+03  0.36532333390E+03 -0.14335684887E+03  0.42104489373E+03  0.91087100739E+02 0.  0.
          4    1    3    3  502    0 -0.48300150907E+01 -0.29654087684E+03 -0.46942326277E+03  0.55526391951E+03  0.00000000000E+00 0. -1.
         -3    1    3    3    0  502 -0.10541550388E+02 -0.13965196912E+03 -0.34236869159E+03  0.36990555246E+03  0.00000000000E+00 0.  1.
         11    1    5    5    0    0  0.93913404177E+02 -0.22797396381E+00  0.30918866495E+03  0.32313682859E+03  0.00000000000E+00 0. -1.
        -11    1    5    5    0    0  0.43808552435E+02  0.71097486025E+02  0.38121915784E+03  0.39025900129E+03  0.00000000000E+00 0.  1.
          3    1    6    6  503    0 -0.28736502113E+02  0.19309910579E+02 -0.27874539966E+02  0.44448275316E+02  0.00000000000E+00 0. -1.
         -3    1    6    6    0  503 -0.93613889021E+02  0.34601342332E+03 -0.11548230891E+03  0.37659661842E+03  0.00000000000E+00 0.  1.
<mgrwt>
<rscale>  0 0.20425245E+04</rscale>
<asrwt>0</asrwt>
<pdfrwt beam="1">  1        2 0.13806686E+00 0.20425245E+04</pdfrwt>
<pdfrwt beam="2">  1       -1 0.17879624E+00 0.20425245E+04</pdfrwt>
<totfact> 0.66021152E+00</totfact>
</mgrwt>
</event>
<event>
12    6  0.1510140E-007  0.1742259E+04  0.7818608E-02  0.8737623E-01
         -1   -1    0    0    0  501 -0.00000000000E+00  0.00000000000E+00  0.52678291305E+03  0.52678291305E+03  0.00000000000E+00 0.  1.
          2   -1    0    0  501    0  0.00000000000E+00 -0.00000000000E+00 -0.14405677521E+04  0.14405677521E+04  0.00000000000E+00 0. -1.
         24    2    1    2    0    0 -0.38842791423E+03  0.40731563306E+03  0.13118099327E+01  0.56850515754E+03  0.80088225215E+02 0.  0.
        254    2    1    2    0    0  0.38842791423E+03 -0.40731563306E+03 -0.91509664899E+03  0.13988455076E+04  0.89587086551E+03 0.  0.
         23    2    4    4    0    0  0.31116824498E+02 -0.59371415759E+03 -0.73027582127E+03  0.94609319259E+03  0.91240321337E+02 0.  0.
         23    2    4    4    0    0  0.35731108973E+03  0.18639852453E+03 -0.18482082772E+03  0.45275231502E+03  0.91707663837E+02 0.  0.
          4    1    3    3  502    0 -0.11431019073E+03  0.91484883031E+02 -0.28827741094E+02  0.14922245871E+03  0.00000000000E+00 0. -1.
         -3    1    3    3    0  502 -0.27411772350E+03  0.31583075003E+03  0.30139551027E+02  0.41928269883E+03  0.00000000000E+00 0.  1.
         11    1    5    5    0    0 -0.15747961397E+02 -0.20939062979E+02 -0.41178440374E+02  0.48806829422E+02  0.00000000000E+00 0. -1.
        -11    1    5    5    0    0  0.46864785895E+02 -0.57277509461E+03 -0.68909738090E+03  0.89728636316E+03  0.00000000000E+00 0.  1.
          2    1    6    6  503    0  0.11038971558E+03  0.48833950885E+02 -0.10248979100E+03  0.15835024889E+03  0.00000000000E+00 0. -1.
         -2    1    6    6    0  503  0.24692137415E+03  0.13756457364E+03 -0.82331036720E+02  0.29440206613E+03  0.00000000000E+00 0.  1.
<mgrwt>
<rscale>  0 0.17422589E+04</rscale>
<asrwt>0</asrwt>
<pdfrwt beam="1">  1        2 0.22162581E+00 0.17422589E+04</pdfrwt>
<pdfrwt beam="2">  1       -1 0.81043526E-01 0.17422589E+04</pdfrwt>
<totfact> 0.22497752E+01</totfact>
</mgrwt>
</event>
<event>
12    6  0.1510140E-007  0.1550642E+04  0.7818608E-02  0.8851458E-01
          2   -1    0    0  501    0  0.00000000000E+00  0.00000000000E+00  0.27883774709E+04  0.27883774709E+04  0.00000000000E+00 0. -1.
         -1   -1    0    0    0  501 -0.00000000000E+00 -0.00000000000E+00 -0.21558150088E+03  0.21558150088E+03  0.00000000000E+00 0.  1.
         24    2    1    2    0    0  0.25866060994E+03  0.43995964776E+03  0.95351276520E+03  0.10857058178E+04  0.95397728260E+02 0.  0.
        254    2    1    2    0    0 -0.25866060994E+03 -0.43995964776E+03  0.16192832049E+04  0.19182531540E+04  0.89283103813E+03 0.  0.
         23    2    4    4    0    0  0.21384460165E+03  0.20234971634E+02  0.94717570790E+02  0.25467927554E+03  0.98747898435E+02 0.  0.
         23    2    4    4    0    0 -0.47250521159E+03 -0.46019461940E+03  0.15245656341E+04  0.16635738785E+04  0.90207615677E+02 0.  0.
          4    1    3    3  502    0  0.15589728177E+03  0.32081870108E+03  0.72857479707E+03  0.81120270977E+03  0.00000000000E+00 0. -1.
         -3    1    3    3    0  502  0.10276332818E+03  0.11914094669E+03  0.22493796814E+03  0.27450310801E+03  0.00000000000E+00 0.  1.
         11    1    5    5    0    0  0.19874911374E+03  0.67842733608E+01  0.11186457499E+03  0.22816862123E+03  0.00000000000E+00 0. -1.
        -11    1    5    5    0    0  0.15095487909E+02  0.13450698274E+02 -0.17147004198E+02  0.26510654316E+02  0.00000000000E+00 0.  1.
          3    1    6    6  503    0 -0.38985607841E+03 -0.38579876650E+03  0.13427216295E+04  0.14504240153E+04  0.00000000000E+00 0. -1.
         -3    1    6    6    0  503 -0.82649133181E+02 -0.74395852899E+02  0.18184400462E+03  0.21314986315E+03  0.00000000000E+00 0.  1.
<mgrwt>
<rscale>  0 0.15506419E+04</rscale>
<asrwt>0</asrwt>
<pdfrwt beam="1">  1        2 0.42898112E+00 0.15506419E+04</pdfrwt>
<pdfrwt beam="2">  1       -1 0.33166387E-01 0.15506419E+04</pdfrwt>
<totfact> 0.22109461E+01</totfact>
</mgrwt>
</event>
<event>
12    6  0.1510140E-007  0.2534352E+04  0.7818608E-02  0.8390849E-01
         -1   -1    0    0    0  501 -0.00000000000E+00  0.00000000000E+00  0.59551129656E+03  0.59551129656E+03  0.00000000000E+00 0.  1.
          2   -1    0    0  501    0  0.00000000000E+00 -0.00000000000E+00 -0.26963963013E+04  0.26963963013E+04  0.00000000000E+00 0. -1.
         24    2    1    2    0    0 -0.10476460126E+04  0.35328108698E+03 -0.91903594933E+03  0.14399030416E+04  0.79523575895E+02 0.  0.
        254    2    1    2    0    0  0.10476460126E+04 -0.35328108698E+03 -0.11818490554E+04  0.18520045562E+04  0.90043544601E+03 0.  0.
         23    2    4    4    0    0  0.94050424139E+02  0.18285972733E+03 -0.52919707760E+03  0.57496190768E+03  0.90821176902E+02 0.  0.
         23    2    4    4    0    0  0.95359558842E+03 -0.53614081431E+03 -0.65265197781E+03  0.12770426485E+04  0.89954449778E+02 0.  0.
          4    1    3    3  502    0 -0.76309965095E+02  0.20768063852E+02 -0.41567972239E+02  0.89344387429E+02  0.00000000000E+00 0. -1.
         -3    1    3    3    0  502 -0.97133604746E+03  0.33251302313E+03 -0.87746797709E+03  0.13505586542E+04  0.00000000000E+00 0.  1.
         11    1    5    5    0    0  0.53543508736E+01 -0.85064208708E+01 -0.84873957692E+01  0.13155385067E+02  0.00000000000E+00 0. -1.
        -11    1    5    5    0    0  0.88696073265E+02  0.19136614820E+03 -0.52070968184E+03  0.56180652261E+03  0.00000000000E+00 0.  1.
          4    1    6    6  503    0  0.26895397158E+03 -0.14920568984E+03 -0.13740604829E+03  0.33686644062E+03  0.00000000000E+00 0. -1.
         -4    1    6    6    0  503  0.68464161683E+03 -0.38693512447E+03 -0.51524592951E+03  0.94017620792E+03  0.00000000000E+00 0.  1.
<mgrwt>
<rscale>  0 0.25343516E+04</rscale>
<asrwt>0</asrwt>
<pdfrwt beam="1">  1        2 0.41483020E+00 0.25343516E+04</pdfrwt>
<pdfrwt beam="2">  1       -1 0.91617122E-01 0.25343516E+04</pdfrwt>
<totfact> 0.31336583E+00</totfact>
</mgrwt>
</event>
<event>
12    6  0.1510140E-007  0.1588205E+04  0.7818608E-02  0.8827827E-01
          2   -1    0    0  501    0  0.00000000000E+00  0.00000000000E+00  0.97003270136E+03  0.97003270136E+03  0.00000000000E+00 0. -1.
         -3   -1    0    0    0  501 -0.00000000000E+00 -0.00000000000E+00 -0.65007957038E+03  0.65007957038E+03  0.00000000000E+00 0.  1.
         24    2    1    2    0    0 -0.73697219795E+02 -0.50992202179E+03  0.25085199728E+03  0.57840656236E+03  0.78585484234E+02 0.  0.
        254    2    1    2    0    0  0.73697219795E+02  0.50992202179E+03  0.69101133709E+02  0.10417057094E+04  0.90273144941E+03 0.  0.
         23    2    4    4    0    0  0.21501756883E+03 -0.11905160865E+03  0.25382315655E+03  0.36478723805E+03  0.90761742016E+02 0.  0.
         23    2    4    4    0    0 -0.14132034903E+03  0.62897363044E+03 -0.18472202284E+03  0.67691847133E+03  0.92288256395E+02 0.  0.
          2    1    3    3  502    0 -0.75045096494E+01 -0.55459831853E+00  0.38797685815E+01  0.84662771404E+01  0.00000000000E+00 0. -1.
         -1    1    3    3    0  502 -0.66192710146E+02 -0.50936742347E+03  0.24697222870E+03  0.56994028522E+03  0.00000000000E+00 0.  1.
         11    1    5    5    0    0  0.17254106365E+03 -0.12944237467E+03  0.19016197823E+03  0.28755403835E+03  0.00000000000E+00 0.  1.
        -11    1    5    5    0    0  0.42476505177E+02  0.10390766019E+02  0.63661178321E+02  0.77233199699E+02  0.00000000000E+00 0. -1.
          3    1    6    6  503    0 -0.25534372715E+01  0.11254573182E+03 -0.61026039614E+02  0.12805170559E+03  0.00000000000E+00 0. -1.
         -3    1    6    6    0  503 -0.13876691176E+03  0.51642789862E+03 -0.12369598322E+03  0.54886676574E+03  0.00000000000E+00 0.  1.
<mgrwt>
<rscale>  0 0.15882046E+04</rscale>
<asrwt>0</asrwt>
<pdfrwt beam="1">  1        2 0.14923580E+00 0.15882046E+04</pdfrwt>
<pdfrwt beam="2">  1       -3 0.10001224E+00 0.15882046E+04</pdfrwt>
<totfact> 0.13997402E+01</totfact>
</mgrwt>
</event>
<event>
12    6  0.1510140E-007  0.1546661E+04  0.7818608E-02  0.8854003E-01
         -1   -1    0    0    0  501 -0.00000000000E+00  0.00000000000E+00  0.66719648461E+03  0.66719648461E+03  0.00000000000E+00 0.  1.
          2   -1    0    0  501    0  0.00000000000E+00 -0.00000000000E+00 -0.89634798108E+03  0.89634798108E+03  0.00000000000E+00 0. -1.
         24    2    1    2    0    0 -0.28561138547E+02 -0.50162968136E+03 -0.19422730868E+02  0.50907986284E+03  0.79605203433E+02 0.  0.
        254    2    1    2    0    0  0.28561138547E+02  0.50162968136E+03 -0.20972876560E+03  0.10544646029E+04  0.90302899605E+03 0.  0.
         23    2    4    4    0    0  0.54048605567E+02  0.38499479414E+03  0.31539828996E+03  0.50861874227E+03  0.89859336765E+02 0.  0.
         23    2    4    4    0    0 -0.25487467020E+02  0.11663488723E+03 -0.52512705557E+03  0.54584586059E+03  0.89084067822E+02 0.  0.
          2    1    3    3  502    0 -0.11951976681E+02 -0.33474057975E+03  0.24073151979E+02  0.33581784068E+03  0.00000000000E+00 0. -1.
         -1    1    3    3    0  502 -0.16609161866E+02 -0.16688910161E+03 -0.43495882847E+02  0.17326202215E+03  0.00000000000E+00 0.  1.
         11    1    5    5    0    0  0.28150898733E+02  0.24531252489E+02  0.35353211652E+02  0.51420861741E+02  0.00000000000E+00 0.  1.
        -11    1    5    5    0    0  0.25897706834E+02  0.36046354165E+03  0.28004507831E+03  0.45719788053E+03  0.00000000000E+00 0. -1.
          4    1    6    6  503    0 -0.46413219636E+02  0.11595288759E+03 -0.48179999384E+03  0.49772531899E+03  0.00000000000E+00 0. -1.
         -4    1    6    6    0  503  0.20925752616E+02  0.68199963933E+00 -0.43327061723E+02  0.48120541597E+02  0.00000000000E+00 0.  1.
<mgrwt>
<rscale>  0 0.15466612E+04</rscale>
<asrwt>0</asrwt>
<pdfrwt beam="1">  1        2 0.13789969E+00 0.15466612E+04</pdfrwt>
<pdfrwt beam="2">  1       -1 0.10264561E+00 0.15466612E+04</pdfrwt>
<totfact> 0.29089920E+01</totfact>
</mgrwt>
</event>
<event>
12    6  0.1510140E-007  0.1207026E+04  0.7818608E-02  0.9106728E-01
          2   -1    0    0  501    0  0.00000000000E+00  0.00000000000E+00  0.11190577689E+04  0.11190577689E+04  0.00000000000E+00 0. -1.
         -1   -1    0    0    0  501 -0.00000000000E+00 -0.00000000000E+00 -0.32547758943E+03  0.32547758943E+03  0.00000000000E+00 0.  1.
         24    2    1    2    0    0  0.22473977133E+03  0.34579254953E+02  0.28579302308E+02  0.24255796182E+03  0.79460044236E+02 0.  0.
        254    2    1    2    0    0 -0.22473977133E+03 -0.34579254953E+02  0.76500087720E+03  0.12019773965E+04  0.89878786707E+03 0.  0.
         23    2    4    4    0    0 -0.50155316938E+03 -0.22546329465E+03  0.59017168659E+03  0.81188481172E+03  0.92005700386E+02 0.  0.
         23    2    4    4    0    0  0.27681339804E+03  0.19088403970E+03  0.17482919060E+03  0.39009258482E+03  0.92437032075E+02 0.  0.
          4    1    3    3  502    0  0.10767672201E+03  0.47307983199E+02 -0.11498001735E+02  0.11817159465E+03  0.00000000000E+00 0. -1.
         -3    1    3    3    0  502  0.11706304932E+03 -0.12728728246E+02  0.40077304043E+02  0.12438636717E+03  0.00000000000E+00 0.  1.
         11    1    5    5    0    0 -0.11796611585E+03 -0.12617945059E+02  0.13514158819E+03  0.17982899067E+03  0.00000000000E+00 0. -1.
        -11    1    5    5    0    0 -0.38358705352E+03 -0.21284534959E+03  0.45503009840E+03  0.63205582105E+03  0.00000000000E+00 0.  1.
          2    1    6    6  503    0  0.59917804466E+02  0.51301707679E+01  0.50932344397E+02  0.78807142125E+02  0.00000000000E+00 0. -1.
         -2    1    6    6    0  503  0.21689559358E+03  0.18575386893E+03  0.12389684621E+03  0.31128544270E+03  0.00000000000E+00 0.  1.
<mgrwt>
<rscale>  0 0.12070265E+04</rscale>
<asrwt>0</asrwt>
<pdfrwt beam="1">  1        2 0.17216273E+00 0.12070265E+04</pdfrwt>
<pdfrwt beam="2">  1       -1 0.50073476E-01 0.12070265E+04</pdfrwt>
<totfact> 0.95427137E+01</totfact>
</mgrwt>
</event>
<event>
12    6  0.1510140E-007  0.2687734E+04  0.7818608E-02  0.8338996E-01
         -1   -1    0    0    0  501 -0.00000000000E+00  0.00000000000E+00  0.66384034295E+03  0.66384034295E+03  0.00000000000E+00 0.  1.
          2   -1    0    0  501    0  0.00000000000E+00 -0.00000000000E+00 -0.27205022523E+04  0.27205022523E+04  0.00000000000E+00 0. -1.
         24    2    1    2    0    0  0.27248909774E+03 -0.73725252636E+03 -0.20373947072E+04  0.21852050936E+04  0.79702647457E+02 0.  0.
        254    2    1    2    0    0 -0.27248909774E+03  0.73725252636E+03 -0.19267202086E+02  0.11991375016E+04  0.90541036372E+03 0.  0.
         23    2    4    4    0    0 -0.43425996808E+03  0.20489015261E+03 -0.29529367921E+03  0.57156912474E+03  0.94505094355E+02 0.  0.
         23    2    4    4    0    0  0.16177087034E+03  0.53236237375E+03  0.27602647712E+03  0.62756837689E+03  0.89843976614E+02 0.  0.
          4    1    3    3  502    0  0.15735158427E+03 -0.51986542795E+03 -0.13538032238E+04  0.14586989933E+04  0.00000000000E+00 0. -1.
         -3    1    3    3    0  502  0.11513751347E+03 -0.21738709840E+03 -0.68359148346E+03  0.72650610033E+03  0.00000000000E+00 0.  1.
         11    1    5    5    0    0  0.38529640386E+00  0.13965350844E+02 -0.37558448288E+01  0.14466715173E+02  0.00000000000E+00 0. -1.
        -11    1    5    5    0    0 -0.43464526448E+03  0.19092480177E+03 -0.29153783438E+03  0.55710240956E+03  0.00000000000E+00 0.  1.
          2    1    6    6  503    0  0.12324833353E+03  0.35327194640E+03  0.22815309397E+03  0.43822945373E+03  0.00000000000E+00 0. -1.
         -2    1    6    6    0  503  0.38522536809E+02  0.17909042735E+03  0.47873383153E+02  0.18933892316E+03  0.00000000000E+00 0.  1.
<mgrwt>
<rscale>  0 0.26877345E+04</rscale>
<asrwt>0</asrwt>
<pdfrwt beam="1">  1        2 0.41853882E+00 0.26877345E+04</pdfrwt>
<pdfrwt beam="2">  1       -1 0.10212928E+00 0.26877345E+04</pdfrwt>
<totfact> 0.23396142E+00</totfact>
</mgrwt>
</event>
<event>
12    6  0.1510140E-007  0.1335760E+04  0.7818608E-02  0.9001678E-01
         -1   -1    0    0    0  501 -0.00000000000E+00  0.00000000000E+00  0.53590615184E+03  0.53590615184E+03  0.00000000000E+00 0.  1.
          2   -1    0    0  501    0  0.00000000000E+00 -0.00000000000E+00 -0.83235377557E+03  0.83235377557E+03  0.00000000000E+00 0. -1.
         24    2    1    2    0    0  0.29617285646E+03  0.15180740821E+03 -0.20289724205E+02  0.34246726925E+03  0.78155662047E+02 0.  0.
        254    2    1    2    0    0 -0.29617285646E+03 -0.15180740821E+03 -0.27615789953E+03  0.10257926582E+04  0.93017393103E+03 0.  0.
         23    2    4    4    0    0 -0.16572084947E+03  0.13892454844E+03  0.28789876522E+03  0.37173169643E+03  0.92386822667E+02 0.  0.
         23    2    4    4    0    0 -0.13045200699E+03 -0.29073195665E+03 -0.56405666475E+03  0.65406096173E+03  0.89961235329E+02 0.  0.
          2    1    3    3  502    0  0.21058673010E+03  0.14416833378E+03 -0.24881199630E+02  0.25641831731E+03  0.00000000000E+00 0. -1.
         -1    1    3    3    0  502  0.85586126358E+02  0.76390744322E+01  0.45914754255E+01  0.86048951939E+02  0.00000000000E+00 0.  1.
         11    1    5    5    0    0 -0.10556927617E+03  0.44587966788E+02  0.95534534768E+02  0.14919720569E+03  0.00000000000E+00 0. -1.
        -11    1    5    5    0    0 -0.60151573309E+02  0.94336581657E+02  0.19236423045E+03  0.22253449074E+03  0.00000000000E+00 0.  1.
          3    1    6    6  503    0 -0.13454889742E+02 -0.19070100315E+02 -0.10793327345E+03  0.11042777867E+03  0.00000000000E+00 0. -1.
         -3    1    6    6    0  503 -0.11699711725E+03 -0.27166185634E+03 -0.45612339130E+03  0.54363318306E+03  0.00000000000E+00 0.  1.
<mgrwt>
<rscale>  0 0.13357597E+04</rscale>
<asrwt>0</asrwt>
<pdfrwt beam="1">  1        2 0.12805443E+00 0.13357597E+04</pdfrwt>
<pdfrwt beam="2">  1       -1 0.82447101E-01 0.13357597E+04</pdfrwt>
<totfact> 0.53327969E+01</totfact>
</mgrwt>
</event>
<event>
12    6  0.1510140E-007  0.1926654E+04  0.7818608E-02  0.8641702E-01
         -1   -1    0    0    0  501 -0.00000000000E+00  0.00000000000E+00  0.78034285560E+03  0.78034285560E+03  0.00000000000E+00 0.  1.
          2   -1    0    0  501    0  0.00000000000E+00 -0.00000000000E+00 -0.11892194657E+04  0.11892194657E+04  0.00000000000E+00 0. -1.
         24    2    1    2    0    0 -0.21233748648E+03  0.63831901918E+03 -0.52019841408E+03  0.85428239488E+03  0.81569858297E+02 0.  0.
        254    2    1    2    0    0  0.21233748648E+03 -0.63831901918E+03  0.11132180401E+03  0.11152799264E+04  0.88256353410E+03 0.  0.
         23    2    4    4    0    0  0.40435064420E+03 -0.12466031375E+03  0.30129232225E+03  0.52743869586E+03  0.91514354895E+02 0.  0.
         23    2    4    4    0    0 -0.19201315772E+03 -0.51365870543E+03 -0.18997051824E+03  0.58784123052E+03  0.93563861069E+02 0.  0.
          2    1    3    3  502    0 -0.13089415072E+03  0.39709822511E+03 -0.37228275391E+03  0.55983455408E+03  0.00000000000E+00 0. -1.
         -1    1    3    3    0  502 -0.81443335752E+02  0.24122079407E+03 -0.14791566016E+03  0.29444784080E+03  0.00000000000E+00 0.  1.
         11    1    5    5    0    0  0.17081665721E+03 -0.59461048532E+01  0.12133356746E+03  0.20960801783E+03  0.00000000000E+00 0.  1.
        -11    1    5    5    0    0  0.23353398698E+03 -0.11871420890E+03  0.17995875479E+03  0.31783067803E+03  0.00000000000E+00 0. -1.
          2    1    6    6  503    0 -0.12752662581E+03 -0.21603380108E+03 -0.10249182669E+03  0.27099486718E+03  0.00000000000E+00 0. -1.
         -2    1    6    6    0  503 -0.64486531907E+02 -0.29762490434E+03 -0.87478691557E+02  0.31684636334E+03  0.00000000000E+00 0.  1.
<mgrwt>
<rscale>  0 0.19266540E+04</rscale>
<asrwt>0</asrwt>
<pdfrwt beam="1">  1        2 0.18295684E+00 0.19266540E+04</pdfrwt>
<pdfrwt beam="2">  1       -1 0.12005275E+00 0.19266540E+04</pdfrwt>
<totfact> 0.12670313E+01</totfact>
</mgrwt>
</event>
<event>
12    6  0.1510140E-007  0.2925892E+04  0.7818608E-02  0.8265215E-01
          2   -1    0    0  501    0  0.00000000000E+00  0.00000000000E+00  0.27283510882E+04  0.27283510882E+04  0.00000000000E+00 0. -1.
         -1   -1    0    0    0  501 -0.00000000000E+00 -0.00000000000E+00 -0.78443363701E+03  0.78443363701E+03  0.00000000000E+00 0.  1.
         24    2    1    2    0    0 -0.69011665989E+03  0.81257967964E+03  0.18244747946E+04  0.21145696532E+04  0.78420673349E+02 0.  0.
        254    2    1    2    0    0  0.69011665989E+03 -0.81257967964E+03  0.11944265657E+03  0.13982150720E+04  0.89676758379E+03 0.  0.
         23    2    4    4    0    0  0.43806354763E+03 -0.61220746756E+03 -0.33736898683E+03  0.83007727287E+03  0.92264785057E+02 0.  0.
         23    2    4    4    0    0  0.25205311226E+03 -0.20037221208E+03  0.45681164340E+03  0.56813779913E+03  0.10209743620E+03 0.  0.
          4    1    3    3  502    0 -0.35979022055E+03  0.39905309842E+03  0.84819498653E+03  0.10040553338E+04  0.00000000000E+00 0. -1.
         -3    1    3    3    0  502 -0.33032643934E+03  0.41352658122E+03  0.97627980811E+03  0.11105143194E+04  0.00000000000E+00 0.  1.
         11    1    5    5    0    0  0.30475330258E+03 -0.36055026878E+03 -0.23594393679E+03  0.52776946961E+03  0.00000000000E+00 0. -1.
        -11    1    5    5    0    0  0.13331024505E+03 -0.25165719878E+03 -0.10142505005E+03  0.30230780326E+03  0.00000000000E+00 0.  1.
          3    1    6    6  503    0  0.16534889850E+03 -0.13600412367E+03  0.21552865546E+03  0.30379266155E+03  0.00000000000E+00 0.  1.
         -3    1    6    6    0  503  0.86704213761E+02 -0.64368088416E+02  0.24128298794E+03  0.26434513758E+03  0.00000000000E+00 0. -1.
<mgrwt>
<rscale>  0 0.29258916E+04</rscale>
<asrwt>0</asrwt>
<pdfrwt beam="1">  1        2 0.41974632E+00 0.29258916E+04</pdfrwt>
<pdfrwt beam="2">  1       -1 0.12068210E+00 0.29258916E+04</pdfrwt>
<totfact> 0.15255479E+00</totfact>
</mgrwt>
</event>
<event>
12    6  0.1510140E-007  0.1473751E+04  0.7818608E-02  0.8902098E-01
          2   -1    0    0  501    0  0.00000000000E+00  0.00000000000E+00  0.27855887796E+04  0.27855887796E+04  0.00000000000E+00 0. -1.
         -1   -1    0    0    0  501 -0.00000000000E+00 -0.00000000000E+00 -0.19492670656E+03  0.19492670656E+03  0.00000000000E+00 0.  1.
         24    2    1    2    0    0  0.69514602848E+02  0.61169657268E+02  0.16982707398E+04  0.17027653393E+04  0.81928555448E+02 0.  0.
        254    2    1    2    0    0 -0.69514602848E+02 -0.61169657268E+02  0.89239133324E+03  0.12777501468E+04  0.90978521591E+03 0.  0.
         23    2    4    4    0    0  0.34367811418E+03 -0.25922580402E+02  0.74859295483E+03  0.82945429724E+03  0.93895648748E+02 0.  0.
         23    2    4    4    0    0 -0.41319271703E+03 -0.35247076866E+02  0.14379837842E+03  0.44829584958E+03  0.91217417648E+02 0.  0.
          4    1    3    3  502    0  0.60373503155E+02  0.56347760457E+01  0.11540972606E+04  0.11556890575E+04  0.00000000000E+00 0. -1.
         -3    1    3    3    0  502  0.91410996932E+01  0.55534881222E+02  0.54417347916E+03  0.54707628184E+03  0.00000000000E+00 0.  1.
         11    1    5    5    0    0  0.18649119544E+02 -0.62089097142E+01  0.95457370326E+01  0.21850888199E+02  0.00000000000E+00 0.  1.
        -11    1    5    5    0    0  0.32502899464E+03 -0.19713670687E+02  0.73904721780E+03  0.80760340904E+03  0.00000000000E+00 0. -1.
          1    1    6    6  503    0 -0.31990254144E+03 -0.18292025762E+02  0.14891762847E+03  0.35333934722E+03  0.00000000000E+00 0. -1.
         -1    1    6    6    0  503 -0.93290175588E+02 -0.16955051104E+02 -0.51192500498E+01  0.94956502359E+02  0.00000000000E+00 0.  1.
<mgrwt>
<rscale>  0 0.14737512E+04</rscale>
<asrwt>0</asrwt>
<pdfrwt beam="1">  1        2 0.42855209E+00 0.14737512E+04</pdfrwt>
<pdfrwt beam="2">  1       -1 0.29988726E-01 0.14737512E+04</pdfrwt>
<totfact> 0.26703507E+01</totfact>
</mgrwt>
</event>
<event>
12    6  0.1510140E-007  0.2207782E+04  0.7818608E-02  0.8515196E-01
          2   -1    0    0  501    0  0.00000000000E+00  0.00000000000E+00  0.18716499640E+04  0.18716499640E+04  0.00000000000E+00 0. -1.
         -1   -1    0    0    0  501 -0.00000000000E+00 -0.00000000000E+00 -0.65107028757E+03  0.65107028757E+03  0.00000000000E+00 0.  1.
         24    2    1    2    0    0  0.34061592276E+03 -0.26314857237E+03  0.14405001057E+04  0.15055134733E+04  0.79144712638E+02 0.  0.
        254    2    1    2    0    0 -0.34061592276E+03  0.26314857237E+03 -0.21992042926E+03  0.10172067784E+04  0.89502975188E+03 0.  0.
         23    2    4    4    0    0 -0.16761910564E+03 -0.26351826153E+03  0.13279997813E+03  0.35398426450E+03  0.10065280220E+03 0.  0.
         23    2    4    4    0    0 -0.17299681712E+03  0.52666683390E+03 -0.35272040739E+03  0.66322251385E+03  0.90258320531E+02 0.  0.
          4    1    3    3  502    0  0.22361149299E+03 -0.13012080523E+03  0.92026870208E+03  0.95594351705E+03  0.00000000000E+00 0. -1.
         -3    1    3    3    0  502  0.11700442977E+03 -0.13302776714E+03  0.52023140366E+03  0.54956995621E+03  0.00000000000E+00 0.  1.
         11    1    5    5    0    0 -0.12706560789E+03 -0.10680278026E+03  0.60152256238E+02  0.17655253187E+03  0.00000000000E+00 0. -1.
        -11    1    5    5    0    0 -0.40553497748E+02 -0.15671548127E+03  0.72647721888E+02  0.17743173263E+03  0.00000000000E+00 0.  1.
          4    1    6    6  503    0 -0.77073520645E+02  0.36670809350E+03 -0.24743313402E+03  0.44904154511E+03  0.00000000000E+00 0. -1.
         -4    1    6    6    0  503 -0.95923296479E+02  0.15995874040E+03 -0.10528727337E+03  0.21418096874E+03  0.00000000000E+00 0.  1.
<mgrwt>
<rscale>  0 0.22077823E+04</rscale>
<asrwt>0</asrwt>
<pdfrwt beam="1">  1        2 0.28794615E+00 0.22077823E+04</pdfrwt>
<pdfrwt beam="2">  1       -1 0.10016466E+00 0.22077823E+04</pdfrwt>
<totfact> 0.77742566E+00</totfact>
</mgrwt>
</event>
<event>
12    6  0.1510140E-007  0.1869315E+04  0.7818608E-02  0.8670283E-01
         -1   -1    0    0    0  501 -0.00000000000E+00  0.00000000000E+00  0.31446232927E+03  0.31446232927E+03  0.00000000000E+00 0.  1.
          2   -1    0    0  501    0  0.00000000000E+00 -0.00000000000E+00 -0.27780249688E+04  0.27780249688E+04  0.00000000000E+00 0. -1.
         24    2    1    2    0    0 -0.33076843839E+03  0.27389156517E+03 -0.18732983129E+04  0.19237579039E+04  0.84696838569E+02 0.  0.
        254    2    1    2    0    0  0.33076843839E+03 -0.27389156517E+03 -0.59026432662E+03  0.11687293941E+04  0.91273877541E+03 0.  0.
         23    2    4    4    0    0 -0.16935336475E+03  0.16168811414E+03 -0.40163100757E+03  0.47333495791E+03  0.88965767211E+02 0.  0.
         23    2    4    4    0    0  0.50012180314E+03 -0.43557967931E+03 -0.18863331906E+03  0.69539443623E+03  0.90218722425E+02 0.  0.
          2    1    3    3  502    0 -0.25927166868E+03  0.20121295111E+03 -0.15649462760E+04  0.15989888357E+04  0.00000000000E+00 0. -1.
         -1    1    3    3    0  502 -0.71496769715E+02  0.72678614064E+02 -0.30835203691E+03  0.32476906824E+03  0.00000000000E+00 0.  1.
         11    1    5    5    0    0 -0.13605243060E+03  0.73547290419E+02 -0.27484388955E+03  0.31537062550E+03  0.00000000000E+00 0.  1.
        -11    1    5    5    0    0 -0.33300934149E+02  0.88140823722E+02 -0.12678711801E+03  0.15796433242E+03  0.00000000000E+00 0. -1.
          2    1    6    6  503    0  0.47463452242E+02 -0.75658980358E+02 -0.42479586754E+02  0.98901849822E+02  0.00000000000E+00 0. -1.
         -2    1    6    6    0  503  0.45265835090E+03 -0.35992069895E+03 -0.14615373230E+03  0.59649258641E+03  0.00000000000E+00 0.  1.
<mgrwt>
<rscale>  0 0.18693145E+04</rscale>
<asrwt>0</asrwt>
<pdfrwt beam="1">  1        2 0.42738847E+00 0.18693145E+04</pdfrwt>
<pdfrwt beam="2">  1       -1 0.48378819E-01 0.18693145E+04</pdfrwt>
<totfact> 0.10912627E+01</totfact>
</mgrwt>
</event>
<event>
12    6  0.1510140E-007  0.1615185E+04  0.7818608E-02  0.8811273E-01
         -1   -1    0    0    0  501 -0.00000000000E+00  0.00000000000E+00  0.23229413445E+03  0.23229413445E+03  0.00000000000E+00 0.  1.
          2   -1    0    0  501    0  0.00000000000E+00 -0.00000000000E+00 -0.28076708229E+04  0.28076708229E+04  0.00000000000E+00 0. -1.
         24    2    1    2    0    0 -0.57204750213E+02  0.25574405440E+02 -0.19246766383E+04  0.19273901148E+04  0.80784025447E+02 0.  0.
        254    2    1    2    0    0  0.57204750213E+02 -0.25574405440E+02 -0.65070005017E+03  0.11125748426E+04  0.90026984370E+03 0.  0.
         23    2    4    4    0    0  0.45820100520E+03  0.85761713516E+02 -0.33043056195E+03  0.57955322596E+03  0.96924469453E+02 0.  0.
         23    2    4    4    0    0 -0.40099625499E+03 -0.11133611896E+03 -0.32026948822E+03  0.53302161666E+03  0.91355190528E+02 0.  0.
          4    1    3    3  502    0 -0.40229005765E+02 -0.69630256001E+01 -0.16195246692E+04  0.16200392004E+04  0.00000000000E+00 0. -1.
         -3    1    3    3    0  502 -0.16975744448E+02  0.32537431040E+02 -0.30515196913E+03  0.30735091440E+03  0.00000000000E+00 0.  1.
         11    1    5    5    0    0  0.38487139104E+02 -0.18494721492E+02 -0.19682421311E+02  0.47018212516E+02  0.00000000000E+00 0. -1.
        -11    1    5    5    0    0  0.41971386610E+03  0.10425643501E+03 -0.31074814064E+03  0.53253501345E+03  0.00000000000E+00 0.  1.
          4    1    6    6  503    0 -0.11447101947E+03  0.70999693017E+01 -0.10575299035E+03  0.15600550898E+03  0.00000000000E+00 0. -1.
         -4    1    6    6    0  503 -0.28652523552E+03 -0.11843608826E+03 -0.21451649787E+03  0.37701610768E+03  0.00000000000E+00 0.  1.
<mgrwt>
<rscale>  0 0.16151848E+04</rscale>
<asrwt>0</asrwt>
<pdfrwt beam="1">  1        2 0.43194935E+00 0.16151848E+04</pdfrwt>
<pdfrwt beam="2">  1       -1 0.35737560E-01 0.16151848E+04</pdfrwt>
<totfact> 0.18727086E+01</totfact>
</mgrwt>
</event>
<event>
12    6  0.1510140E-007  0.1296245E+04  0.7818608E-02  0.9032548E-01
         -1   -1    0    0    0  501 -0.00000000000E+00  0.00000000000E+00  0.40749060533E+03  0.40749060533E+03  0.00000000000E+00 0.  1.
          2   -1    0    0  501    0  0.00000000000E+00 -0.00000000000E+00 -0.10308521451E+04  0.10308521451E+04  0.00000000000E+00 0. -1.
         24    2    1    2    0    0  0.25159576072E+03 -0.21627976857E+03 -0.17319692369E+03  0.38268816189E+03  0.79847916497E+02 0.  0.
        254    2    1    2    0    0 -0.25159576072E+03  0.21627976857E+03 -0.45016461611E+03  0.10556545886E+04  0.89536644100E+03 0.  0.
         23    2    4    4    0    0 -0.36700215023E+03  0.50373493386E+03 -0.26331637081E+03  0.68264687458E+03  0.90729170414E+02 0.  0.
         23    2    4    4    0    0  0.11540638951E+03 -0.28745516529E+03 -0.18684824530E+03  0.37300771399E+03  0.90958128453E+02 0.  0.
          4    1    3    3  502    0  0.25094037978E+03 -0.21870859509E+03 -0.16013891908E+03  0.36939003394E+03  0.00000000000E+00 0. -1.
         -3    1    3    3    0  502  0.65538093816E+00  0.24288265246E+01 -0.13058004607E+02  0.13298127943E+02  0.00000000000E+00 0.  1.
         11    1    5    5    0    0 -0.35836754073E+03  0.46128055497E+03 -0.25943227840E+03  0.63914955348E+03  0.00000000000E+00 0.  1.
        -11    1    5    5    0    0 -0.86346095061E+01  0.42454378896E+02 -0.38840924073E+01  0.43497321096E+02  0.00000000000E+00 0. -1.
          1    1    6    6  503    0  0.70678206489E+02 -0.82892644367E+02 -0.94266965739E+02  0.14405853044E+03  0.00000000000E+00 0. -1.
         -1    1    6    6    0  503  0.44728183026E+02 -0.20456252093E+03 -0.92581279559E+02  0.22894918355E+03  0.00000000000E+00 0.  1.
<mgrwt>
<rscale>  0 0.12962447E+04</rscale>
<asrwt>0</asrwt>
<pdfrwt beam="1">  1        2 0.15859264E+00 0.12962447E+04</pdfrwt>
<pdfrwt beam="2">  1       -1 0.62690862E-01 0.12962447E+04</pdfrwt>
<totfact> 0.69476487E+01</totfact>
</mgrwt>
</event>
<event>
12    6  0.1510140E-007  0.1644960E+04  0.7818608E-02  0.8793394E-01
          2   -1    0    0  501    0  0.00000000000E+00  0.00000000000E+00  0.95699289885E+03  0.95699289885E+03  0.00000000000E+00 0. -1.
         -1   -1    0    0    0  501 -0.00000000000E+00 -0.00000000000E+00 -0.70687374892E+03  0.70687374892E+03  0.00000000000E+00 0.  1.
         24    2    1    2    0    0 -0.28105298654E+03  0.35115017414E+03  0.44004157265E+03  0.63394096590E+03  0.77118976510E+02 0.  0.
        254    2    1    2    0    0  0.28105298654E+03 -0.35115017414E+03 -0.18992242272E+03  0.10299256819E+04  0.90685123229E+03 0.  0.
         23    2    4    4    0    0  0.22233604961E+03 -0.64888168577E+03 -0.88737088432E+02  0.69751673880E+03  0.90413322957E+02 0.  0.
         23    2    4    4    0    0  0.58716936932E+02  0.29773151162E+03 -0.10118533429E+03  0.33240894308E+03  0.90363166544E+02 0.  0.
          4    1    3    3  502    0 -0.18311432654E+03  0.26847000414E+03  0.28046558281E+03  0.42926442066E+03  0.00000000000E+00 0. -1.
         -3    1    3    3    0  502 -0.97938659999E+02  0.82680170000E+02  0.15957598985E+03  0.20467654523E+03  0.00000000000E+00 0.  1.
         11    1    5    5    0    0  0.12076503971E+02 -0.36452018564E+02 -0.27249117079E+02  0.47086154941E+02  0.00000000000E+00 0.  1.
        -11    1    5    5    0    0  0.21025954564E+03 -0.61242966720E+03 -0.61487971353E+02  0.65043058386E+03  0.00000000000E+00 0. -1.
          3    1    6    6  503    0  0.66129248859E+02  0.28146337865E+03 -0.11359990089E+03  0.31064392567E+03  0.00000000000E+00 0. -1.
         -3    1    6    6    0  503 -0.74123119278E+01  0.16268132975E+02  0.12414566607E+02  0.21765017405E+02  0.00000000000E+00 0.  1.
<mgrwt>
<rscale>  0 0.16449598E+04</rscale>
<asrwt>0</asrwt>
<pdfrwt beam="1">  1        2 0.14722968E+00 0.16449598E+04</pdfrwt>
<pdfrwt beam="2">  1       -1 0.10874981E+00 0.16449598E+04</pdfrwt>
<totfact> 0.22973241E+01</totfact>
</mgrwt>
</event>
<event>
12    6  0.1543744E-007  0.2151549E+04  0.7818608E-02  0.8538869E-01
         -1   -1    0    0    0  501 -0.00000000000E+00  0.00000000000E+00  0.97858073634E+03  0.97858073634E+03  0.00000000000E+00 0.  1.
          2   -1    0    0  501    0  0.00000000000E+00 -0.00000000000E+00 -0.11826217449E+04  0.11826217449E+04  0.00000000000E+00 0. -1.
         24    2    1    2    0    0 -0.72631728514E+02  0.44650961464E+03  0.67762547182E+03  0.81885169810E+03  0.81826764928E+02 0.  0.
        254    2    1    2    0    0  0.72631728514E+02 -0.44650961464E+03 -0.88166648036E+03  0.13423507831E+04  0.90549634919E+03 0.  0.
         23    2    4    4    0    0 -0.18875015880E+03 -0.88055360342E+02  0.10982746485E+03  0.25250546162E+03  0.91195214679E+02 0.  0.
         23    2    4    4    0    0  0.26138188732E+03 -0.35845425430E+03 -0.99149394521E+03  0.10898453215E+04  0.88840519731E+02 0.  0.
          4    1    3    3  502    0  0.12762010019E+02  0.20228287660E+02  0.49140126971E+02  0.54651666032E+02  0.00000000000E+00 0. -1.
         -3    1    3    3    0  502 -0.85393738533E+02  0.42628132698E+03  0.62848534485E+03  0.76420003207E+03  0.00000000000E+00 0.  1.
         11    1    5    5    0    0 -0.17691614025E+03 -0.49381407477E+02  0.10552470359E+03  0.21183320597E+03  0.00000000000E+00 0. -1.
        -11    1    5    5    0    0 -0.11834018557E+02 -0.38673952864E+02  0.43027612629E+01  0.40672255652E+02  0.00000000000E+00 0.  1.
          2    1    6    6  503    0  0.25226962913E+03 -0.31610830779E+03 -0.84015296626E+03  0.93242771020E+03  0.00000000000E+00 0. -1.
         -2    1    6    6    0  503  0.91122581901E+01 -0.42345946509E+02 -0.15134097895E+03  0.15741761129E+03  0.00000000000E+00 0.  1.
<mgrwt>
<rscale>  0 0.21515491E+04</rscale>
<asrwt>0</asrwt>
<pdfrwt beam="1">  1        2 0.18194181E+00 0.21515491E+04</pdfrwt>
<pdfrwt beam="2">  1       -1 0.15055088E+00 0.21515491E+04</pdfrwt>
<totfact> 0.70125837E+00</totfact>
</mgrwt>
</event>
<event>
12    6  0.1510140E-007  0.1121714E+04  0.7818608E-02  0.9184282E-01
         -1   -1    0    0    0  501 -0.00000000000E+00  0.00000000000E+00  0.37542134330E+03  0.37542134330E+03  0.00000000000E+00 0.  1.
          2   -1    0    0  501    0  0.00000000000E+00 -0.00000000000E+00 -0.83788706292E+03  0.83788706292E+03  0.00000000000E+00 0. -1.
         24    2    1    2    0    0 -0.65773776161E+02 -0.62126391928E+02 -0.26430520445E+03  0.29106917534E+03  0.81719921225E+02 0.  0.
        254    2    1    2    0    0  0.65773776161E+02  0.62126391928E+02 -0.19816051517E+03  0.92223923088E+03  0.89614269567E+03 0.  0.
         23    2    4    4    0    0  0.44850849019E+03  0.51667802400E+02 -0.24958978838E+03  0.52287758400E+03  0.85302273135E+02 0.  0.
         23    2    4    4    0    0 -0.38273471403E+03  0.10458589528E+02  0.51429273215E+02  0.39936164688E+03  0.10123987080E+03 0.  0.
          2    1    3    3  502    0 -0.58461577626E+02 -0.51972284735E+02 -0.26703979099E+03  0.27826089271E+03  0.00000000000E+00 0. -1.
         -1    1    3    3    0  502 -0.73121985345E+01 -0.10154107194E+02  0.27345865373E+01  0.12808282626E+02  0.00000000000E+00 0.  1.
         11    1    5    5    0    0  0.11991803174E+02  0.17560072636E+02 -0.74206786989E+01  0.22521677706E+02  0.00000000000E+00 0.  1.
        -11    1    5    5    0    0  0.43651668702E+03  0.34107729765E+02 -0.24216910968E+03  0.50035590629E+03  0.00000000000E+00 0. -1.
          4    1    6    6  503    0 -0.30583480077E+03 -0.28814211082E+02  0.58555621709E+02  0.31272023432E+03  0.00000000000E+00 0. -1.
         -4    1    6    6    0  503 -0.76899913261E+02  0.39272800610E+02 -0.71263484936E+01  0.86641412559E+02  0.00000000000E+00 0.  1.
<mgrwt>
<rscale>  0 0.11217142E+04</rscale>
<asrwt>0</asrwt>
<pdfrwt beam="1">  1        2 0.12890570E+00 0.11217142E+04</pdfrwt>
<pdfrwt beam="2">  1       -1 0.57757130E-01 0.11217142E+04</pdfrwt>
<totfact> 0.11122437E+02</totfact>
</mgrwt>
</event>
<event>
12    6  0.1510140E-007  0.1888226E+04  0.7818608E-02  0.8660739E-01
         -1   -1    0    0    0  501 -0.00000000000E+00  0.00000000000E+00  0.41052395115E+03  0.41052395115E+03  0.00000000000E+00 0.  1.
          2   -1    0    0  501    0  0.00000000000E+00 -0.00000000000E+00 -0.21712479361E+04  0.21712479361E+04  0.00000000000E+00 0. -1.
         24    2    1    2    0    0 -0.27308394559E+03 -0.26003801396E+03  0.17165144389E+03  0.42227533289E+03  0.81594292275E+02 0.  0.
        254    2    1    2    0    0  0.27308394559E+03  0.26003801396E+03 -0.19323754289E+04  0.21594965544E+04  0.88721810188E+03 0.  0.
         23    2    4    4    0    0  0.49971045473E+03  0.29334597708E+02 -0.60662748460E+03  0.79184513673E+03  0.91928006037E+02 0.  0.
         23    2    4    4    0    0 -0.22662650914E+03  0.23070341625E+03 -0.13257479443E+04  0.13676514177E+04  0.90989821463E+02 0.  0.
          4    1    3    3  502    0 -0.17996070467E+03 -0.14270178418E+03  0.66003083488E+02  0.23896874578E+03  0.00000000000E+00 0. -1.
         -3    1    3    3    0  502 -0.93123240921E+02 -0.11733622979E+03  0.10564836040E+03  0.18330658710E+03  0.00000000000E+00 0.  1.
         11    1    5    5    0    0  0.47404483932E+02  0.23552115206E+02 -0.37592929494E+02  0.64923921442E+02  0.00000000000E+00 0. -1.
        -11    1    5    5    0    0  0.45230597080E+03  0.57824825024E+01 -0.56903455511E+03  0.72692121528E+03  0.00000000000E+00 0.  1.
          1    1    6    6  503    0 -0.52510412412E+02  0.49510017630E+02 -0.47885304604E+03  0.48426111238E+03  0.00000000000E+00 0. -1.
         -1    1    6    6    0  503 -0.17411609673E+03  0.18119339862E+03 -0.84689489822E+03  0.88339030528E+03  0.00000000000E+00 0.  1.
<mgrwt>
<rscale>  0 0.18882259E+04</rscale>
<asrwt>0</asrwt>
<pdfrwt beam="1">  1        2 0.33403814E+00 0.18882259E+04</pdfrwt>
<pdfrwt beam="2">  1       -1 0.63157532E-01 0.18882259E+04</pdfrwt>
<totfact> 0.14548293E+01</totfact>
</mgrwt>
</event>
<event>
12    6  0.1510140E-007  0.1472466E+04  0.7818608E-02  0.8902972E-01
         -1   -1    0    0    0  501 -0.00000000000E+00  0.00000000000E+00  0.76700274949E+03  0.76700274949E+03  0.00000000000E+00 0.  1.
          2   -1    0    0  501    0  0.00000000000E+00 -0.00000000000E+00 -0.70669746401E+03  0.70669746401E+03  0.00000000000E+00 0. -1.
         24    2    1    2    0    0  0.74540199303E+02  0.31638043215E+03  0.33268054792E+03  0.47173580574E+03  0.78775023297E+02 0.  0.
        254    2    1    2    0    0 -0.74540199303E+02 -0.31638043215E+03 -0.27237526244E+03  0.10019644078E+04  0.90779489515E+03 0.  0.
         23    2    4    4    0    0 -0.46996211338E+02 -0.37437834370E+02 -0.57150383997E+03  0.58198810429E+03  0.92104718169E+02 0.  0.
         23    2    4    4    0    0 -0.27543987966E+02 -0.27894259778E+03  0.29912857753E+03  0.41997630347E+03  0.91293731722E+02 0.  0.
          4    1    3    3  502    0 -0.96945726403E+01  0.62960983397E+02  0.38555612365E+02  0.74462107235E+02  0.00000000000E+00 0. -1.
         -3    1    3    3    0  502  0.84234771944E+02  0.25341944875E+03  0.29412493555E+03  0.39727369851E+03  0.00000000000E+00 0.  1.
         11    1    5    5    0    0 -0.54700548351E+02  0.14567180578E+02 -0.33097340302E+03  0.33577931182E+03  0.00000000000E+00 0. -1.
        -11    1    5    5    0    0  0.77043370137E+01 -0.52005014949E+02 -0.24053043695E+03  0.24620879247E+03  0.00000000000E+00 0.  1.
          2    1    6    6  503    0  0.32209399946E+02 -0.12411371686E+03  0.14382302754E+03  0.19268296087E+03  0.00000000000E+00 0. -1.
         -2    1    6    6    0  503 -0.59753387912E+02 -0.15482888092E+03  0.15530554999E+03  0.22729334260E+03  0.00000000000E+00 0.  1.
<mgrwt>
<rscale>  0 0.14724658E+04</rscale>
<asrwt>0</asrwt>
<pdfrwt beam="1">  1        2 0.10872269E+00 0.14724658E+04</pdfrwt>
<pdfrwt beam="2">  1       -1 0.11800042E+00 0.14724658E+04</pdfrwt>
<totfact> 0.28883055E+01</totfact>
</mgrwt>
</event>
<event>
12    6  0.1510140E-007  0.1690502E+04  0.7818608E-02  0.8766800E-01
          2   -1    0    0  501    0  0.00000000000E+00  0.00000000000E+00  0.15429229617E+04  0.15429229617E+04  0.00000000000E+00 0. -1.
         -1   -1    0    0    0  501 -0.00000000000E+00 -0.00000000000E+00 -0.46304914436E+03  0.46304914436E+03  0.00000000000E+00 0.  1.
         24    2    1    2    0    0  0.30218347137E+03 -0.52186845177E+03  0.38863891379E+03  0.72151350619E+03  0.76681177458E+02 0.  0.
        254    2    1    2    0    0 -0.30218347137E+03  0.52186845177E+03  0.69123490350E+03  0.12844585998E+04  0.89909213741E+03 0.  0.
         23    2    4    4    0    0 -0.53902124077E+03  0.41004081108E+03  0.18562053536E+03  0.70788174235E+03  0.89242440891E+02 0.  0.
         23    2    4    4    0    0  0.23683776940E+03  0.11182764069E+03  0.50561436814E+03  0.57657685748E+03  0.90539676822E+02 0.  0.
          4    1    3    3  502    0  0.30589513953E+03 -0.50347927716E+03  0.37760878625E+03  0.69975110887E+03  0.00000000000E+00 0. -1.
         -3    1    3    3    0  502 -0.37116681554E+01 -0.18389174611E+02  0.11030127543E+02  0.21762397317E+02  0.00000000000E+00 0.  1.
         11    1    5    5    0    0 -0.32792003796E+03  0.20168014088E+03  0.81349642702E+02  0.39347705764E+03  0.00000000000E+00 0.  1.
        -11    1    5    5    0    0 -0.21110120281E+03  0.20836067020E+03  0.10427089266E+03  0.31440468472E+03  0.00000000000E+00 0. -1.
          3    1    6    6  503    0  0.42122073671E+02 -0.14723233608E+02  0.72444760580E+02  0.85083993992E+02  0.00000000000E+00 0. -1.
         -3    1    6    6    0  503  0.19471569573E+03  0.12655087430E+03  0.43316960756E+03  0.49149286349E+03  0.00000000000E+00 0.  1.
<mgrwt>
<rscale>  0 0.16905019E+04</rscale>
<asrwt>0</asrwt>
<pdfrwt beam="1">  1        2 0.23737276E+00 0.16905019E+04</pdfrwt>
<pdfrwt beam="2">  1       -1 0.71238331E-01 0.16905019E+04</pdfrwt>
<totfact> 0.25921317E+01</totfact>
</mgrwt>
</event>
<event>
12    6  0.1510140E-007  0.2800233E+04  0.7818608E-02  0.8303196E-01
         -1   -1    0    0    0  501 -0.00000000000E+00  0.00000000000E+00  0.19841242279E+04  0.19841242279E+04  0.00000000000E+00 0.  1.
          2   -1    0    0  501    0  0.00000000000E+00 -0.00000000000E+00 -0.98800600444E+03  0.98800600444E+03  0.00000000000E+00 0. -1.
         24    2    1    2    0    0 -0.49535995530E+03  0.21739173437E+03 -0.75174852621E+03  0.92959275038E+03  0.79851007574E+02 0.  0.
        254    2    1    2    0    0  0.49535995530E+03 -0.21739173437E+03  0.17478667496E+04  0.20425374819E+04  0.90789896968E+03 0.  0.
         23    2    4    4    0    0  0.61348008837E+03 -0.13342340734E+03  0.17625651859E+04  0.18731676911E+04  0.89227461942E+02 0.  0.
         23    2    4    4    0    0 -0.11812013307E+03 -0.83968327028E+02 -0.14698436272E+02  0.16936979083E+03  0.86412014416E+02 0.  0.
          4    1    3    3  502    0 -0.19397758477E+03  0.12486437145E+03 -0.29198094524E+03  0.37211730279E+03  0.00000000000E+00 0. -1.
         -3    1    3    3    0  502 -0.30138237053E+03  0.92527362917E+02 -0.45976758097E+03  0.55747544759E+03  0.00000000000E+00 0.  1.
         11    1    5    5    0    0  0.32045758105E+03 -0.11506431784E+03  0.93544164472E+03  0.99548175732E+03  0.00000000000E+00 0.  1.
        -11    1    5    5    0    0  0.29302250732E+03 -0.18359089505E+02  0.82712354120E+03  0.87768593379E+03  0.00000000000E+00 0. -1.
          3    1    6    6  503    0  0.83234606087E+01 -0.24661246792E+02  0.93432559948E+01  0.27654177305E+02  0.00000000000E+00 0. -1.
         -3    1    6    6    0  503 -0.12644359368E+03 -0.59307080236E+02 -0.24041692267E+02  0.14171561352E+03  0.00000000000E+00 0.  1.
<mgrwt>
<rscale>  0 0.28002333E+04</rscale>
<asrwt>0</asrwt>
<pdfrwt beam="1">  1        2 0.15200092E+00 0.28002333E+04</pdfrwt>
<pdfrwt beam="2">  1       -1 0.30524988E+00 0.28002333E+04</pdfrwt>
<totfact> 0.77643642E-01</totfact>
</mgrwt>
</event>
<event>
12    6  0.1510140E-007  0.1388681E+04  0.7818608E-02  0.8962053E-01
         -1   -1    0    0    0  501 -0.00000000000E+00  0.00000000000E+00  0.15720061583E+03  0.15720061583E+03  0.00000000000E+00 0.  1.
          2   -1    0    0  501    0  0.00000000000E+00 -0.00000000000E+00 -0.30668352895E+04  0.30668352895E+04  0.00000000000E+00 0. -1.
         24    2    1    2    0    0  0.11377390897E+03 -0.35142961033E+03 -0.50454684621E+03  0.63002498478E+03  0.76920010739E+02 0.  0.
        254    2    1    2    0    0 -0.11377390897E+03  0.35142961033E+03 -0.24050878275E+04  0.25940109206E+04  0.89888704780E+03 0.  0.
         23    2    4    4    0    0 -0.29393452844E+03  0.53372592064E+03 -0.20831444139E+04  0.21724364195E+04  0.93426346775E+02 0.  0.
         23    2    4    4    0    0  0.18016061947E+03 -0.18229631031E+03 -0.32194341361E+03  0.42157450108E+03  0.91584413699E+02 0.  0.
          2    1    3    3  502    0  0.31047537939E+01 -0.96607308715E+02 -0.98233475833E+02  0.13781301596E+03  0.00000000000E+00 0. -1.
         -1    1    3    3    0  502  0.11066915518E+03 -0.25482230161E+03 -0.40631337037E+03  0.49221196882E+03  0.00000000000E+00 0.  1.
         11    1    5    5    0    0 -0.25468717625E+03  0.50431534001E+03 -0.19624470830E+04  0.20421552520E+04  0.00000000000E+00 0.  1.
        -11    1    5    5    0    0 -0.39247352191E+02  0.29410580633E+02 -0.12069733090E+03  0.13028116745E+03  0.00000000000E+00 0. -1.
          2    1    6    6  503    0 -0.97261209366E+01 -0.65940892130E+01 -0.25770689658E+02  0.28323274643E+02  0.00000000000E+00 0. -1.
         -2    1    6    6    0  503  0.18988674040E+03 -0.17570222110E+03 -0.29617272395E+03  0.39325122644E+03  0.00000000000E+00 0.  1.
<mgrwt>
<rscale>  0 0.13886805E+04</rscale>
<asrwt>0</asrwt>
<pdfrwt beam="1">  1        2 0.47182076E+00 0.13886805E+04</pdfrwt>
<pdfrwt beam="2">  1       -1 0.24184713E-01 0.13886805E+04</pdfrwt>
<totfact> 0.26256141E+01</totfact>
</mgrwt>
</event>
<event>
12    6  0.1510140E-007  0.1924299E+04  0.7818608E-02  0.8642855E-01
         -1   -1    0    0    0  501 -0.00000000000E+00  0.00000000000E+00  0.52972436537E+03  0.52972436537E+03  0.00000000000E+00 0.  1.
          2   -1    0    0  501    0  0.00000000000E+00 -0.00000000000E+00 -0.17475722021E+04  0.17475722021E+04  0.00000000000E+00 0. -1.
         24    2    1    2    0    0  0.28631250017E+03 -0.53055447339E+03  0.67366486923E+02  0.61176254793E+03  0.79071325386E+02 0.  0.
        254    2    1    2    0    0 -0.28631250017E+03  0.53055447339E+03 -0.12852143236E+04  0.16655340195E+04  0.87107107374E+03 0.  0.
         23    2    4    4    0    0 -0.29736873767E+03  0.22342258736E+03 -0.12888224930E+04  0.13450166331E+04  0.98287872947E+02 0.  0.
         23    2    4    4    0    0  0.11056237501E+02  0.30713188603E+03  0.36081694336E+01  0.32051738643E+03  0.90918316708E+02 0.  0.
          4    1    3    3  502    0  0.76249537269E+02 -0.10135195795E+03 -0.11875201871E+02  0.12738615205E+03  0.00000000000E+00 0. -1.
         -3    1    3    3    0  502  0.21006296291E+03 -0.42920251543E+03  0.79241688794E+02  0.48437639588E+03  0.00000000000E+00 0.  1.
         11    1    5    5    0    0 -0.30296150186E+03  0.22487968619E+03 -0.12479983621E+04  0.13037854335E+04  0.00000000000E+00 0.  1.
        -11    1    5    5    0    0  0.55927641866E+01 -0.14570988363E+01 -0.40824130976E+02  0.41231199572E+02  0.00000000000E+00 0. -1.
          1    1    6    6  503    0 -0.34447577991E+01  0.37542963418E+02  0.31464358147E+02  0.49105460919E+02  0.00000000000E+00 0. -1.
         -1    1    6    6    0  503  0.14500995300E+02  0.26958892261E+03 -0.27856188713E+02  0.27141192551E+03  0.00000000000E+00 0.  1.
<mgrwt>
<rscale>  0 0.19242989E+04</rscale>
<asrwt>0</asrwt>
<pdfrwt beam="1">  1        2 0.26885726E+00 0.19242989E+04</pdfrwt>
<pdfrwt beam="2">  1       -1 0.81496056E-01 0.19242989E+04</pdfrwt>
<totfact> 0.14727500E+01</totfact>
</mgrwt>
</event>
<event>
12    6  0.1510140E-007  0.2952104E+04  0.7818608E-02  0.8257542E-01
          2   -1    0    0  501    0  0.00000000000E+00  0.00000000000E+00  0.14173138416E+04  0.14173138416E+04  0.00000000000E+00 0. -1.
         -1   -1    0    0    0  501 -0.00000000000E+00 -0.00000000000E+00 -0.15372246460E+04  0.15372246460E+04  0.00000000000E+00 0.  1.
         24    2    1    2    0    0  0.95465070707E+03 -0.90401141180E+03 -0.28608623047E+03  0.13477438068E+04  0.77287983637E+02 0.  0.
        254    2    1    2    0    0 -0.95465070707E+03  0.90401141180E+03  0.16617542608E+03  0.16067946809E+04  0.90861447767E+03 0.  0.
         23    2    4    4    0    0 -0.43999769227E+03  0.96645676394E+03  0.45955854719E+02  0.10667055246E+04  0.90067141112E+02 0.  0.
         23    2    4    4    0    0 -0.51465301480E+03 -0.62445352132E+02  0.12021957136E+03  0.54008915624E+03  0.92067386774E+02 0.  0.
          4    1    3    3  502    0  0.20570919026E+03 -0.16034212664E+03 -0.38409422214E+02  0.26363071189E+03  0.00000000000E+00 0. -1.
         -3    1    3    3    0  502  0.74894151680E+03 -0.74366928516E+03 -0.24767680826E+03  0.10841130949E+04  0.00000000000E+00 0.  1.
         11    1    5    5    0    0 -0.40283001799E+03  0.92282699353E+03  0.56192664369E+02  0.10084836632E+04  0.00000000000E+00 0.  1.
        -11    1    5    5    0    0 -0.37167674280E+02  0.43629770408E+02 -0.10236809650E+02  0.58221861436E+02  0.00000000000E+00 0. -1.
          2    1    6    6  503    0 -0.50361437711E+02  0.11531673513E+02 -0.91449707813E+01  0.52467936809E+02  0.00000000000E+00 0. -1.
         -2    1    6    6    0  503 -0.46429157708E+03 -0.73977025645E+02  0.12936454215E+03  0.48762121943E+03  0.00000000000E+00 0.  1.
<mgrwt>
<rscale>  0 0.29521042E+04</rscale>
<asrwt>0</asrwt>
<pdfrwt beam="1">  1        2 0.21804828E+00 0.29521042E+04</pdfrwt>
<pdfrwt beam="2">  1       -1 0.23649610E+00 0.29521042E+04</pdfrwt>
<totfact> 0.11835568E+00</totfact>
</mgrwt>
</event>
<event>
12    6  0.1510140E-007  0.1514365E+04  0.7818608E-02  0.8874956E-01
          2   -1    0    0  501    0  0.00000000000E+00  0.00000000000E+00  0.92155404521E+03  0.92155404521E+03  0.00000000000E+00 0. -1.
         -1   -1    0    0    0  501 -0.00000000000E+00 -0.00000000000E+00 -0.62212878062E+03  0.62212878062E+03  0.00000000000E+00 0.  1.
         24    2    1    2    0    0  0.86335447616E+02  0.15923971985E+03  0.55705933830E+03  0.59126126353E+03  0.80396999206E+02 0.  0.
        254    2    1    2    0    0 -0.86335447616E+02 -0.15923971985E+03 -0.25763407370E+03  0.95242156230E+03  0.89884393446E+03 0.  0.
         23    2    4    4    0    0  0.10106942786E+03 -0.20087875980E+03  0.28242298649E+03  0.37274995091E+03  0.92803433225E+02 0.  0.
         23    2    4    4    0    0 -0.18740487548E+03  0.41639039958E+02 -0.54005706019E+03  0.57967161139E+03  0.86620735303E+02 0.  0.
          4    1    3    3  502    0  0.34407345941E+02  0.13270111310E+03  0.43291156003E+03  0.45409896463E+03  0.00000000000E+00 0. -1.
         -3    1    3    3    0  502  0.51928101676E+02  0.26538606750E+02  0.12414777826E+03  0.13716229890E+03  0.00000000000E+00 0.  1.
         11    1    5    5    0    0  0.28706694330E+02 -0.22730175423E+01  0.56158087038E+02  0.63110788680E+02  0.00000000000E+00 0.  1.
        -11    1    5    5    0    0  0.72362733534E+02 -0.19860574226E+03  0.22626489945E+03  0.30963916223E+03  0.00000000000E+00 0. -1.
          2    1    6    6  503    0 -0.74514432836E+02  0.50612129866E+02 -0.31647909631E+03  0.32904863894E+03  0.00000000000E+00 0. -1.
         -2    1    6    6    0  503 -0.11289044264E+03 -0.89730899082E+01 -0.22357796388E+03  0.25062297244E+03  0.00000000000E+00 0.  1.
<mgrwt>
<rscale>  0 0.15143649E+04</rscale>
<asrwt>0</asrwt>
<pdfrwt beam="1">  1        2 0.14177755E+00 0.15143649E+04</pdfrwt>
<pdfrwt beam="2">  1       -1 0.95712120E-01 0.15143649E+04</pdfrwt>
<totfact> 0.32896350E+01</totfact>
</mgrwt>
</event>
<event>
12    6  0.1510140E-007  0.1575689E+04  0.7818608E-02  0.8835624E-01
          4   -1    0    0  501    0  0.00000000000E+00  0.00000000000E+00  0.67580203686E+03  0.67580203686E+03  0.00000000000E+00 0. -1.
         -3   -1    0    0    0  501 -0.00000000000E+00 -0.00000000000E+00 -0.91846321374E+03  0.91846321374E+03  0.00000000000E+00 0.  1.
         24    2    1    2    0    0 -0.12256861844E+03 -0.96587821646E+02 -0.60337905916E+03  0.62830123302E+03  0.79648458015E+02 0.  0.
        254    2    1    2    0    0  0.12256861844E+03  0.96587821646E+02  0.36071788229E+03  0.96596401758E+03  0.88239266721E+03 0.  0.
         23    2    4    4    0    0  0.14594980491E+03 -0.10889198651E+03 -0.24640573460E+03  0.31922254718E+03  0.89601553020E+02 0.  0.
         23    2    4    4    0    0 -0.23381186469E+02  0.20547980815E+03  0.60712361688E+03  0.64674147041E+03  0.83107231489E+02 0.  0.
          2    1    3    3  502    0 -0.11220384026E+02 -0.32043336932E+02 -0.24842602846E+03  0.25073524697E+03  0.00000000000E+00 0. -1.
         -1    1    3    3    0  502 -0.11134823442E+03 -0.64544484713E+02 -0.35495303070E+03  0.37756598605E+03  0.00000000000E+00 0.  1.
         11    1    5    5    0    0  0.68534848369E+02 -0.31800478268E+02 -0.16961801374E+03  0.18568405006E+03  0.00000000000E+00 0. -1.
        -11    1    5    5    0    0  0.77414956543E+02 -0.77091508238E+02 -0.76787720855E+02  0.13353849712E+03  0.00000000000E+00 0.  1.
          3    1    6    6  503    0 -0.41725999134E+02  0.14170529467E+03  0.49375303508E+03  0.51537705536E+03  0.00000000000E+00 0. -1.
         -3    1    6    6    0  503  0.18344812665E+02  0.63774513484E+02  0.11337058180E+03  0.13136441505E+03  0.00000000000E+00 0.  1.
<mgrwt>
<rscale>  0 0.15756894E+04</rscale>
<asrwt>0</asrwt>
<pdfrwt beam="1">  1        4 0.10396954E+00 0.15756894E+04</pdfrwt>
<pdfrwt beam="2">  1       -3 0.14130203E+00 0.15756894E+04</pdfrwt>
<totfact> 0.62179981E-01</totfact>
</mgrwt>
</event>
<event>
12    6  0.1510140E-007  0.1600497E+04  0.7818608E-02  0.8820243E-01
         -1   -1    0    0    0  501 -0.00000000000E+00  0.00000000000E+00  0.37395783435E+03  0.37395783435E+03  0.00000000000E+00 0.  1.
          2   -1    0    0  501    0  0.00000000000E+00 -0.00000000000E+00 -0.17124869054E+04  0.17124869054E+04  0.00000000000E+00 0. -1.
         24    2    1    2    0    0 -0.31775617888E+03 -0.44495494392E+03 -0.41540524725E+03  0.69121404363E+03  0.79129282354E+02 0.  0.
        254    2    1    2    0    0  0.31775617888E+03  0.44495494392E+03 -0.92312382380E+03  0.13952306961E+04  0.89194013815E+03 0.  0.
         23    2    4    4    0    0  0.73739274394E+02  0.55939413917E+03 -0.95110153454E+03  0.11095494500E+04  0.90258349035E+02 0.  0.
         23    2    4    4    0    0  0.24401690449E+03 -0.11443919525E+03  0.27977710738E+02  0.28568124609E+03  0.90501066204E+02 0.  0.
          4    1    3    3  502    0 -0.86962070858E+01 -0.16514040125E+01  0.11128185427E+01  0.89212957579E+01  0.00000000000E+00 0. -1.
         -3    1    3    3    0  502 -0.30905997180E+03 -0.44330353990E+03 -0.41651806579E+03  0.68229274787E+03  0.00000000000E+00 0.  1.
         11    1    5    5    0    0 -0.85356775823E+01  0.10875745241E+03 -0.24059859488E+03  0.26417555735E+03  0.00000000000E+00 0.  1.
        -11    1    5    5    0    0  0.82274951976E+02  0.45063668676E+03 -0.71050293966E+03  0.84537389269E+03  0.00000000000E+00 0. -1.
          3    1    6    6  503    0  0.23980320000E+03 -0.12618823359E+03  0.31260109613E+02  0.27277507122E+03  0.00000000000E+00 0. -1.
         -3    1    6    6    0  503  0.42137044861E+01  0.11749038337E+02 -0.32823988755E+01  0.12906174868E+02  0.00000000000E+00 0.  1.
<mgrwt>
<rscale>  0 0.16004973E+04</rscale>
<asrwt>0</asrwt>
<pdfrwt beam="1">  1        2 0.26345952E+00 0.16004973E+04</pdfrwt>
<pdfrwt beam="2">  1       -1 0.57531976E-01 0.16004973E+04</pdfrwt>
<totfact> 0.32258967E+01</totfact>
</mgrwt>
</event>
<event>
12    6  0.1510140E-007  0.1102134E+04  0.7818608E-02  0.9203114E-01
          2   -1    0    0  501    0  0.00000000000E+00  0.00000000000E+00  0.98182113896E+03  0.98182113896E+03  0.00000000000E+00 0. -1.
         -1   -1    0    0    0  501 -0.00000000000E+00 -0.00000000000E+00 -0.30929762626E+03  0.30929762626E+03  0.00000000000E+00 0.  1.
         24    2    1    2    0    0  0.10755858795E+03  0.87813021783E+02  0.81047394627E+01  0.16071656883E+03  0.80524232741E+02 0.  0.
        254    2    1    2    0    0 -0.10755858795E+03 -0.87813021783E+02  0.66441877323E+03  0.11304021964E+04  0.90392302922E+03 0.  0.
         23    2    4    4    0    0 -0.20469605759E+03 -0.35853666608E+03  0.25690906875E+02  0.42380590616E+03  0.92208494667E+02 0.  0.
         23    2    4    4    0    0  0.97137469647E+02  0.27072364429E+03  0.63872786636E+03  0.70659629023E+03  0.92617765670E+02 0.  0.
          2    1    3    3  502    0  0.34838706453E+02  0.79963660984E+02  0.78255736241E+01  0.87573752620E+02  0.00000000000E+00 0. -1.
         -1    1    3    3    0  502  0.72719881494E+02  0.78493607983E+01  0.27916583862E+00  0.73142816209E+02  0.00000000000E+00 0.  1.
         11    1    5    5    0    0 -0.14644064639E+03 -0.32044080477E+03  0.10028419174E+02  0.35245956005E+03  0.00000000000E+00 0. -1.
        -11    1    5    5    0    0 -0.58255411205E+02 -0.38095861301E+02  0.15662487700E+02  0.71346346115E+02  0.00000000000E+00 0.  1.
          3    1    6    6  503    0  0.47408781841E+02  0.19543796558E+03  0.51956911477E+03  0.55713163256E+03  0.00000000000E+00 0. -1.
         -3    1    6    6    0  503  0.49728687806E+02  0.75285678715E+02  0.11915875159E+03  0.14946465766E+03  0.00000000000E+00 0.  1.
<mgrwt>
<rscale>  0 0.11021342E+04</rscale>
<asrwt>0</asrwt>
<pdfrwt beam="1">  1        2 0.15104940E+00 0.11021342E+04</pdfrwt>
<pdfrwt beam="2">  1       -1 0.47584251E-01 0.11021342E+04</pdfrwt>
<totfact> 0.12915155E+02</totfact>
</mgrwt>
</event>
<event>
12    6  0.1510140E-007  0.1607876E+04  0.7818608E-02  0.8815724E-01
          2   -1    0    0  501    0  0.00000000000E+00  0.00000000000E+00  0.50048750049E+03  0.50048750049E+03  0.00000000000E+00 0. -1.
         -1   -1    0    0    0  501 -0.00000000000E+00 -0.00000000000E+00 -0.12913735517E+04  0.12913735517E+04  0.00000000000E+00 0.  1.
         24    2    1    2    0    0 -0.34220185814E+03  0.32409502442E+03 -0.59446097329E+03  0.76294901683E+03  0.81041081757E+02 0.  0.
        254    2    1    2    0    0  0.34220185814E+03 -0.32409502442E+03 -0.19642507795E+03  0.10289120354E+04  0.89327345689E+03 0.  0.
         23    2    4    4    0    0 -0.11134470228E+03  0.11947644146E+03  0.20302148431E+03  0.27379825869E+03  0.84115994803E+02 0.  0.
         23    2    4    4    0    0  0.45354656043E+03 -0.44357146588E+03 -0.39944656226E+03  0.75511377671E+03  0.90438552928E+02 0.  0.
          4    1    3    3  502    0 -0.97998307582E+02  0.10270793810E+03 -0.12388300325E+03  0.18841334171E+03  0.00000000000E+00 0. -1.
         -3    1    3    3    0  502 -0.24420355056E+03  0.22138708632E+03 -0.47057797004E+03  0.57453567512E+03  0.00000000000E+00 0.  1.
         11    1    5    5    0    0 -0.27626589621E+02  0.42215902532E+02  0.12749778270E+03  0.13711708674E+03  0.00000000000E+00 0. -1.
        -11    1    5    5    0    0 -0.83718112661E+02  0.77260538930E+02  0.75523701605E+02  0.13668117196E+03  0.00000000000E+00 0.  1.
          3    1    6    6  503    0  0.27384753734E+03 -0.29293026306E+03 -0.29808918410E+03  0.49965765720E+03  0.00000000000E+00 0. -1.
         -3    1    6    6    0  503  0.17969902309E+03 -0.15064120283E+03 -0.10135737816E+03  0.25545611951E+03  0.00000000000E+00 0.  1.
<mgrwt>
<rscale>  0 0.16078760E+04</rscale>
<asrwt>0</asrwt>
<pdfrwt beam="1">  1        2 0.76998079E-01 0.16078760E+04</pdfrwt>
<pdfrwt beam="2">  1       -1 0.19867285E+00 0.16078760E+04</pdfrwt>
<totfact> 0.10356286E+01</totfact>
</mgrwt>
</event>
<event>
12    6  0.1510140E-007  0.2361933E+04  0.7818608E-02  0.8453894E-01
          2   -1    0    0  501    0  0.00000000000E+00  0.00000000000E+00  0.13767363862E+04  0.13767363862E+04  0.00000000000E+00 0. -1.
         -1   -1    0    0    0  501 -0.00000000000E+00 -0.00000000000E+00 -0.10130347209E+04  0.10130347209E+04  0.00000000000E+00 0.  1.
         24    2    1    2    0    0  0.69094820536E+03  0.53668568878E+03  0.68531690309E+03  0.11141850955E+04  0.79424292947E+02 0.  0.
        254    2    1    2    0    0 -0.69094820536E+03 -0.53668568878E+03 -0.32161523778E+03  0.12755860116E+04  0.87077112992E+03 0.  0.
         23    2    4    4    0    0 -0.35029569615E+03  0.20246020385E+03 -0.12701219196E+03  0.43382593475E+03  0.91518500170E+02 0.  0.
         23    2    4    4    0    0 -0.34065250922E+03 -0.73914589263E+03 -0.19460304582E+03  0.84176007682E+03  0.91153161498E+02 0.  0.
          2    1    3    3  502    0  0.56331566552E+03  0.47078314836E+03  0.55621683470E+03  0.92105291868E+03  0.00000000000E+00 0. -1.
         -1    1    3    3    0  502  0.12763253985E+03  0.65902540414E+02  0.12910006840E+03  0.19313217682E+03  0.00000000000E+00 0.  1.
         11    1    5    5    0    0 -0.34088214466E+02  0.85651158695E+01  0.12834197657E+02  0.37417699085E+02  0.00000000000E+00 0.  1.
        -11    1    5    5    0    0 -0.31620748168E+03  0.19389508798E+03 -0.13984638961E+03  0.39640823566E+03  0.00000000000E+00 0. -1.
          2    1    6    6  503    0 -0.14287282123E+03 -0.21580503821E+03 -0.77521432293E+02  0.27017407357E+03  0.00000000000E+00 0. -1.
         -2    1    6    6    0  503 -0.19777968799E+03 -0.52334085442E+03 -0.11708161353E+03  0.57158600325E+03  0.00000000000E+00 0.  1.
<mgrwt>
<rscale>  0 0.23619329E+04</rscale>
<asrwt>0</asrwt>
<pdfrwt beam="1">  1        2 0.21180560E+00 0.23619329E+04</pdfrwt>
<pdfrwt beam="2">  1       -1 0.15585149E+00 0.23619329E+04</pdfrwt>
<totfact> 0.48215003E+00</totfact>
</mgrwt>
</event>
<event>
12    6  0.1510140E-007  0.1352096E+04  0.7818608E-02  0.8989243E-01
          2   -1    0    0  501    0  0.00000000000E+00  0.00000000000E+00  0.25625241260E+04  0.25625241260E+04  0.00000000000E+00 0. -1.
         -1   -1    0    0    0  501 -0.00000000000E+00 -0.00000000000E+00 -0.17835561528E+03  0.17835561528E+03  0.00000000000E+00 0.  1.
         24    2    1    2    0    0  0.11137751893E+03 -0.26983718265E+03  0.19338176680E+03  0.35823784040E+03  0.75635875744E+02 0.  0.
        254    2    1    2    0    0 -0.11137751893E+03  0.26983718265E+03  0.21907867439E+04  0.23826419008E+04  0.89006674671E+03 0.  0.
         23    2    4    4    0    0 -0.59542748683E+02  0.30677268239E+03  0.22372309854E+04  0.22606363301E+04  0.87288701554E+02 0.  0.
         23    2    4    4    0    0 -0.51834770250E+02 -0.36935499740E+02 -0.46444241496E+02  0.12200557074E+03  0.93151581719E+02 0.  0.
          2    1    3    3  502    0  0.66736990587E+02 -0.69801963982E+02  0.64351375255E+02  0.11604843638E+03  0.00000000000E+00 0. -1.
         -1    1    3    3    0  502  0.44640528345E+02 -0.20003521867E+03  0.12903039154E+03  0.24218940402E+03  0.00000000000E+00 0.  1.
         11    1    5    5    0    0 -0.46487031555E+02  0.30001410829E+03  0.19958690290E+04  0.20188270580E+04  0.00000000000E+00 0. -1.
        -11    1    5    5    0    0 -0.13055717128E+02  0.67585741033E+01  0.24136195637E+03  0.24180927206E+03  0.00000000000E+00 0.  1.
          3    1    6    6  503    0 -0.19894392278E+02  0.18436868206E+02 -0.51162361919E+02  0.57907618069E+02  0.00000000000E+00 0. -1.
         -3    1    6    6    0  503 -0.31940377972E+02 -0.55372367946E+02  0.47181204226E+01  0.64097952676E+02  0.00000000000E+00 0.  1.
<mgrwt>
<rscale>  0 0.13520955E+04</rscale>
<asrwt>0</asrwt>
<pdfrwt beam="1">  1        2 0.39423445E+00 0.13520955E+04</pdfrwt>
<pdfrwt beam="2">  1       -1 0.27439327E-01 0.13520955E+04</pdfrwt>
<totfact> 0.42667812E+01</totfact>
</mgrwt>
</event>
<event>
12    6  0.1510140E-007  0.2778683E+04  0.7818608E-02  0.8309917E-01
          2   -1    0    0  501    0  0.00000000000E+00  0.00000000000E+00  0.17527931807E+04  0.17527931807E+04  0.00000000000E+00 0. -1.
         -1   -1    0    0    0  501 -0.00000000000E+00 -0.00000000000E+00 -0.11012532592E+04  0.11012532592E+04  0.00000000000E+00 0.  1.
         24    2    1    2    0    0  0.35478432365E+03 -0.11587397146E+04  0.57239141634E+03  0.13426942183E+04  0.81524154643E+02 0.  0.
        254    2    1    2    0    0 -0.35478432365E+03  0.11587397146E+04  0.79148505173E+02  0.15113522216E+04  0.89965071521E+03 0.  0.
         23    2    4    4    0    0 -0.34501700603E+03  0.34521324403E+02  0.12989145743E+03  0.38214712444E+03  0.94531358353E+02 0.  0.
         23    2    4    4    0    0 -0.97673176205E+01  0.11242183902E+04 -0.50742952256E+02  0.11292050971E+04  0.92557630326E+02 0.  0.
          2    1    3    3  502    0  0.33834486809E+03 -0.11419003864E+04  0.56327459425E+03  0.13174566447E+04  0.00000000000E+00 0. -1.
         -1    1    3    3    0  502  0.16439455559E+02 -0.16839328203E+02  0.91168220934E+01  0.25237573546E+02  0.00000000000E+00 0.  1.
         11    1    5    5    0    0 -0.23814634165E+03 -0.42056717579E+01  0.12349715027E+03  0.26829631723E+03  0.00000000000E+00 0. -1.
        -11    1    5    5    0    0 -0.10687066438E+03  0.38726996161E+02  0.63943071630E+01  0.11385080720E+03  0.00000000000E+00 0.  1.
          3    1    6    6  503    0  0.18895506904E+02  0.93365837517E+03 -0.19993268819E+02  0.93406355913E+03  0.00000000000E+00 0. -1.
         -3    1    6    6    0  503 -0.28662824525E+02  0.19056001500E+03 -0.30749683437E+02  0.19514153801E+03  0.00000000000E+00 0.  1.
<mgrwt>
<rscale>  0 0.27786826E+04</rscale>
<asrwt>0</asrwt>
<pdfrwt beam="1">  1        2 0.26966049E+00 0.27786826E+04</pdfrwt>
<pdfrwt beam="2">  1       -1 0.16942358E+00 0.27786826E+04</pdfrwt>
<totfact> 0.22597050E+00</totfact>
</mgrwt>
</event>
<event>
12    6  0.1510140E-007  0.1758265E+04  0.7818608E-02  0.8728814E-01
          2   -1    0    0  501    0  0.00000000000E+00  0.00000000000E+00  0.21110773282E+04  0.21110773282E+04  0.00000000000E+00 0. -1.
         -1   -1    0    0    0  501 -0.00000000000E+00 -0.00000000000E+00 -0.36610390922E+03  0.36610390922E+03  0.00000000000E+00 0.  1.
         24    2    1    2    0    0 -0.50392701578E+03 -0.13127731679E+03  0.89389440184E+02  0.53450722841E+03  0.80816669448E+02 0.  0.
        254    2    1    2    0    0  0.50392701578E+03  0.13127731679E+03  0.16555839788E+04  0.19426740090E+04  0.87283894466E+03 0.  0.
         23    2    4    4    0    0  0.70134117180E+03  0.10978328275E+03  0.86942409049E+03  0.11262584425E+04  0.92887145441E+02 0.  0.
         23    2    4    4    0    0 -0.19741415602E+03  0.21494034041E+02  0.78615988831E+03  0.81641556650E+03  0.95145492441E+02 0.  0.
          2    1    3    3  502    0 -0.31288229730E+03 -0.81508485266E+02  0.95045306309E+02  0.33700530469E+03  0.00000000000E+00 0. -1.
         -1    1    3    3    0  502 -0.19104471848E+03 -0.49768831526E+02 -0.56558661252E+01  0.19750192372E+03  0.00000000000E+00 0.  1.
         11    1    5    5    0    0  0.33023300185E+03  0.50880595508E+02  0.48257916731E+03  0.58696279544E+03  0.00000000000E+00 0.  1.
        -11    1    5    5    0    0  0.37110816995E+03  0.58902687244E+02  0.38684492319E+03  0.53929564708E+03  0.00000000000E+00 0. -1.
          3    1    6    6  503    0 -0.66063455783E+01  0.23305957436E+01  0.19089660102E+03  0.19102509720E+03  0.00000000000E+00 0. -1.
         -3    1    6    6    0  503 -0.19080781044E+03  0.19163438297E+02  0.59526328729E+03  0.62539046930E+03  0.00000000000E+00 0.  1.
<mgrwt>
<rscale>  0 0.17582647E+04</rscale>
<asrwt>0</asrwt>
<pdfrwt beam="1">  1        2 0.32478112E+00 0.17582647E+04</pdfrwt>
<pdfrwt beam="2">  1       -1 0.56323679E-01 0.17582647E+04</pdfrwt>
<totfact> 0.19935453E+01</totfact>
</mgrwt>
</event>
<event>
12    6  0.1510140E-007  0.1973277E+04  0.7818608E-02  0.8619217E-01
         -1   -1    0    0    0  501 -0.00000000000E+00  0.00000000000E+00  0.58052807095E+03  0.58052807095E+03  0.00000000000E+00 0.  1.
          2   -1    0    0  501    0  0.00000000000E+00 -0.00000000000E+00 -0.16768447832E+04  0.16768447832E+04  0.00000000000E+00 0. -1.
         24    2    1    2    0    0  0.19498509145E+03 -0.31173360349E+03  0.35591225707E+03  0.51783702776E+03  0.79275640376E+02 0.  0.
        254    2    1    2    0    0 -0.19498509145E+03  0.31173360349E+03 -0.14522289693E+04  0.17395358264E+04  0.88420522874E+03 0.  0.
         23    2    4    4    0    0 -0.41783201494E+03  0.49305789887E+03 -0.93513278251E+03  0.11403770854E+04  0.91087275337E+02 0.  0.
         23    2    4    4    0    0  0.22284692350E+03 -0.18132429538E+03 -0.51709618680E+03  0.59915874094E+03  0.95202305802E+02 0.  0.
          2    1    3    3  502    0 -0.92199920114E-01 -0.48503409578E+02  0.45482069662E+02  0.66492164217E+02  0.00000000000E+00 0. -1.
         -1    1    3    3    0  502  0.19507729137E+03 -0.26323019391E+03  0.31043018741E+03  0.45134486354E+03  0.00000000000E+00 0.  1.
         11    1    5    5    0    0 -0.30678617781E+03  0.39316094805E+03 -0.65885406212E+03  0.82630621754E+03  0.00000000000E+00 0.  1.
        -11    1    5    5    0    0 -0.11104583713E+03  0.99896950824E+02 -0.27627872039E+03  0.31407086790E+03  0.00000000000E+00 0. -1.
          3    1    6    6  503    0  0.39880822882E+02  0.25957091761E+01 -0.10331712151E+03  0.11077745861E+03  0.00000000000E+00 0. -1.
         -3    1    6    6    0  503  0.18296610061E+03 -0.18392000456E+03 -0.41377906529E+03  0.48838128233E+03  0.00000000000E+00 0.  1.
<mgrwt>
<rscale>  0 0.19732769E+04</rscale>
<asrwt>0</asrwt>
<pdfrwt beam="1">  1        2 0.25797611E+00 0.19732769E+04</pdfrwt>
<pdfrwt beam="2">  1       -1 0.89312013E-01 0.19732769E+04</pdfrwt>
<totfact> 0.13162274E+01</totfact>
</mgrwt>
</event>
<event>
12    6  0.1510140E-007  0.1714765E+04  0.7818608E-02  0.8752988E-01
         -1   -1    0    0    0  501 -0.00000000000E+00  0.00000000000E+00  0.17707272523E+04  0.17707272523E+04  0.00000000000E+00 0.  1.
          2   -1    0    0  501    0  0.00000000000E+00 -0.00000000000E+00 -0.41514260513E+03  0.41514260513E+03  0.00000000000E+00 0. -1.
         24    2    1    2    0    0  0.28765477613E+03 -0.52976068184E+03  0.66793199161E+03  0.90305097062E+03  0.77306273168E+02 0.  0.
        254    2    1    2    0    0 -0.28765477613E+03  0.52976068184E+03  0.68765265559E+03  0.12828188868E+04  0.89964797084E+03 0.  0.
         23    2    4    4    0    0 -0.25812412639E+03  0.18287472171E+03 -0.15675418078E+03  0.36492556819E+03  0.92344835606E+02 0.  0.
         23    2    4    4    0    0 -0.29530649748E+02  0.34688596013E+03  0.84440683637E+03  0.91789331866E+03  0.91122502776E+02 0.  0.
          2    1    3    3  502    0  0.24211063125E+03 -0.48953005033E+03  0.61474079100E+03  0.82229159552E+03  0.00000000000E+00 0. -1.
         -1    1    3    3    0  502  0.45544144885E+02 -0.40230631509E+02  0.53191200605E+02  0.80759375101E+02  0.00000000000E+00 0.  1.
         11    1    5    5    0    0 -0.19097010294E+03  0.92520668021E+02 -0.72260122554E+02  0.22416774866E+03  0.00000000000E+00 0.  1.
        -11    1    5    5    0    0 -0.67154023446E+02  0.90354053689E+02 -0.84494058225E+02  0.14075781953E+03  0.00000000000E+00 0. -1.
          4    1    6    6  503    0 -0.62161661018E+01  0.32706895808E+03  0.73969847549E+03  0.80880564952E+03  0.00000000000E+00 0.  1.
         -4    1    6    6    0  503 -0.23314483646E+02  0.19817002050E+02  0.10470836089E+03  0.10908766913E+03  0.00000000000E+00 0. -1.
<mgrwt>
<rscale>  0 0.17147645E+04</rscale>
<asrwt>0</asrwt>
<pdfrwt beam="1">  1        2 0.63868094E-01 0.17147645E+04</pdfrwt>
<pdfrwt beam="2">  1       -1 0.27241957E+00 0.17147645E+04</pdfrwt>
<totfact> 0.41322774E+00</totfact>
</mgrwt>
</event>
<event>
12    6  0.1510140E-007  0.1434303E+04  0.7818608E-02  0.8929356E-01
          2   -1    0    0  501    0  0.00000000000E+00  0.00000000000E+00  0.12900807655E+04  0.12900807655E+04  0.00000000000E+00 0. -1.
         -1   -1    0    0    0  501 -0.00000000000E+00 -0.00000000000E+00 -0.39866198543E+03  0.39866198543E+03  0.00000000000E+00 0.  1.
         24    2    1    2    0    0  0.32702459931E+03 -0.41637401454E+02 -0.11229114920E+03  0.35707196661E+03  0.78818306198E+02 0.  0.
        254    2    1    2    0    0 -0.32702459931E+03  0.41637401454E+02  0.10037099293E+04  0.13316707843E+04  0.81070012578E+03 0.  0.
         23    2    4    4    0    0 -0.42087962682E+02 -0.11998243688E+03 -0.94022498695E+02  0.18231609645E+03  0.90728975536E+02 0.  0.
         23    2    4    4    0    0 -0.28493663663E+03  0.16161983833E+03  0.10977324280E+04  0.11493546879E+04  0.93219397607E+02 0.  0.
          4    1    3    3  502    0  0.10493555506E+03  0.16220748509E+01 -0.71943287584E+02  0.12723968905E+03  0.00000000000E+00 0. -1.
         -3    1    3    3    0  502  0.22208904426E+03 -0.43259476305E+02 -0.40347861620E+02  0.22983227755E+03  0.00000000000E+00 0.  1.
         11    1    5    5    0    0 -0.14168588945E+02 -0.44929236227E+02 -0.90657676520E+02  0.10216750703E+03  0.00000000000E+00 0. -1.
        -11    1    5    5    0    0 -0.27919373737E+02 -0.75053200650E+02 -0.33648221750E+01  0.80148589419E+02  0.00000000000E+00 0.  1.
          4    1    6    6  503    0 -0.51438964773E+01  0.56585044936E+01  0.22071705853E+01  0.79592679353E+01  0.00000000000E+00 0.  1.
         -4    1    6    6    0  503 -0.27979274015E+03  0.15596133384E+03  0.10955252574E+04  0.11413954199E+04  0.00000000000E+00 0. -1.
<mgrwt>
<rscale>  0 0.14343028E+04</rscale>
<asrwt>0</asrwt>
<pdfrwt beam="1">  1        2 0.19847396E+00 0.14343028E+04</pdfrwt>
<pdfrwt beam="2">  1       -1 0.61332614E-01 0.14343028E+04</pdfrwt>
<totfact> 0.49993368E+01</totfact>
</mgrwt>
</event>
<event>
12    6  0.1510140E-007  0.1522505E+04  0.7818608E-02  0.8869624E-01
         -1   -1    0    0    0  501 -0.00000000000E+00  0.00000000000E+00  0.26391336348E+03  0.26391336348E+03  0.00000000000E+00 0.  1.
          2   -1    0    0  501    0  0.00000000000E+00 -0.00000000000E+00 -0.21958175302E+04  0.21958175302E+04  0.00000000000E+00 0. -1.
         24    2    1    2    0    0 -0.10728311051E+03 -0.41172524412E+03 -0.10152707220E+04  0.11036169545E+04  0.78539167877E+02 0.  0.
        254    2    1    2    0    0  0.10728311051E+03  0.41172524412E+03 -0.91663344479E+03  0.13561139392E+04  0.90432339438E+03 0.  0.
         23    2    4    4    0    0  0.45967970335E+03  0.34468664426E+03 -0.75224971306E+03  0.95057223674E+03  0.87141460019E+02 0.  0.
         23    2    4    4    0    0 -0.35239659284E+03  0.67038599858E+02 -0.16438373173E+03  0.40554170249E+03  0.93619061560E+02 0.  0.
          4    1    3    3  502    0 -0.48567119637E+02 -0.30370231251E+03 -0.67346174936E+03  0.74036787315E+03  0.00000000000E+00 0. -1.
         -3    1    3    3    0  502 -0.58715990872E+02 -0.10802293161E+03 -0.34180897260E+03  0.36324908133E+03  0.00000000000E+00 0.  1.
         11    1    5    5    0    0  0.17946183020E+02 -0.18930733497E+01 -0.12840904091E+02  0.22148093136E+02  0.00000000000E+00 0.  1.
        -11    1    5    5    0    0  0.44173352033E+03  0.34657971761E+03 -0.73940880896E+03  0.92842414360E+03  0.00000000000E+00 0. -1.
          2    1    6    6  503    0 -0.25510104143E+03  0.90355669799E+02 -0.11701586418E+03  0.29484470637E+03  0.00000000000E+00 0. -1.
         -2    1    6    6    0  503 -0.97295551407E+02 -0.23317069941E+02 -0.47367867556E+02  0.11069699612E+03  0.00000000000E+00 0.  1.
<mgrwt>
<rscale>  0 0.15225053E+04</rscale>
<asrwt>0</asrwt>
<pdfrwt beam="1">  1        2 0.33781808E+00 0.15225053E+04</pdfrwt>
<pdfrwt beam="2">  1       -1 0.40602056E-01 0.15225053E+04</pdfrwt>
<totfact> 0.33834789E+01</totfact>
</mgrwt>
</event>
<event>
12    6  0.1510140E-007  0.1364644E+04  0.7818608E-02  0.8979816E-01
         -1   -1    0    0    0  501 -0.00000000000E+00  0.00000000000E+00  0.22685770694E+03  0.22685770694E+03  0.00000000000E+00 0.  1.
          2   -1    0    0  501    0  0.00000000000E+00 -0.00000000000E+00 -0.20522262887E+04  0.20522262887E+04  0.00000000000E+00 0. -1.
         24    2    1    2    0    0 -0.21657413276E+03 -0.29170621121E+03 -0.75294648909E+03  0.83975535796E+03  0.79144027880E+02 0.  0.
        254    2    1    2    0    0  0.21657413276E+03  0.29170621121E+03 -0.10724220927E+04  0.14393286377E+04  0.88858365603E+03 0.  0.
         23    2    4    4    0    0  0.53915151317E+03  0.29969006889E+03 -0.68210109672E+03  0.92470854151E+03  0.96568571799E+02 0.  0.
         23    2    4    4    0    0 -0.32257738041E+03 -0.79838576769E+01 -0.39032099595E+03  0.51462009616E+03  0.91451928160E+02 0.  0.
          4    1    3    3  502    0 -0.16652844220E+03 -0.18089705515E+03 -0.56133305514E+03  0.61282156083E+03  0.00000000000E+00 0. -1.
         -3    1    3    3    0  502 -0.50045690558E+02 -0.11080915606E+03 -0.19161343395E+03  0.22693379713E+03  0.00000000000E+00 0.  1.
         11    1    5    5    0    0  0.55028986775E+02  0.12967762502E+02 -0.32122750369E+02  0.65024790204E+02  0.00000000000E+00 0. -1.
        -11    1    5    5    0    0  0.48412252639E+03  0.28672230639E+03 -0.64997834635E+03  0.85968375131E+03  0.00000000000E+00 0.  1.
          2    1    6    6  503    0 -0.56233650463E+01 -0.38030265871E+01  0.46155075811E+01  0.82090289254E+01  0.00000000000E+00 0. -1.
         -2    1    6    6    0  503 -0.31695401536E+03 -0.41808310898E+01 -0.39493650353E+03  0.50641106724E+03  0.00000000000E+00 0.  1.
<mgrwt>
<rscale>  0 0.13646441E+04</rscale>
<asrwt>0</asrwt>
<pdfrwt beam="1">  1        2 0.31572711E+00 0.13646441E+04</pdfrwt>
<pdfrwt beam="2">  1       -1 0.34901187E-01 0.13646441E+04</pdfrwt>
<totfact> 0.54215122E+01</totfact>
</mgrwt>
</event>
<event>
12    6  0.1510140E-007  0.1195198E+04  0.7818608E-02  0.9117070E-01
          2   -1    0    0  501    0  0.00000000000E+00  0.00000000000E+00  0.38151763985E+03  0.38151763985E+03  0.00000000000E+00 0. -1.
         -1   -1    0    0    0  501 -0.00000000000E+00 -0.00000000000E+00 -0.93606242686E+03  0.93606242686E+03  0.00000000000E+00 0.  1.
         24    2    1    2    0    0  0.11954316540E+03  0.68407974382E+01  0.12374230491E+03  0.18987169317E+03  0.80010855139E+02 0.  0.
        254    2    1    2    0    0 -0.11954316540E+03 -0.68407974382E+01 -0.67828709192E+03  0.11277083735E+04  0.89292521064E+03 0.  0.
         23    2    4    4    0    0 -0.22734577390E+03  0.25747156531E+03 -0.74033078082E+03  0.82112260526E+03  0.90415485287E+02 0.  0.
         23    2    4    4    0    0  0.10780260850E+03 -0.26431236275E+03  0.62043688901E+02  0.30658576829E+03  0.93075165768E+02 0.  0.
          2    1    3    3  502    0  0.11335125189E+03 -0.60189823814E+01  0.67976833059E+02  0.13230867049E+03  0.00000000000E+00 0. -1.
         -1    1    3    3    0  502  0.61919135139E+01  0.12859779820E+02  0.55765471851E+02  0.57563022686E+02  0.00000000000E+00 0.  1.
         11    1    5    5    0    0 -0.87985302163E+02  0.10059314696E+03 -0.19130051970E+03  0.23335870125E+03  0.00000000000E+00 0.  1.
        -11    1    5    5    0    0 -0.13936047174E+03  0.15687841835E+03 -0.54903026112E+03  0.58776390400E+03  0.00000000000E+00 0. -1.
          2    1    6    6  503    0  0.41279418445E+02 -0.76385105354E+02  0.62925152259E+02  0.10722989086E+03  0.00000000000E+00 0. -1.
         -2    1    6    6    0  503  0.66523190055E+02 -0.18792725740E+03 -0.88146335812E+00  0.19935587743E+03  0.00000000000E+00 0.  1.
<mgrwt>
<rscale>  0 0.11951976E+04</rscale>
<asrwt>0</asrwt>
<pdfrwt beam="1">  1        2 0.58695023E-01 0.11951976E+04</pdfrwt>
<pdfrwt beam="2">  1       -1 0.14400960E+00 0.11951976E+04</pdfrwt>
<totfact> 0.36881934E+01</totfact>
</mgrwt>
</event>
<event>
12    6  0.1510140E-007  0.1370062E+04  0.7818608E-02  0.8975779E-01
         -1   -1    0    0    0  501 -0.00000000000E+00  0.00000000000E+00  0.14009770848E+03  0.14009770848E+03  0.00000000000E+00 0.  1.
          2   -1    0    0  501    0  0.00000000000E+00 -0.00000000000E+00 -0.33495722329E+04  0.33495722329E+04  0.00000000000E+00 0. -1.
         24    2    1    2    0    0  0.20115340637E+01  0.36416766517E+03 -0.13962068127E+04  0.14450609794E+04  0.78648812643E+02 0.  0.
        254    2    1    2    0    0 -0.20115340637E+01 -0.36416766517E+03 -0.18132677117E+04  0.20446089619E+04  0.87170171410E+03 0.  0.
         23    2    4    4    0    0  0.36371246034E+03 -0.41426326623E+03 -0.96727916256E+03  0.11174334973E+04  0.95539703568E+02 0.  0.
         23    2    4    4    0    0 -0.36572399440E+03  0.50095601063E+02 -0.84598854913E+03  0.92717546467E+03  0.87716062898E+02 0.  0.
          4    1    3    3  502    0  0.77307711380E+01  0.33824913450E+03 -0.13502133402E+04  0.13919584425E+04  0.00000000000E+00 0. -1.
         -3    1    3    3    0  502 -0.57192370743E+01  0.25918530673E+02 -0.45993472557E+02  0.53102536878E+02  0.00000000000E+00 0.  1.
         11    1    5    5    0    0  0.31397091618E+03 -0.30405521908E+03 -0.79003384027E+03  0.90287362418E+03  0.00000000000E+00 0.  1.
        -11    1    5    5    0    0  0.49741544162E+02 -0.11020804715E+03 -0.17724532229E+03  0.21455987310E+03  0.00000000000E+00 0. -1.
          2    1    6    6  503    0 -0.86265758654E+02 -0.24756776531E+02 -0.18353879440E+03  0.20430655435E+03  0.00000000000E+00 0. -1.
         -2    1    6    6    0  503 -0.27945823575E+03  0.74852377594E+02 -0.66244975473E+03  0.72286891032E+03  0.00000000000E+00 0.  1.
<mgrwt>
<rscale>  0 0.13700619E+04</rscale>
<asrwt>0</asrwt>
<pdfrwt beam="1">  1        2 0.51531881E+00 0.13700619E+04</pdfrwt>
<pdfrwt beam="2">  1       -1 0.21553493E-01 0.13700619E+04</pdfrwt>
<totfact> 0.20988488E+01</totfact>
</mgrwt>
</event>
<event>
12    6  0.1510140E-007  0.1579821E+04  0.7818608E-02  0.8833041E-01
          2   -1    0    0  501    0  0.00000000000E+00  0.00000000000E+00  0.60343853908E+03  0.60343853908E+03  0.00000000000E+00 0. -1.
         -1   -1    0    0    0  501 -0.00000000000E+00 -0.00000000000E+00 -0.10340053141E+04  0.10340053141E+04  0.00000000000E+00 0.  1.
         24    2    1    2    0    0 -0.47306702767E+03 -0.23348475066E+03 -0.17242216952E+03  0.56076678693E+03  0.80140147958E+02 0.  0.
        254    2    1    2    0    0  0.47306702767E+03  0.23348475066E+03 -0.25814460547E+03  0.10766770662E+04  0.90237870439E+03 0.  0.
         23    2    4    4    0    0  0.18321823289E+03 -0.47695846082E+02  0.30953799989E+03  0.37418855829E+03  0.91430242188E+02 0.  0.
         23    2    4    4    0    0  0.28984879478E+03  0.28118059674E+03 -0.56768260536E+03  0.70248850793E+03  0.90286829181E+02 0.  0.
          2    1    3    3  502    0 -0.46926392906E+02 -0.30176662261E+02  0.58066743813E+01  0.56093090161E+02  0.00000000000E+00 0. -1.
         -1    1    3    3    0  502 -0.42614063477E+03 -0.20330808840E+03 -0.17822884390E+03  0.50467369677E+03  0.00000000000E+00 0.  1.
         11    1    5    5    0    0  0.12650993397E+03 -0.75187553109E+02  0.22074351785E+03  0.26530290653E+03  0.00000000000E+00 0.  1.
        -11    1    5    5    0    0  0.56708298918E+02  0.27491707027E+02  0.88794482034E+02  0.10888565177E+03  0.00000000000E+00 0. -1.
          3    1    6    6  503    0  0.15062728471E+03  0.98664678606E+02 -0.29966357711E+03  0.34960199821E+03  0.00000000000E+00 0. -1.
         -3    1    6    6    0  503  0.13922151007E+03  0.18251591814E+03 -0.26801902825E+03  0.35288650972E+03  0.00000000000E+00 0.  1.
<mgrwt>
<rscale>  0 0.15798211E+04</rscale>
<asrwt>0</asrwt>
<pdfrwt beam="1">  1        2 0.92836699E-01 0.15798211E+04</pdfrwt>
<pdfrwt beam="2">  1       -1 0.15907774E+00 0.15798211E+04</pdfrwt>
<totfact> 0.16051559E+01</totfact>
</mgrwt>
</event>
<event>
12    6  0.1510140E-007  0.2006020E+04  0.7818608E-02  0.8603811E-01
         -1   -1    0    0    0  501 -0.00000000000E+00  0.00000000000E+00  0.88809341412E+03  0.88809341412E+03  0.00000000000E+00 0.  1.
          2   -1    0    0  501    0  0.00000000000E+00 -0.00000000000E+00 -0.11327969038E+04  0.11327969038E+04  0.00000000000E+00 0. -1.
         24    2    1    2    0    0  0.66960802166E+03  0.33694936659E+03  0.13637732081E+03  0.76543827704E+03  0.73397574964E+02 0.  0.
        254    2    1    2    0    0 -0.66960802166E+03 -0.33694936659E+03 -0.38108081048E+03  0.12554520409E+04  0.93221642580E+03 0.  0.
         23    2    4    4    0    0  0.20508444250E+03 -0.15823312012E+02  0.38900195470E+02  0.22909045640E+03  0.93054856112E+02 0.  0.
         23    2    4    4    0    0 -0.87469246416E+03 -0.32112605458E+03 -0.41998100595E+03  0.10263615845E+04  0.93942572610E+02 0.  0.
          4    1    3    3  502    0  0.24520667116E+02  0.87941840356E+00  0.12669050081E+02  0.27614150766E+02  0.00000000000E+00 0. -1.
         -3    1    3    3    0  502  0.64508735454E+03  0.33606994819E+03  0.12370827072E+03  0.73782412627E+03  0.00000000000E+00 0.  1.
         11    1    5    5    0    0  0.21513781704E+03 -0.15500127270E+02  0.36729826008E+02  0.21880039850E+03  0.00000000000E+00 0.  1.
        -11    1    5    5    0    0 -0.10053374536E+02 -0.32318474151E+00  0.21703694620E+01  0.10290057898E+02  0.00000000000E+00 0. -1.
          3    1    6    6  503    0 -0.57524650343E+03 -0.18673743432E+03 -0.31403003399E+03  0.68146479831E+03  0.00000000000E+00 0. -1.
         -3    1    6    6    0  503 -0.29944596073E+03 -0.13438862026E+03 -0.10595097197E+03  0.34489678618E+03  0.00000000000E+00 0.  1.
<mgrwt>
<rscale>  0 0.20060204E+04</rscale>
<asrwt>0</asrwt>
<pdfrwt beam="1">  1        2 0.17427645E+00 0.20060204E+04</pdfrwt>
<pdfrwt beam="2">  1       -1 0.13662976E+00 0.20060204E+04</pdfrwt>
<totfact> 0.98373919E+00</totfact>
</mgrwt>
</event>
<event>
12    6  0.1510140E-007  0.1990927E+04  0.7818608E-02  0.8610874E-01
          2   -1    0    0  501    0  0.00000000000E+00  0.00000000000E+00  0.98286395867E+03  0.98286395867E+03  0.00000000000E+00 0. -1.
         -1   -1    0    0    0  501 -0.00000000000E+00 -0.00000000000E+00 -0.10082248993E+04  0.10082248993E+04  0.00000000000E+00 0.  1.
         24    2    1    2    0    0 -0.51024555845E+03 -0.10068498022E+03 -0.60498053417E+03  0.80189260352E+03  0.80884520731E+02 0.  0.
        254    2    1    2    0    0  0.51024555845E+03  0.10068498022E+03  0.57961959359E+03  0.11891962544E+04  0.89874404759E+03 0.  0.
         23    2    4    4    0    0  0.66573835340E+03 -0.57886678286E+02  0.65246064713E+03  0.93818492372E+03  0.89037252498E+02 0.  0.
         23    2    4    4    0    0 -0.15549279496E+03  0.15857165850E+03 -0.72841053536E+02  0.25101133070E+03  0.91530808437E+02 0.  0.
          4    1    3    3  502    0 -0.82816368276E+02  0.16710178062E+01 -0.62822833517E+02  0.10396177935E+03  0.00000000000E+00 0. -1.
         -3    1    3    3    0  502 -0.42742919017E+03 -0.10235599802E+03 -0.54215770065E+03  0.69793082416E+03  0.00000000000E+00 0.  1.
         11    1    5    5    0    0  0.64057980625E+03 -0.38894077602E+02  0.63129435609E+03  0.90021541949E+03  0.00000000000E+00 0. -1.
        -11    1    5    5    0    0  0.25158547150E+02 -0.18992600684E+02  0.21166291037E+02  0.37969504233E+02  0.00000000000E+00 0.  1.
          3    1    6    6  503    0 -0.16469633608E+03  0.14020258200E+03 -0.53533419855E+02  0.22281713166E+03  0.00000000000E+00 0. -1.
         -3    1    6    6    0  503  0.92035411289E+01  0.18369076507E+02 -0.19307633682E+02  0.28194199039E+02  0.00000000000E+00 0.  1.
<mgrwt>
<rscale>  0 0.19909273E+04</rscale>
<asrwt>0</asrwt>
<pdfrwt beam="1">  1        2 0.15120984E+00 0.19909273E+04</pdfrwt>
<pdfrwt beam="2">  1       -1 0.15511152E+00 0.19909273E+04</pdfrwt>
<totfact> 0.87288068E+00</totfact>
</mgrwt>
</event>
<event>
12    6  0.1510140E-007  0.1645606E+04  0.7818608E-02  0.8793010E-01
         -1   -1    0    0    0  501 -0.00000000000E+00  0.00000000000E+00  0.98249574104E+03  0.98249574104E+03  0.00000000000E+00 0.  1.
          2   -1    0    0  501    0  0.00000000000E+00 -0.00000000000E+00 -0.68906674827E+03  0.68906674827E+03  0.00000000000E+00 0. -1.
         24    2    1    2    0    0 -0.54218829305E+03  0.13218365512E+03 -0.33523912808E+02  0.56432521062E+03  0.76801216230E+02 0.  0.
        254    2    1    2    0    0  0.54218829305E+03 -0.13218365512E+03  0.32695290558E+03  0.11072372787E+04  0.89868544277E+03 0.  0.
         23    2    4    4    0    0  0.37055090258E+03 -0.50664347917E+03  0.15640476777E+03  0.65340265849E+03  0.92070605265E+02 0.  0.
         23    2    4    4    0    0  0.17163739047E+03  0.37445982406E+03  0.17054813781E+03  0.45383462019E+03  0.84850701437E+02 0.  0.
          4    1    3    3  502    0 -0.29740788461E+03  0.56134173223E+02  0.16739051798E+02  0.30312157806E+03  0.00000000000E+00 0. -1.
         -3    1    3    3    0  502 -0.24478040844E+03  0.76049481893E+02 -0.50262964606E+02  0.26120363256E+03  0.00000000000E+00 0.  1.
         11    1    5    5    0    0  0.17787120893E+03 -0.17433839298E+03  0.81370727773E+02  0.26201762836E+03  0.00000000000E+00 0. -1.
        -11    1    5    5    0    0  0.19267969366E+03 -0.33230508619E+03  0.75034039996E+02  0.39138503014E+03  0.00000000000E+00 0.  1.
          2    1    6    6  503    0  0.18102258249E+03  0.35011461282E+03  0.16421941999E+03  0.42698645808E+03  0.00000000000E+00 0.  1.
         -2    1    6    6    0  503 -0.93851920247E+01  0.24345211239E+02  0.63287178257E+01  0.26848162114E+02  0.00000000000E+00 0. -1.
<mgrwt>
<rscale>  0 0.16456064E+04</rscale>
<asrwt>0</asrwt>
<pdfrwt beam="1">  1        2 0.10601027E+00 0.16456064E+04</pdfrwt>
<pdfrwt beam="2">  1       -1 0.15115319E+00 0.16456064E+04</pdfrwt>
<totfact> 0.15590013E+01</totfact>
</mgrwt>
</event>
<event>
12    6  0.1510140E-007  0.1286495E+04  0.7818608E-02  0.9040344E-01
          2   -1    0    0  501    0  0.00000000000E+00  0.00000000000E+00  0.14360475622E+04  0.14360475622E+04  0.00000000000E+00 0. -1.
         -1   -1    0    0    0  501 -0.00000000000E+00 -0.00000000000E+00 -0.28812914128E+03  0.28812914128E+03  0.00000000000E+00 0.  1.
         24    2    1    2    0    0 -0.14736261340E+03 -0.39223656273E+02 -0.76312454503E+02  0.18903757995E+03  0.81592774692E+02 0.  0.
        254    2    1    2    0    0  0.14736261340E+03  0.39223656273E+02  0.12242308755E+04  0.15351391236E+04  0.91359545602E+03 0.  0.
         23    2    4    4    0    0  0.45692273538E+02 -0.36718178754E+03  0.21346591737E+03  0.43673169761E+03  0.90865993934E+02 0.  0.
         23    2    4    4    0    0  0.10167033986E+03  0.40640544381E+03  0.10107649581E+04  0.10984074260E+04  0.96699690546E+02 0.  0.
          4    1    3    3  502    0 -0.88832463846E+02 -0.35527511467E+02 -0.37616330148E+01  0.95747379008E+02  0.00000000000E+00 0. -1.
         -3    1    3    3    0  502 -0.58530149550E+02 -0.36961448054E+01 -0.72550821488E+02  0.93290200940E+02  0.00000000000E+00 0.  1.
         11    1    5    5    0    0 -0.18078709334E+02 -0.31425845411E+02  0.38150823350E+02  0.52629923174E+02  0.00000000000E+00 0. -1.
        -11    1    5    5    0    0  0.63770982872E+02 -0.33575594213E+03  0.17531509402E+03  0.38410177443E+03  0.00000000000E+00 0.  1.
          3    1    6    6  503    0  0.50531055353E+02  0.11998328696E+03  0.21773133763E+03  0.25368545897E+03  0.00000000000E+00 0. -1.
         -3    1    6    6    0  503  0.51139284505E+02  0.28642215685E+03  0.79303362046E+03  0.84472196700E+03  0.00000000000E+00 0.  1.
<mgrwt>
<rscale>  0 0.12864947E+04</rscale>
<asrwt>0</asrwt>
<pdfrwt beam="1">  1        2 0.22093039E+00 0.12864947E+04</pdfrwt>
<pdfrwt beam="2">  1       -1 0.44327561E-01 0.12864947E+04</pdfrwt>
<totfact> 0.77690622E+01</totfact>
</mgrwt>
</event>
<event>
12    6  0.1552385E-007  0.2183612E+04  0.7818608E-02  0.8525280E-01
          2   -1    0    0  501    0  0.00000000000E+00  0.00000000000E+00  0.25293532201E+04  0.25293532201E+04  0.00000000000E+00 0. -1.
         -1   -1    0    0    0  501 -0.00000000000E+00 -0.00000000000E+00 -0.47128250599E+03  0.47128250599E+03  0.00000000000E+00 0.  1.
         24    2    1    2    0    0  0.53237987590E+03  0.49966660915E+03  0.12327367843E+03  0.74479874075E+03  0.80210422367E+02 0.  0.
        254    2    1    2    0    0 -0.53237987590E+03 -0.49966660915E+03  0.19347970356E+04  0.22558369853E+04  0.90125794452E+03 0.  0.
         23    2    4    4    0    0 -0.17981592571E+03  0.42495912473E+02 -0.70969968909E+01  0.20692999433E+03  0.92897715100E+02 0.  0.
         23    2    4    4    0    0 -0.35256395019E+03 -0.54216252163E+03  0.19418940325E+04  0.20489069910E+04  0.93946182748E+02 0.  0.
          2    1    3    3  502    0  0.13104890132E+03  0.15044728018E+03  0.63880054610E+02  0.20949668262E+03  0.00000000000E+00 0. -1.
         -1    1    3    3    0  502  0.40133097458E+03  0.34921932898E+03  0.59393623816E+02  0.53530205813E+03  0.00000000000E+00 0.  1.
         11    1    5    5    0    0 -0.83392372315E+01 -0.16382283979E+02  0.15731534077E+02  0.24195108397E+02  0.00000000000E+00 0. -1.
        -11    1    5    5    0    0 -0.17147668848E+03  0.58878196452E+02 -0.22828530968E+02  0.18273488593E+03  0.00000000000E+00 0.  1.
          4    1    6    6  503    0 -0.14830823263E+03 -0.21385884416E+03  0.64259941488E+03  0.69330003973E+03  0.00000000000E+00 0.  1.
         -4    1    6    6    0  503 -0.20425571756E+03 -0.32830367747E+03  0.12992946177E+04  0.13556069512E+04  0.00000000000E+00 0. -1.
<mgrwt>
<rscale>  0 0.21836116E+04</rscale>
<asrwt>0</asrwt>
<pdfrwt beam="1">  1        2 0.38913126E+00 0.21836116E+04</pdfrwt>
<pdfrwt beam="2">  1       -1 0.72505003E-01 0.21836116E+04</pdfrwt>
<totfact> 0.66897803E+00</totfact>
</mgrwt>
</event>
<event>
12    6  0.1510140E-007  0.2496314E+04  0.7818608E-02  0.8404300E-01
         -1   -1    0    0    0  501 -0.00000000000E+00  0.00000000000E+00  0.18390698118E+04  0.18390698118E+04  0.00000000000E+00 0.  1.
          2   -1    0    0  501    0  0.00000000000E+00 -0.00000000000E+00 -0.84711049999E+03  0.84711049999E+03  0.00000000000E+00 0. -1.
         24    2    1    2    0    0 -0.86957894537E+03  0.25525540933E+03  0.10553459733E+04  0.13932096122E+04  0.77168867099E+02 0.  0.
        254    2    1    2    0    0  0.86957894537E+03 -0.25525540933E+03 -0.63386661533E+02  0.12929706995E+04  0.92001765999E+03 0.  0.
         23    2    4    4    0    0  0.14213717792E+03 -0.39686980595E+03  0.23140839342E+03  0.49003541466E+03  0.94213814562E+02 0.  0.
         23    2    4    4    0    0  0.72744176745E+03  0.14161439662E+03 -0.29479505495E+03  0.80293528485E+03  0.92600134299E+02 0.  0.
          4    1    3    3  502    0 -0.20060794527E+03  0.91375232827E+02  0.27284944729E+03  0.35077029772E+03  0.00000000000E+00 0. -1.
         -3    1    3    3    0  502 -0.66897100010E+03  0.16388017650E+03  0.78249652602E+03  0.10424393145E+04  0.00000000000E+00 0.  1.
         11    1    5    5    0    0 -0.99624561622E+01 -0.76511304284E+02  0.36210084900E+02  0.85231452320E+02  0.00000000000E+00 0.  1.
        -11    1    5    5    0    0  0.15209963408E+03 -0.32035850166E+03  0.19519830852E+03  0.40480396234E+03  0.00000000000E+00 0. -1.
          3    1    6    6  503    0  0.60209397539E+03  0.97581693079E+02 -0.20890624902E+03  0.64473340452E+03  0.00000000000E+00 0. -1.
         -3    1    6    6    0  503  0.12534779206E+03  0.44032703541E+02 -0.85888805930E+02  0.15820188033E+03  0.00000000000E+00 0.  1.
<mgrwt>
<rscale>  0 0.24963136E+04</rscale>
<asrwt>0</asrwt>
<pdfrwt beam="1">  1        2 0.13032469E+00 0.24963136E+04</pdfrwt>
<pdfrwt beam="2">  1       -1 0.28293381E+00 0.24963136E+04</pdfrwt>
<totfact> 0.13822106E+00</totfact>
</mgrwt>
</event>
<event>
12    6  0.1510140E-007  0.1303603E+04  0.7818608E-02  0.9026713E-01
          2   -1    0    0  501    0  0.00000000000E+00  0.00000000000E+00  0.83047128996E+03  0.83047128996E+03  0.00000000000E+00 0. -1.
         -1   -1    0    0    0  501 -0.00000000000E+00 -0.00000000000E+00 -0.51157081353E+03  0.51157081353E+03  0.00000000000E+00 0.  1.
         24    2    1    2    0    0 -0.24223346474E+02 -0.17475341357E+03  0.39206128617E+03  0.43741282951E+03  0.80575463015E+02 0.  0.
        254    2    1    2    0    0  0.24223346474E+02  0.17475341357E+03 -0.73160809744E+02  0.90462927398E+03  0.88423757735E+03 0.  0.
         23    2    4    4    0    0 -0.33525579423E+03  0.24918613484E+03  0.16411156664E+03  0.45796313530E+03  0.91145211746E+02 0.  0.
         23    2    4    4    0    0  0.35947914071E+03 -0.74432721276E+02 -0.23727237639E+03  0.44666613868E+03  0.91907433038E+02 0.  0.
          4    1    3    3  502    0 -0.66213316110E+01 -0.13824930877E+03  0.36015260508E+03  0.38583236302E+03  0.00000000000E+00 0. -1.
         -3    1    3    3    0  502 -0.17602014863E+02 -0.36504104800E+02  0.31908681085E+02  0.51580466488E+02  0.00000000000E+00 0.  1.
         11    1    5    5    0    0 -0.11737870749E+03  0.12144004774E+03  0.10398527963E+03  0.19833906460E+03  0.00000000000E+00 0.  1.
        -11    1    5    5    0    0 -0.21787708674E+03  0.12774608710E+03  0.60126287015E+02  0.25962407070E+03  0.00000000000E+00 0. -1.
          3    1    6    6  503    0  0.35994987197E+03 -0.61668768534E+02 -0.23302334453E+03  0.43320529364E+03  0.00000000000E+00 0. -1.
         -3    1    6    6    0  503 -0.47073125883E+00 -0.12763952743E+02 -0.42490318595E+01  0.13460845043E+02  0.00000000000E+00 0.  1.
<mgrwt>
<rscale>  0 0.13036025E+04</rscale>
<asrwt>0</asrwt>
<pdfrwt beam="1">  1        2 0.12776481E+00 0.13036025E+04</pdfrwt>
<pdfrwt beam="2">  1       -1 0.78703202E-01 0.13036025E+04</pdfrwt>
<totfact> 0.59208494E+01</totfact>
</mgrwt>
</event>
<event>
12    6  0.1510140E-007  0.1256556E+04  0.7818608E-02  0.9064744E-01
         -1   -1    0    0    0  501 -0.00000000000E+00  0.00000000000E+00  0.11887758178E+03  0.11887758178E+03  0.00000000000E+00 0.  1.
          2   -1    0    0  501    0  0.00000000000E+00 -0.00000000000E+00 -0.33205039433E+04  0.33205039433E+04  0.00000000000E+00 0. -1.
         24    2    1    2    0    0  0.90612544783E+02  0.96247602070E+02 -0.50630873853E+02  0.16090335428E+03  0.76499476172E+02 0.  0.
        254    2    1    2    0    0 -0.90612544783E+02 -0.96247602070E+02 -0.31509954877E+04  0.32784781708E+04  0.89564073094E+03 0.  0.
         23    2    4    4    0    0 -0.80776684086E+02 -0.32089300631E+03 -0.44778797732E+03  0.56436470149E+03  0.92175102196E+02 0.  0.
         23    2    4    4    0    0 -0.98358606964E+01  0.22464540424E+03 -0.27032075104E+04  0.27141134693E+04  0.92297228984E+02 0.  0.
          4    1    3    3  502    0  0.22318351892E+02  0.18379003540E+02 -0.49497720949E+02  0.57322953356E+02  0.00000000000E+00 0. -1.
         -3    1    3    3    0  502  0.68294192891E+02  0.77868598530E+02 -0.11331529040E+01  0.10358040092E+03  0.00000000000E+00 0.  1.
         11    1    5    5    0    0 -0.34540370940E+02 -0.26521527522E+03 -0.31580931557E+03  0.41384502321E+03  0.00000000000E+00 0.  1.
        -11    1    5    5    0    0 -0.46236313147E+02 -0.55677731092E+02 -0.13197866174E+03  0.15051967828E+03  0.00000000000E+00 0. -1.
          2    1    6    6  503    0 -0.18730091354E+02  0.73192467350E+01 -0.11182890342E+03  0.11362258286E+03  0.00000000000E+00 0. -1.
         -2    1    6    6    0  503  0.88942306579E+01  0.21732615750E+03 -0.25913786070E+04  0.26004908865E+04  0.00000000000E+00 0.  1.
<mgrwt>
<rscale>  0 0.12565564E+04</rscale>
<asrwt>0</asrwt>
<pdfrwt beam="1">  1        2 0.51084678E+00 0.12565564E+04</pdfrwt>
<pdfrwt beam="2">  1       -1 0.18288858E-01 0.12565564E+04</pdfrwt>
<totfact> 0.29238776E+01</totfact>
</mgrwt>
</event>
<event>
12    6  0.1510140E-007  0.1252083E+04  0.7818608E-02  0.9068452E-01
         -1   -1    0    0    0  501 -0.00000000000E+00  0.00000000000E+00  0.29389860249E+03  0.29389860249E+03  0.00000000000E+00 0.  1.
          2   -1    0    0  501    0  0.00000000000E+00 -0.00000000000E+00 -0.13335478021E+04  0.13335478021E+04  0.00000000000E+00 0. -1.
         24    2    1    2    0    0  0.37157452900E+02 -0.11618923560E+02 -0.63670603503E+03  0.64273406173E+03  0.78719904519E+02 0.  0.
        254    2    1    2    0    0 -0.37157452900E+02  0.11618923560E+02 -0.40294316459E+03  0.98471234288E+03  0.89765223145E+03 0.  0.
         23    2    4    4    0    0 -0.19663619127E+03 -0.38322796047E+03 -0.99367526631E+02  0.45241351547E+03  0.96304840107E+02 0.  0.
         23    2    4    4    0    0  0.15947873837E+03  0.39484688403E+03 -0.30357563796E+03  0.53229882741E+03  0.99228745234E+02 0.  0.
          2    1    3    3  502    0  0.39698958058E+02 -0.17025759177E+02 -0.63507325491E+03  0.63654059010E+03  0.00000000000E+00 0. -1.
         -1    1    3    3    0  502 -0.25415051581E+01  0.54068356167E+01 -0.16327801242E+01  0.61934716265E+01  0.00000000000E+00 0.  1.
         11    1    5    5    0    0 -0.88725028100E+02 -0.97664330837E+02 -0.58799658355E+02  0.14445709381E+03  0.00000000000E+00 0. -1.
        -11    1    5    5    0    0 -0.10791116317E+03 -0.28556362963E+03 -0.40567868276E+02  0.30795642166E+03  0.00000000000E+00 0.  1.
          2    1    6    6  503    0 -0.44445763902E+01  0.42224746907E+02 -0.59813871920E+02  0.73351092594E+02  0.00000000000E+00 0. -1.
         -2    1    6    6    0  503  0.16392331476E+03  0.35262213712E+03 -0.24376176603E+03  0.45894773481E+03  0.00000000000E+00 0.  1.
<mgrwt>
<rscale>  0 0.12520828E+04</rscale>
<asrwt>0</asrwt>
<pdfrwt beam="1">  1        2 0.20516120E+00 0.12520828E+04</pdfrwt>
<pdfrwt beam="2">  1       -1 0.45215170E-01 0.12520828E+04</pdfrwt>
<totfact> 0.85947091E+01</totfact>
</mgrwt>
</event>
<event>
12    6  0.1510140E-007  0.2538068E+04  0.7818608E-02  0.8389548E-01
          2   -1    0    0  501    0  0.00000000000E+00  0.00000000000E+00  0.18601564966E+04  0.18601564966E+04  0.00000000000E+00 0. -1.
         -1   -1    0    0    0  501 -0.00000000000E+00 -0.00000000000E+00 -0.86575909279E+03  0.86575909279E+03  0.00000000000E+00 0.  1.
         24    2    1    2    0    0  0.84664984378E+03 -0.99680671811E+02  0.11949013353E+04  0.14699953680E+04  0.79655423543E+02 0.  0.
        254    2    1    2    0    0 -0.84664984378E+03  0.99680671811E+02 -0.20050393147E+03  0.12559202214E+04  0.90021196487E+03 0.  0.
         23    2    4    4    0    0 -0.29121873336E+03 -0.28485037813E+03  0.20281126588E+03  0.46409512260E+03  0.91125104465E+02 0.  0.
         23    2    4    4    0    0 -0.55543111042E+03  0.38453104994E+03 -0.40331519736E+03  0.79182509881E+03  0.89196367063E+02 0.  0.
          4    1    3    3  502    0  0.71213887260E+03 -0.99028120028E+02  0.96132348338E+03  0.12004545731E+04  0.00000000000E+00 0. -1.
         -3    1    3    3    0  502  0.13451097118E+03 -0.65255178255E+00  0.23357785191E+03  0.26954079486E+03  0.00000000000E+00 0.  1.
         11    1    5    5    0    0 -0.27203972258E+03 -0.26999612639E+03  0.16092808069E+03  0.41569383696E+03  0.00000000000E+00 0.  1.
        -11    1    5    5    0    0 -0.19179010780E+02 -0.14854251739E+02  0.41883185197E+02  0.48401285638E+02  0.00000000000E+00 0. -1.
          3    1    6    6  503    0 -0.53425982335E+02  0.53981476016E+02 -0.75901983243E+02  0.10737525973E+03  0.00000000000E+00 0. -1.
         -3    1    6    6    0  503 -0.50200512808E+03  0.33054957393E+03 -0.32741321411E+03  0.68444983908E+03  0.00000000000E+00 0.  1.
<mgrwt>
<rscale>  0 0.25380681E+04</rscale>
<asrwt>0</asrwt>
<pdfrwt beam="1">  1        2 0.28617792E+00 0.25380681E+04</pdfrwt>
<pdfrwt beam="2">  1       -1 0.13319371E+00 0.25380681E+04</pdfrwt>
<totfact> 0.38550534E+00</totfact>
</mgrwt>
</event>
<event>
12    6  0.1510140E-007  0.2224236E+04  0.7818608E-02  0.8508408E-01
         -1   -1    0    0    0  501 -0.00000000000E+00  0.00000000000E+00  0.78014839849E+03  0.78014839849E+03  0.00000000000E+00 0.  1.
          2   -1    0    0  501    0  0.00000000000E+00 -0.00000000000E+00 -0.15853477628E+04  0.15853477628E+04  0.00000000000E+00 0. -1.
         24    2    1    2    0    0  0.13744532815E+03 -0.58444595561E+03  0.41824927629E+03  0.73596996088E+03  0.79063474154E+02 0.  0.
        254    2    1    2    0    0 -0.13744532815E+03  0.58444595561E+03 -0.12234486406E+04  0.16295262004E+04  0.89334246983E+03 0.  0.
         23    2    4    4    0    0  0.19504803911E+03  0.52269688698E+03 -0.29608197248E+03  0.63841212530E+03  0.93003946614E+02 0.  0.
         23    2    4    4    0    0 -0.33249336726E+03  0.61749068634E+02 -0.92736666813E+03  0.99111407512E+03  0.89069557078E+02 0.  0.
          4    1    3    3  502    0 -0.63452957396E+01 -0.95348434694E+02  0.58923750484E+02  0.11226573452E+03  0.00000000000E+00 0. -1.
         -3    1    3    3    0  502  0.14379062389E+03 -0.48909752092E+03  0.35932552580E+03  0.62370422636E+03  0.00000000000E+00 0.  1.
         11    1    5    5    0    0  0.88986791462E+02  0.12137294214E+03 -0.78482371674E+02  0.16973368199E+03  0.00000000000E+00 0. -1.
        -11    1    5    5    0    0  0.10606124765E+03  0.40132394484E+03 -0.21759960081E+03  0.46867844331E+03  0.00000000000E+00 0.  1.
          1    1    6    6  503    0 -0.53341050377E+02 -0.74911450522E+01 -0.24057988342E+03  0.24653613369E+03  0.00000000000E+00 0. -1.
         -1    1    6    6    0  503 -0.27915231688E+03  0.69240213686E+02 -0.68678678472E+03  0.74457794144E+03  0.00000000000E+00 0.  1.
<mgrwt>
<rscale>  0 0.22242361E+04</rscale>
<asrwt>0</asrwt>
<pdfrwt beam="1">  1        2 0.24389965E+00 0.22242361E+04</pdfrwt>
<pdfrwt beam="2">  1       -1 0.12002283E+00 0.22242361E+04</pdfrwt>
<totfact> 0.73069338E+00</totfact>
</mgrwt>
</event>
<event>
12    6  0.1510140E-007  0.1675351E+04  0.7818608E-02  0.8775549E-01
          2   -1    0    0  501    0  0.00000000000E+00  0.00000000000E+00  0.10531400895E+04  0.10531400895E+04  0.00000000000E+00 0. -1.
         -1   -1    0    0    0  501 -0.00000000000E+00 -0.00000000000E+00 -0.66629301626E+03  0.66629301626E+03  0.00000000000E+00 0.  1.
         24    2    1    2    0    0  0.13686093730E+03 -0.24742452220E+03 -0.39823916570E+03  0.49502443419E+03  0.80653251667E+02 0.  0.
        254    2    1    2    0    0 -0.13686093730E+03  0.24742452220E+03  0.78508623895E+03  0.12244086716E+04  0.89602811456E+03 0.  0.
         23    2    4    4    0    0  0.23621643018E+03 -0.21062066342E+03  0.37663788949E+03  0.50033422874E+03  0.91208414668E+02 0.  0.
         23    2    4    4    0    0 -0.37307736747E+03  0.45804518562E+03  0.40844834945E+03  0.72407444282E+03  0.91987120767E+02 0.  0.
          2    1    3    3  502    0 -0.61797493604E+01 -0.52898569044E+01 -0.83474876631E+00  0.81773280312E+01  0.00000000000E+00 0. -1.
         -3    1    3    3    0  502  0.14304068666E+03 -0.24213466530E+03 -0.39740441694E+03  0.48684710616E+03  0.00000000000E+00 0.  1.
         11    1    5    5    0    0 -0.35637559944E+01  0.33705929845E+01 -0.38727617053E+00  0.49204915087E+01  0.00000000000E+00 0.  1.
        -11    1    5    5    0    0  0.23978018617E+03 -0.21399125640E+03  0.37702516566E+03  0.49541373724E+03  0.00000000000E+00 0. -1.
          4    1    6    6  503    0 -0.22700178384E+03  0.26872155210E+03  0.18808283994E+03  0.39889376670E+03  0.00000000000E+00 0. -1.
         -4    1    6    6    0  503 -0.14607558363E+03  0.18932363352E+03  0.22036550951E+03  0.32518067612E+03  0.00000000000E+00 0.  1.
<mgrwt>
<rscale>  0 0.16753506E+04</rscale>
<asrwt>0</asrwt>
<pdfrwt beam="1">  1        2 0.16202155E+00 0.16753506E+04</pdfrwt>
<pdfrwt beam="2">  1       -1 0.10250662E+00 0.16753506E+04</pdfrwt>
<totfact> 0.22818796E+01</totfact>
</mgrwt>
</event>
<event>
12    6  0.1510140E-007  0.1116241E+04  0.7818608E-02  0.9189505E-01
         -1   -1    0    0    0  501 -0.00000000000E+00  0.00000000000E+00  0.56933051919E+03  0.56933051919E+03  0.00000000000E+00 0.  1.
          2   -1    0    0  501    0  0.00000000000E+00 -0.00000000000E+00 -0.54713131252E+03  0.54713131252E+03  0.00000000000E+00 0. -1.
         24    2    1    2    0    0 -0.24077313171E+01  0.15323225783E+03  0.97221166833E+02  0.19882670581E+03  0.81204566717E+02 0.  0.
        254    2    1    2    0    0  0.24077313171E+01 -0.15323225783E+03 -0.75021960167E+02  0.91763512589E+03  0.90163185822E+03 0.  0.
         23    2    4    4    0    0 -0.33111088306E+02 -0.23246186632E+03  0.37428284499E+03  0.45144189102E+03  0.92613548994E+02 0.  0.
         23    2    4    4    0    0  0.35518819623E+02  0.79229608490E+02 -0.44930480515E+03  0.46619323487E+03  0.89007903570E+02 0.  0.
          2    1    3    3  502    0 -0.31869388701E+02  0.71971071067E+02  0.16215219051E+02  0.80364334972E+02  0.00000000000E+00 0. -1.
         -1    1    3    3    0  502  0.29461657383E+02  0.81261186761E+02  0.81005947782E+02  0.11846237084E+03  0.00000000000E+00 0.  1.
         11    1    5    5    0    0  0.19626363656E+01 -0.15845981889E+02  0.94655656626E+02  0.95992918566E+02  0.00000000000E+00 0. -1.
        -11    1    5    5    0    0 -0.35073724672E+02 -0.21661588443E+03  0.27962718836E+03  0.35544897245E+03  0.00000000000E+00 0.  1.
          1    1    6    6  503    0  0.25989500061E+02  0.43061670992E+01 -0.29092980575E+02  0.39247913413E+02  0.00000000000E+00 0. -1.
         -1    1    6    6    0  503  0.95293195625E+01  0.74923441390E+02 -0.42021182458E+03  0.42694532146E+03  0.00000000000E+00 0.  1.
<mgrwt>
<rscale>  0 0.11162411E+04</rscale>
<asrwt>0</asrwt>
<pdfrwt beam="1">  1        2 0.84174048E-01 0.11162411E+04</pdfrwt>
<pdfrwt beam="2">  1       -1 0.87589311E-01 0.11162411E+04</pdfrwt>
<totfact> 0.80597645E+01</totfact>
</mgrwt>
</event>
<event>
12    6  0.1510140E-007  0.1320346E+04  0.7818608E-02  0.9013584E-01
          2   -1    0    0  501    0  0.00000000000E+00  0.00000000000E+00  0.17215997943E+04  0.17215997943E+04  0.00000000000E+00 0. -1.
         -1   -1    0    0    0  501 -0.00000000000E+00 -0.00000000000E+00 -0.25315313375E+03  0.25315313375E+03  0.00000000000E+00 0.  1.
         24    2    1    2    0    0 -0.10763548340E+03  0.21083217574E+03  0.12016816980E+02  0.25004573940E+03  0.79642101247E+02 0.  0.
        254    2    1    2    0    0  0.10763548340E+03 -0.21083217574E+03  0.14564298435E+04  0.17247071886E+04  0.89296774504E+03 0.  0.
         23    2    4    4    0    0 -0.14341619865E+03  0.24453444750E+03  0.93793554460E+03  0.98416317682E+03  0.92134525145E+02 0.  0.
         23    2    4    4    0    0  0.25105168206E+03 -0.45536662324E+03  0.51849429894E+03  0.74054401180E+03  0.95829988807E+02 0.  0.
          4    1    3    3  502    0  0.13117935071E+01  0.77296484724E+02  0.31429826463E+00  0.77308253999E+02  0.00000000000E+00 0. -1.
         -3    1    3    3    0  502 -0.10894727691E+03  0.13353569101E+03  0.11702518715E+02  0.17273748540E+03  0.00000000000E+00 0.  1.
         11    1    5    5    0    0 -0.14996434581E+03  0.21722339847E+03  0.89279856124E+03  0.93100192309E+03  0.00000000000E+00 0. -1.
        -11    1    5    5    0    0  0.65481471527E+01  0.27311049028E+02  0.45136983367E+02  0.53161253725E+02  0.00000000000E+00 0.  1.
          1    1    6    6  503    0  0.12913410542E+03 -0.30900722654E+03  0.28956228420E+03  0.44272722941E+03  0.00000000000E+00 0. -1.
         -1    1    6    6    0  503  0.12191757663E+03 -0.14635939670E+03  0.22893201475E+03  0.29781678239E+03  0.00000000000E+00 0.  1.
<mgrwt>
<rscale>  0 0.13203460E+04</rscale>
<asrwt>0</asrwt>
<pdfrwt beam="1">  1        2 0.26486150E+00 0.13203460E+04</pdfrwt>
<pdfrwt beam="2">  1       -1 0.38946637E-01 0.13203460E+04</pdfrwt>
<totfact> 0.68028364E+01</totfact>
</mgrwt>
</event>
<event>
12    6  0.1510140E-007  0.2006487E+04  0.7818608E-02  0.8603594E-01
         -1   -1    0    0    0  501 -0.00000000000E+00  0.00000000000E+00  0.73279003417E+03  0.73279003417E+03  0.00000000000E+00 0.  1.
          2   -1    0    0  501    0  0.00000000000E+00 -0.00000000000E+00 -0.13735145756E+04  0.13735145756E+04  0.00000000000E+00 0. -1.
         24    2    1    2    0    0  0.50831719022E+03 -0.24458783061E+03 -0.85535370805E+03  0.10277659611E+04  0.80394851218E+02 0.  0.
        254    2    1    2    0    0 -0.50831719022E+03  0.24458783061E+03  0.21462916660E+03  0.10785386487E+04  0.89385142214E+03 0.  0.
         23    2    4    4    0    0 -0.48620782927E+03 -0.20200536965E+03 -0.70333633247E+02  0.53942661161E+03  0.93968221958E+02 0.  0.
         23    2    4    4    0    0 -0.22109360953E+02  0.44659320025E+03  0.28496279985E+03  0.53911203710E+03  0.97486824234E+02 0.  0.
          2    1    3    3  502    0  0.44775821177E+03 -0.24245174967E+03 -0.76689971302E+03  0.92054627095E+03  0.00000000000E+00 0. -1.
         -1    1    3    3    0  502  0.60558978448E+02 -0.21360809324E+01 -0.88453995028E+02  0.10721969012E+03  0.00000000000E+00 0.  1.
         11    1    5    5    0    0 -0.47923177414E+03 -0.20619856685E+03 -0.58381189198E+02  0.52496600420E+03  0.00000000000E+00 0. -1.
        -11    1    5    5    0    0 -0.69760551341E+01  0.41931971995E+01 -0.11952444050E+02  0.14460607413E+02  0.00000000000E+00 0.  1.
          3    1    6    6  503    0 -0.58005891793E+02  0.26436601406E+03  0.18849020291E+03  0.32982211792E+03  0.00000000000E+00 0. -1.
         -3    1    6    6    0  503  0.35896530841E+02  0.18222718619E+03  0.96472596937E+02  0.20928991919E+03  0.00000000000E+00 0.  1.
<mgrwt>
<rscale>  0 0.20064873E+04</rscale>
<asrwt>0</asrwt>
<pdfrwt beam="1">  1        2 0.21130993E+00 0.20064873E+04</pdfrwt>
<pdfrwt beam="2">  1       -1 0.11273693E+00 0.20064873E+04</pdfrwt>
<totfact> 0.11417604E+01</totfact>
</mgrwt>
</event>
<event>
12    6  0.1510140E-007  0.1840128E+04  0.7818608E-02  0.8685246E-01
         -1   -1    0    0    0  501 -0.00000000000E+00  0.00000000000E+00  0.79715557017E+03  0.79715557017E+03  0.00000000000E+00 0.  1.
          2   -1    0    0  501    0  0.00000000000E+00 -0.00000000000E+00 -0.10619233088E+04  0.10619233088E+04  0.00000000000E+00 0. -1.
         24    2    1    2    0    0 -0.54134179708E+03 -0.26938156649E+03  0.24900126732E+03  0.65880403275E+03  0.80023451604E+02 0.  0.
        254    2    1    2    0    0  0.54134179708E+03  0.26938156649E+03 -0.51376900593E+03  0.12002748462E+04  0.90060187951E+03 0.  0.
         23    2    4    4    0    0  0.20901721662E+02 -0.14629824632E+03 -0.49843032016E+03  0.52783038710E+03  0.91280198562E+02 0.  0.
         23    2    4    4    0    0  0.52044007542E+03  0.41567981281E+03 -0.15338685770E+02  0.67244445911E+03  0.91097181259E+02 0.  0.
          2    1    3    3  502    0 -0.44016105478E+02 -0.35500967653E+01  0.32190865256E+02  0.54646798026E+02  0.00000000000E+00 0. -1.
         -1    1    3    3    0  502 -0.49732569160E+03 -0.26583146972E+03  0.21681040206E+03  0.60415723472E+03  0.00000000000E+00 0.  1.
         11    1    5    5    0    0  0.15413069676E+02 -0.81579210698E+02 -0.40877143175E+03  0.41711726619E+03  0.00000000000E+00 0. -1.
        -11    1    5    5    0    0  0.54886519854E+01 -0.64719035620E+02 -0.89658888409E+02  0.11071312092E+03  0.00000000000E+00 0.  1.
          2    1    6    6  503    0  0.18761608861E+03  0.16533061709E+03  0.36663028433E+02  0.25274134467E+03  0.00000000000E+00 0. -1.
         -2    1    6    6    0  503  0.33282398682E+03  0.25034919572E+03 -0.52001714203E+02  0.41970311445E+03  0.00000000000E+00 0.  1.
<mgrwt>
<rscale>  0 0.18401283E+04</rscale>
<asrwt>0</asrwt>
<pdfrwt beam="1">  1        2 0.16337282E+00 0.18401283E+04</pdfrwt>
<pdfrwt beam="2">  1       -1 0.12263932E+00 0.18401283E+04</pdfrwt>
<totfact> 0.14492941E+01</totfact>
</mgrwt>
</event>
<event>
12    6  0.1510140E-007  0.1532701E+04  0.7818608E-02  0.8862994E-01
         -1   -1    0    0    0  501 -0.00000000000E+00  0.00000000000E+00  0.27009355566E+03  0.27009355566E+03  0.00000000000E+00 0.  1.
          2   -1    0    0  501    0  0.00000000000E+00 -0.00000000000E+00 -0.21744053566E+04  0.21744053566E+04  0.00000000000E+00 0. -1.
         24    2    1    2    0    0 -0.94690455706E+02  0.44241450001E+03 -0.27707320799E+03  0.53639924320E+03  0.79105709610E+02 0.  0.
        254    2    1    2    0    0  0.94690455706E+02 -0.44241450001E+03 -0.16272385929E+04  0.19080996691E+04  0.88782995922E+03 0.  0.
         23    2    4    4    0    0  0.96463813841E+02  0.25080627016E+03 -0.32982280907E+03  0.43427920276E+03  0.87214035760E+02 0.  0.
         23    2    4    4    0    0 -0.17733581345E+01 -0.69322077017E+03 -0.12974157839E+04  0.14738204663E+04  0.91109108559E+02 0.  0.
          2    1    3    3  502    0 -0.56247006746E+02  0.17650948927E+03 -0.73445542741E+02  0.19928264681E+03  0.00000000000E+00 0. -1.
         -1    1    3    3    0  502 -0.38443448960E+02  0.26590501074E+03 -0.20362766525E+03  0.33711659639E+03  0.00000000000E+00 0.  1.
         11    1    5    5    0    0  0.86180027339E+02  0.13279545722E+03 -0.23084753489E+03  0.27991465652E+03  0.00000000000E+00 0. -1.
        -11    1    5    5    0    0  0.10283786501E+02  0.11801081294E+03 -0.98975274176E+02  0.15436454624E+03  0.00000000000E+00 0.  1.
          3    1    6    6  503    0 -0.19171917408E+02 -0.54277708757E+03 -0.93962045812E+03  0.10852931100E+04  0.00000000000E+00 0. -1.
         -3    1    6    6    0  503  0.17398559274E+02 -0.15044368261E+03 -0.35779532574E+03  0.38852735634E+03  0.00000000000E+00 0.  1.
<mgrwt>
<rscale>  0 0.15327007E+04</rscale>
<asrwt>0</asrwt>
<pdfrwt beam="1">  1        2 0.33452389E+00 0.15327007E+04</pdfrwt>
<pdfrwt beam="2">  1       -1 0.41552856E-01 0.15327007E+04</pdfrwt>
<totfact> 0.33305129E+01</totfact>
</mgrwt>
</event>
<event>
12    6  0.1510140E-007  0.1860279E+04  0.7818608E-02  0.8674885E-01
          2   -1    0    0  501    0  0.00000000000E+00  0.00000000000E+00  0.64179516330E+03  0.64179516330E+03  0.00000000000E+00 0. -1.
         -1   -1    0    0    0  501 -0.00000000000E+00 -0.00000000000E+00 -0.13480309020E+04  0.13480309020E+04  0.00000000000E+00 0.  1.
         24    2    1    2    0    0 -0.89898016572E+02  0.49619053436E+03 -0.79090406768E+03  0.94145007473E+03  0.80698817692E+02 0.  0.
        254    2    1    2    0    0  0.89898016572E+02 -0.49619053436E+03  0.84668328962E+02  0.10483759906E+04  0.91522499525E+03 0.  0.
         23    2    4    4    0    0 -0.83643519452E+01 -0.56614824419E+03  0.40024418383E+03  0.69951514540E+03  0.92370098943E+02 0.  0.
         23    2    4    4    0    0  0.98262368517E+02  0.69957709825E+02 -0.31557585487E+03  0.34886084518E+03  0.86983877176E+02 0.  0.
          2    1    3    3  502    0 -0.30046529136E+02  0.46573086241E+02 -0.11201644591E+03  0.12497811980E+03  0.00000000000E+00 0. -1.
         -1    1    3    3    0  502 -0.59851487437E+02  0.44961744812E+03 -0.67888762177E+03  0.81647195493E+03  0.00000000000E+00 0.  1.
         11    1    5    5    0    0  0.21984240413E+02 -0.35501915357E+02  0.22404609380E+02  0.47388388262E+02  0.00000000000E+00 0.  1.
        -11    1    5    5    0    0 -0.30348592359E+02 -0.53064632883E+03  0.37783957445E+03  0.65212675714E+03  0.00000000000E+00 0. -1.
          3    1    6    6  503    0  0.82194859704E+02  0.43568727284E+02 -0.30033070694E+03  0.31440859163E+03  0.00000000000E+00 0. -1.
         -3    1    6    6    0  503  0.16067508813E+02  0.26388982541E+02 -0.15245147930E+02  0.34452253546E+02  0.00000000000E+00 0.  1.
<mgrwt>
<rscale>  0 0.18602792E+04</rscale>
<asrwt>0</asrwt>
<pdfrwt beam="1">  1        2 0.98737717E-01 0.18602792E+04</pdfrwt>
<pdfrwt beam="2">  1       -1 0.20738937E+00 0.18602792E+04</pdfrwt>
<totfact> 0.65620929E+00</totfact>
</mgrwt>
</event>
<event>
12    6  0.1510140E-007  0.1655428E+04  0.7818608E-02  0.8787202E-01
          2   -1    0    0  501    0  0.00000000000E+00  0.00000000000E+00  0.32807310028E+04  0.32807310028E+04  0.00000000000E+00 0. -1.
         -1   -1    0    0    0  501 -0.00000000000E+00 -0.00000000000E+00 -0.20882865037E+03  0.20882865037E+03  0.00000000000E+00 0.  1.
         24    2    1    2    0    0 -0.16648470425E+03 -0.66935794784E+02 -0.76718354626E+02  0.21254909256E+03  0.84225016716E+02 0.  0.
        254    2    1    2    0    0  0.16648470425E+03  0.66935794784E+02  0.31486207070E+04  0.32770105606E+04  0.89038660148E+03 0.  0.
         23    2    4    4    0    0 -0.12624319751E+03  0.33495611179E+03  0.67801160764E+03  0.77313205053E+03  0.99501184568E+02 0.  0.
         23    2    4    4    0    0  0.29272790176E+03 -0.26802031700E+03  0.24706090994E+04  0.25038785101E+04  0.89295891922E+02 0.  0.
          4    1    3    3  502    0 -0.59525230265E+02 -0.21731087526E+02  0.14356604762E+02  0.64973881703E+02  0.00000000000E+00 0. -1.
         -3    1    3    3    0  502 -0.10695947398E+03 -0.45204707257E+02 -0.91074959388E+02  0.14757521086E+03  0.00000000000E+00 0.  1.
         11    1    5    5    0    0 -0.20830298440E+02  0.21908014969E+01  0.57226767005E+02  0.60939345304E+02  0.00000000000E+00 0.  1.
        -11    1    5    5    0    0 -0.10541289907E+03  0.33276531029E+03  0.62078484063E+03  0.71219270523E+03  0.00000000000E+00 0. -1.
          3    1    6    6  503    0  0.29641768786E+03 -0.25431770899E+03  0.24201390684E+04  0.24514514177E+04  0.00000000000E+00 0. -1.
         -3    1    6    6    0  503 -0.36897861019E+01 -0.13702608014E+02  0.50470031003E+02  0.52427092398E+02  0.00000000000E+00 0.  1.
<mgrwt>
<rscale>  0 0.16554282E+04</rscale>
<asrwt>0</asrwt>
<pdfrwt beam="1">  1        2 0.50472781E+00 0.16554282E+04</pdfrwt>
<pdfrwt beam="2">  1       -1 0.32127487E-01 0.16554282E+04</pdfrwt>
<totfact> 0.11369058E+01</totfact>
</mgrwt>
</event>
<event>
12    6  0.1510140E-007  0.1483552E+04  0.7818608E-02  0.8895465E-01
         -1   -1    0    0    0  501 -0.00000000000E+00  0.00000000000E+00  0.13339527249E+03  0.13339527249E+03  0.00000000000E+00 0.  1.
          2   -1    0    0  501    0  0.00000000000E+00 -0.00000000000E+00 -0.41248211782E+04  0.41248211782E+04  0.00000000000E+00 0. -1.
         24    2    1    2    0    0 -0.79204255586E+02  0.13361582998E+03 -0.25154359850E+04  0.25214748176E+04  0.79313031845E+02 0.  0.
        254    2    1    2    0    0  0.79204255586E+02 -0.13361582998E+03 -0.14759899207E+04  0.17367416331E+04  0.90199708976E+03 0.  0.
         23    2    4    4    0    0 -0.16419444498E+02 -0.50735830379E+03 -0.90831683724E+03  0.10445170481E+04  0.91073268876E+02 0.  0.
         23    2    4    4    0    0  0.95623700084E+02  0.37374247380E+03 -0.56767308347E+03  0.69222458502E+03  0.89971204675E+02 0.  0.
          4    1    3    3  502    0 -0.88746698204E+02  0.89020998264E+02 -0.20352699358E+04  0.20391479657E+04  0.00000000000E+00 0. -1.
         -3    1    3    3    0  502  0.95424426179E+01  0.44594831719E+02 -0.48016604927E+03  0.48232685193E+03  0.00000000000E+00 0.  1.
         11    1    5    5    0    0 -0.10013898063E+02 -0.20057593078E+03 -0.45222453077E+03  0.49481108354E+03  0.00000000000E+00 0.  1.
        -11    1    5    5    0    0 -0.64055464351E+01 -0.30678237301E+03 -0.45609230646E+03  0.54970596452E+03  0.00000000000E+00 0. -1.
          3    1    6    6  503    0  0.65758915420E+02  0.23576888761E+03 -0.43146769985E+03  0.49606005618E+03  0.00000000000E+00 0. -1.
         -3    1    6    6    0  503  0.29864784663E+02  0.13797358619E+03 -0.13620538362E+03  0.19616452884E+03  0.00000000000E+00 0.  1.
<mgrwt>
<rscale>  0 0.14835520E+04</rscale>
<asrwt>0</asrwt>
<pdfrwt beam="1">  1        2 0.63458782E+00 0.14835520E+04</pdfrwt>
<pdfrwt beam="2">  1       -1 0.20522351E-01 0.14835520E+04</pdfrwt>
<totfact> 0.59806003E+00</totfact>
</mgrwt>
</event>
<event>
12    6  0.1510140E-007  0.1924141E+04  0.7818608E-02  0.8642932E-01
         -1   -1    0    0    0  501 -0.00000000000E+00  0.00000000000E+00  0.80230506118E+03  0.80230506118E+03  0.00000000000E+00 0.  1.
          2   -1    0    0  501    0  0.00000000000E+00 -0.00000000000E+00 -0.11536508618E+04  0.11536508618E+04  0.00000000000E+00 0. -1.
         24    2    1    2    0    0  0.43388197883E+03 -0.16969342189E+03 -0.73603707886E+03  0.87475384868E+03  0.79964275379E+02 0.  0.
        254    2    1    2    0    0 -0.43388197883E+03  0.16969342189E+03  0.38469127820E+03  0.10812020743E+04  0.89663878851E+03 0.  0.
         23    2    4    4    0    0 -0.30039005310E+03  0.41348669209E+03  0.54122880809E+03  0.75033105352E+03  0.94141588229E+02 0.  0.
         23    2    4    4    0    0 -0.13349192573E+03 -0.24379327020E+03 -0.15653752989E+03  0.33087102083E+03  0.87842935552E+02 0.  0.
          2    1    3    3  502    0  0.37423335415E+03 -0.15001959019E+03 -0.57831553408E+03  0.70498605501E+03  0.00000000000E+00 0. -1.
         -1    1    3    3    0  502  0.59648624685E+02 -0.19673831696E+02 -0.15772154478E+03  0.16976779368E+03  0.00000000000E+00 0.  1.
         11    1    5    5    0    0 -0.28765145631E+03  0.38660116698E+03  0.53484183711E+03  0.71990250267E+03  0.00000000000E+00 0. -1.
        -11    1    5    5    0    0 -0.12738596788E+02  0.26885525108E+02  0.63869709804E+01  0.30428550849E+02  0.00000000000E+00 0.  1.
          1    1    6    6  503    0 -0.61661573602E+02 -0.16909155701E+03 -0.13509082929E+03  0.22504141056E+03  0.00000000000E+00 0. -1.
         -1    1    6    6    0  503 -0.71830352130E+02 -0.74701713197E+02 -0.21446700599E+02  0.10582961026E+03  0.00000000000E+00 0.  1.
<mgrwt>
<rscale>  0 0.19241413E+04</rscale>
<asrwt>0</asrwt>
<pdfrwt beam="1">  1        2 0.17748475E+00 0.19241413E+04</pdfrwt>
<pdfrwt beam="2">  1       -1 0.12343155E+00 0.19241413E+04</pdfrwt>
<totfact> 0.12434810E+01</totfact>
</mgrwt>
</event>
<event>
12    6  0.1510140E-007  0.1573791E+04  0.7818608E-02  0.8836813E-01
          2   -1    0    0  501    0  0.00000000000E+00  0.00000000000E+00  0.18045533327E+04  0.18045533327E+04  0.00000000000E+00 0. -1.
         -1   -1    0    0    0  501 -0.00000000000E+00 -0.00000000000E+00 -0.34313433836E+03  0.34313433836E+03  0.00000000000E+00 0.  1.
         24    2    1    2    0    0  0.47237484885E+03 -0.21054245607E+03  0.37057089311E+03  0.64207051702E+03  0.86403925664E+02 0.  0.
        254    2    1    2    0    0 -0.47237484885E+03  0.21054245607E+03  0.10908481013E+04  0.15056171541E+04  0.89970401300E+03 0.  0.
         23    2    4    4    0    0 -0.50299425476E+03 -0.17320836017E+03  0.93828616305E+03  0.10822872812E+04  0.89221515988E+02 0.  0.
         23    2    4    4    0    0  0.30619405909E+02  0.38375081623E+03  0.15256193823E+03  0.42332987290E+03  0.87924964126E+02 0.  0.
          2    1    3    3  502    0  0.83966522359E+02 -0.74234121004E+02  0.66636125641E+02  0.13038962704E+03  0.00000000000E+00 0. -1.
         -1    1    3    3    0  502  0.38840832649E+03 -0.13630833506E+03  0.30393476747E+03  0.51168088998E+03  0.00000000000E+00 0.  1.
         11    1    5    5    0    0 -0.68869121499E+01 -0.11699164294E+00 -0.10528883545E-01  0.68879138252E+01  0.00000000000E+00 0.  1.
        -11    1    5    5    0    0 -0.49610734261E+03 -0.17309136852E+03  0.93829669193E+03  0.10753993674E+04  0.00000000000E+00 0. -1.
          3    1    6    6  503    0  0.21186202376E+02  0.37632146118E+03  0.13170872979E+03  0.39926668634E+03  0.00000000000E+00 0. -1.
         -3    1    6    6    0  503  0.94332035338E+01  0.74293550499E+01  0.20853208435E+02  0.24063186560E+02  0.00000000000E+00 0.  1.
<mgrwt>
<rscale>  0 0.15737906E+04</rscale>
<asrwt>0</asrwt>
<pdfrwt beam="1">  1        2 0.27762358E+00 0.15737906E+04</pdfrwt>
<pdfrwt beam="2">  1       -1 0.52789899E-01 0.15737906E+04</pdfrwt>
<totfact> 0.33963894E+01</totfact>
</mgrwt>
</event>
<event>
12    6  0.1510140E-007  0.1126212E+04  0.7818608E-02  0.9180014E-01
         -1   -1    0    0    0  501 -0.00000000000E+00  0.00000000000E+00  0.35842639301E+03  0.35842639301E+03  0.00000000000E+00 0.  1.
          2   -1    0    0  501    0  0.00000000000E+00 -0.00000000000E+00 -0.88466784333E+03  0.88466784333E+03  0.00000000000E+00 0. -1.
         24    2    1    2    0    0  0.16693199176E+03  0.10024242710E+03 -0.48358438254E+02  0.21605362731E+03  0.80161070714E+02 0.  0.
        254    2    1    2    0    0 -0.16693199176E+03 -0.10024242710E+03 -0.47788301206E+03  0.10270406090E+04  0.88798952995E+03 0.  0.
         23    2    4    4    0    0 -0.43123057316E+02 -0.13795873774E+03  0.23806172308E+03  0.29336101164E+03  0.92168800360E+02 0.  0.
         23    2    4    4    0    0 -0.12380893445E+03  0.37716310643E+02 -0.71594473515E+03  0.73367959739E+03  0.94645208547E+02 0.  0.
          2    1    3    3  502    0  0.88419346678E+02  0.89095055742E+02 -0.53801739611E+02  0.13656696896E+03  0.00000000000E+00 0. -1.
         -1    1    3    3    0  502  0.78512645087E+02  0.11147371358E+02  0.54433013568E+01  0.79486658355E+02  0.00000000000E+00 0.  1.
         11    1    5    5    0    0  0.28178425043E+02 -0.33996247006E+02  0.47293651873E+02  0.64702843492E+02  0.00000000000E+00 0. -1.
        -11    1    5    5    0    0 -0.71301482359E+02 -0.10396249074E+03  0.19076807121E+03  0.22865816814E+03  0.00000000000E+00 0.  1.
          3    1    6    6  503    0 -0.83413841395E+02  0.74986620609E+01 -0.22381823366E+03  0.23897426763E+03  0.00000000000E+00 0. -1.
         -3    1    6    6    0  503 -0.40395093053E+02  0.30217648582E+02 -0.49212650148E+03  0.49470532976E+03  0.00000000000E+00 0.  1.
<mgrwt>
<rscale>  0 0.11262119E+04</rscale>
<asrwt>0</asrwt>
<pdfrwt beam="1">  1        2 0.13610274E+00 0.11262119E+04</pdfrwt>
<pdfrwt beam="2">  1       -1 0.55142522E-01 0.11262119E+04</pdfrwt>
<totfact> 0.11292923E+02</totfact>
</mgrwt>
</event>
<event>
12    6  0.1510140E-007  0.1651332E+04  0.7818608E-02  0.8789619E-01
         -1   -1    0    0    0  501 -0.00000000000E+00  0.00000000000E+00  0.44051826945E+03  0.44051826945E+03  0.00000000000E+00 0.  1.
          2   -1    0    0  501    0  0.00000000000E+00 -0.00000000000E+00 -0.15475507970E+04  0.15475507970E+04  0.00000000000E+00 0. -1.
         24    2    1    2    0    0 -0.34708974598E+02  0.64035240333E+03 -0.42913713476E+03  0.77634206678E+03  0.85395613794E+02 0.  0.
        254    2    1    2    0    0  0.34708974598E+02 -0.64035240333E+03 -0.67789539278E+03  0.12117269997E+04  0.77297105044E+03 0.  0.
         23    2    4    4    0    0  0.21745416802E+03 -0.62013240776E+03 -0.20307432167E+03  0.69450574318E+03  0.96169271847E+02 0.  0.
         23    2    4    4    0    0 -0.18274519343E+03 -0.20219995568E+02 -0.47482107111E+03  0.51722125649E+03  0.90874224385E+02 0.  0.
          4    1    3    3  502    0 -0.44335473981E+01  0.44054489805E+02 -0.59321003739E+02  0.74023211894E+02  0.00000000000E+00 0. -1.
         -3    1    3    3    0  502 -0.30275427200E+02  0.59629791352E+03 -0.36981613102E+03  0.70231885488E+03  0.00000000000E+00 0.  1.
         11    1    5    5    0    0  0.12805651051E+03 -0.48652456822E+03 -0.14490396623E+03  0.52354730903E+03  0.00000000000E+00 0.  1.
        -11    1    5    5    0    0  0.89397657511E+02 -0.13360783954E+03 -0.58170355442E+02  0.17095843415E+03  0.00000000000E+00 0. -1.
          3    1    6    6  503    0 -0.12535525741E+03 -0.57885325635E+01 -0.20005967148E+03  0.23615952199E+03  0.00000000000E+00 0. -1.
         -3    1    6    6    0  503 -0.57389936012E+02 -0.14431463004E+02 -0.27476139962E+03  0.28106173450E+03  0.00000000000E+00 0.  1.
<mgrwt>
<rscale>  0 0.16513321E+04</rscale>
<asrwt>0</asrwt>
<pdfrwt beam="1">  1        2 0.23808474E+00 0.16513321E+04</pdfrwt>
<pdfrwt beam="2">  1       -1 0.67772042E-01 0.16513321E+04</pdfrwt>
<totfact> 0.28632510E+01</totfact>
</mgrwt>
</event>
<event>
12    6  0.1510140E-007  0.2390826E+04  0.7818608E-02  0.8442946E-01
         -3   -1    0    0    0  501 -0.00000000000E+00  0.00000000000E+00  0.11212216646E+04  0.11212216646E+04  0.00000000000E+00 0.  1.
          4   -1    0    0  501    0  0.00000000000E+00 -0.00000000000E+00 -0.12745138875E+04  0.12745138875E+04  0.00000000000E+00 0. -1.
         24    2    1    2    0    0 -0.10893567674E+03  0.43758762999E+03 -0.98634500745E+03  0.10875499614E+04  0.80861172550E+02 0.  0.
        254    2    1    2    0    0  0.10893567674E+03 -0.43758762999E+03  0.83305278449E+03  0.13081855907E+04  0.90223205567E+03 0.  0.
         23    2    4    4    0    0 -0.11255463966E+03 -0.24091500958E+03 -0.12062437402E+03  0.30591740233E+03  0.91250362665E+02 0.  0.
         23    2    4    4    0    0  0.22149031640E+03 -0.19667262041E+03  0.95367715852E+03  0.10022681883E+04  0.85459457037E+02 0.  0.
          4    1    3    3  502    0 -0.65268224186E+02  0.26605506960E+03 -0.68966601483E+03  0.74208116346E+03  0.00000000000E+00 0. -1.
         -3    1    3    3    0  502 -0.43667452557E+02  0.17153256040E+03 -0.29667899262E+03  0.34546879794E+03  0.00000000000E+00 0.  1.
         11    1    5    5    0    0 -0.56321339426E+02 -0.87911627902E+02 -0.21952711910E+01  0.10442876429E+03  0.00000000000E+00 0.  1.
        -11    1    5    5    0    0 -0.56233300236E+02 -0.15300338168E+03 -0.11842910283E+03  0.20148863804E+03  0.00000000000E+00 0. -1.
          2    1    6    6  503    0  0.17135208152E+03 -0.14672764429E+03  0.82642011464E+03  0.85665672432E+03  0.00000000000E+00 0. -1.
         -2    1    6    6    0  503  0.50138234888E+02 -0.49944976122E+02  0.12725704388E+03  0.14561146402E+03  0.00000000000E+00 0.  1.
<mgrwt>
<rscale>  0 0.23908263E+04</rscale>
<asrwt>0</asrwt>
<pdfrwt beam="1">  1        4 0.19607906E+00 0.23908263E+04</pdfrwt>
<pdfrwt beam="2">  1       -3 0.17249564E+00 0.23908263E+04</pdfrwt>
<totfact> 0.63699213E-02</totfact>
</mgrwt>
</event>
<event>
12    6  0.1510140E-007  0.1449544E+04  0.7818608E-02  0.8918717E-01
         -1   -1    0    0    0  501 -0.00000000000E+00  0.00000000000E+00  0.27531752307E+03  0.27531752307E+03  0.00000000000E+00 0.  1.
          2   -1    0    0  501    0  0.00000000000E+00 -0.00000000000E+00 -0.19079583571E+04  0.19079583571E+04  0.00000000000E+00 0. -1.
         24    2    1    2    0    0 -0.83109451066E+02 -0.16096317540E+03  0.10115148834E+03  0.22166375259E+03  0.78018401202E+02 0.  0.
        254    2    1    2    0    0  0.83109451066E+02  0.16096317540E+03 -0.17337923224E+04  0.19616121276E+04  0.89948318343E+03 0.  0.
         23    2    4    4    0    0 -0.33984700443E+03  0.25948567753E+03 -0.11383696962E+04  0.12191034125E+04  0.86595391295E+02 0.  0.
         23    2    4    4    0    0  0.42295645550E+03 -0.98522502122E+02 -0.59542262614E+03  0.74250871509E+03  0.90511002612E+02 0.  0.
          4    1    3    3  502    0 -0.62273384896E+01 -0.46975364601E+02 -0.54336991113E+01  0.47696852203E+02  0.00000000000E+00 0. -1.
         -3    1    3    3    0  502 -0.76882112577E+02 -0.11398781080E+03  0.10658518746E+03  0.17396690039E+03  0.00000000000E+00 0.  1.
         11    1    5    5    0    0 -0.18451966936E+03  0.12967172579E+03 -0.71696912548E+03  0.75160294820E+03  0.00000000000E+00 0. -1.
        -11    1    5    5    0    0 -0.15532733507E+03  0.12981395174E+03 -0.42140057073E+03  0.46750046428E+03  0.00000000000E+00 0.  1.
          1    1    6    6  503    0  0.44712620364E+02 -0.23916790183E+02 -0.32525957273E+02  0.60242586008E+02  0.00000000000E+00 0. -1.
         -1    1    6    6    0  503  0.37824383513E+03 -0.74605711939E+02 -0.56289666887E+03  0.68226612908E+03  0.00000000000E+00 0.  1.
<mgrwt>
<rscale>  0 0.14495439E+04</rscale>
<asrwt>0</asrwt>
<pdfrwt beam="1">  1        2 0.29353205E+00 0.14495439E+04</pdfrwt>
<pdfrwt beam="2">  1       -1 0.42356542E-01 0.14495439E+04</pdfrwt>
<totfact> 0.45528162E+01</totfact>
</mgrwt>
</event>
<event>
12    6  0.1510140E-007  0.3203417E+04  0.7818608E-02  0.8187915E-01
          2   -1    0    0  501    0  0.00000000000E+00  0.00000000000E+00  0.44309602634E+04  0.44309602634E+04  0.00000000000E+00 0. -1.
         -1   -1    0    0    0  501 -0.00000000000E+00 -0.00000000000E+00 -0.57898753888E+03  0.57898753888E+03  0.00000000000E+00 0.  1.
         24    2    1    2    0    0  0.13188946877E+04  0.62159866891E+03  0.20775701665E+04  0.25394119347E+04  0.80293679972E+02 0.  0.
        254    2    1    2    0    0 -0.13188946877E+04 -0.62159866891E+03  0.17744025580E+04  0.24705358676E+04  0.91059043071E+03 0.  0.
         23    2    4    4    0    0 -0.97437738633E+03 -0.82246086701E+03  0.15319890654E+04  0.19953908187E+04  0.93492536457E+02 0.  0.
         23    2    4    4    0    0 -0.34451730137E+03  0.20086219810E+03  0.24241349267E+03  0.47514504882E+03  0.89222880596E+02 0.  0.
          4    1    3    3  502    0  0.99839733478E+03  0.49814764605E+03  0.16281061052E+04  0.19737471482E+04  0.00000000000E+00 0. -1.
         -3    1    3    3    0  502  0.32049735291E+03  0.12345102286E+03  0.44946406124E+03  0.56566478644E+03  0.00000000000E+00 0.  1.
         11    1    5    5    0    0 -0.62214117940E+03 -0.46566275126E+03  0.92473317918E+03  0.12079043413E+04  0.00000000000E+00 0.  1.
        -11    1    5    5    0    0 -0.35223620693E+03 -0.35679811575E+03  0.60725588618E+03  0.78748647746E+03  0.00000000000E+00 0. -1.
          3    1    6    6  503    0 -0.24729189270E+03  0.11083521920E+03  0.19715555199E+03  0.33512391393E+03  0.00000000000E+00 0. -1.
         -3    1    6    6    0  503 -0.97225408667E+02  0.90026978896E+02  0.45257940686E+02  0.14002113489E+03  0.00000000000E+00 0.  1.
<mgrwt>
<rscale>  0 0.32034174E+04</rscale>
<asrwt>0</asrwt>
<pdfrwt beam="1">  1        2 0.68168618E+00 0.32034174E+04</pdfrwt>
<pdfrwt beam="2">  1       -1 0.89075009E-01 0.32034174E+04</pdfrwt>
<totfact> 0.16906997E-01</totfact>
</mgrwt>
</event>
<event>
12    6  0.1510140E-007  0.1614845E+04  0.7818608E-02  0.8811480E-01
         -3   -1    0    0    0  501 -0.00000000000E+00  0.00000000000E+00  0.30114003241E+03  0.30114003241E+03  0.00000000000E+00 0.  1.
          2   -1    0    0  501    0  0.00000000000E+00 -0.00000000000E+00 -0.21648764342E+04  0.21648764342E+04  0.00000000000E+00 0. -1.
         24    2    1    2    0    0 -0.21374312300E+03  0.14681421111E+03 -0.13935414627E+04  0.14192031851E+04  0.70280417795E+02 0.  0.
        254    2    1    2    0    0  0.21374312300E+03 -0.14681421111E+03 -0.47019493906E+03  0.10468132815E+04  0.89860682745E+03 0.  0.
         23    2    4    4    0    0  0.19531592160E+03  0.18515425736E+03 -0.61155388501E+03  0.67393488800E+03  0.88088993333E+02 0.  0.
         23    2    4    4    0    0  0.18427201400E+02 -0.33196846847E+03  0.14135894594E+03  0.37287839348E+03  0.92267648275E+02 0.  0.
          4    1    3    3  502    0 -0.19316514381E+03  0.15381197215E+03 -0.12831387921E+04  0.13066813136E+04  0.00000000000E+00 0. -1.
         -3    1    3    3    0  502 -0.20577979197E+02 -0.69977610412E+01 -0.11040267070E+03  0.11252187158E+03  0.00000000000E+00 0.  1.
         11    1    5    5    0    0  0.10742535566E+03  0.10535814262E+03 -0.44235518191E+03  0.46724581562E+03  0.00000000000E+00 0. -1.
        -11    1    5    5    0    0  0.87890565947E+02  0.79796114745E+02 -0.16919870309E+03  0.20668907238E+03  0.00000000000E+00 0.  1.
          3    1    6    6  503    0  0.15380255712E+02 -0.33738891354E+03  0.13427458315E+03  0.36345219070E+03  0.00000000000E+00 0. -1.
         -3    1    6    6    0  503  0.30469456884E+01  0.54204450682E+01  0.70843627866E+01  0.94262027804E+01  0.00000000000E+00 0.  1.
<mgrwt>
<rscale>  0 0.16148448E+04</rscale>
<asrwt>0</asrwt>
<pdfrwt beam="1">  1        2 0.33305790E+00 0.16148448E+04</pdfrwt>
<pdfrwt beam="2">  1       -3 0.46329237E-01 0.16148448E+04</pdfrwt>
<totfact> 0.15447950E+01</totfact>
</mgrwt>
</event>
<event>
12    6  0.1510140E-007  0.2517456E+04  0.7818608E-02  0.8396793E-01
          2   -1    0    0  501    0  0.00000000000E+00  0.00000000000E+00  0.28993845529E+04  0.28993845529E+04  0.00000000000E+00 0. -1.
         -1   -1    0    0    0  501 -0.00000000000E+00 -0.00000000000E+00 -0.54645954876E+03  0.54645954876E+03  0.00000000000E+00 0.  1.
         24    2    1    2    0    0 -0.39096077661E+03 -0.47900548442E+03 -0.19845816442E+03  0.65426666006E+03  0.79891404403E+02 0.  0.
        254    2    1    2    0    0  0.39096077661E+03  0.47900548442E+03  0.25513831685E+04  0.27915774416E+04  0.94923756600E+03 0.  0.
         23    2    4    4    0    0  0.72169984320E+02  0.18672207739E+03  0.22407676553E+04  0.22514882007E+04  0.89921034127E+02 0.  0.
         23    2    4    4    0    0  0.31879079229E+03  0.29228340703E+03  0.31061551329E+03  0.54008924085E+03  0.90317394347E+02 0.  0.
          4    1    3    3  502    0 -0.19993913433E+03 -0.23190413026E+03 -0.57247793255E+02  0.31150038989E+03  0.00000000000E+00 0. -1.
         -3    1    3    3    0  502 -0.19102164228E+03 -0.24710135415E+03 -0.14121037116E+03  0.34276627017E+03  0.00000000000E+00 0.  1.
         11    1    5    5    0    0  0.30348137506E+02  0.11202435086E+03  0.17028741348E+04  0.17068247666E+04  0.00000000000E+00 0. -1.
        -11    1    5    5    0    0  0.41821846813E+02  0.74697726533E+02  0.53789352041E+03  0.54466343417E+03  0.00000000000E+00 0.  1.
          4    1    6    6  503    0  0.24625996989E+03  0.26719610691E+03  0.27375132822E+03  0.45494782340E+03  0.00000000000E+00 0. -1.
         -4    1    6    6    0  503  0.72530822399E+02  0.25087300120E+02  0.36864185067E+02  0.85141417452E+02  0.00000000000E+00 0.  1.
<mgrwt>
<rscale>  0 0.25174562E+04</rscale>
<asrwt>0</asrwt>
<pdfrwt beam="1">  1        2 0.44605915E+00 0.25174562E+04</pdfrwt>
<pdfrwt beam="2">  1       -1 0.84070701E-01 0.25174562E+04</pdfrwt>
<totfact> 0.28554918E+00</totfact>
</mgrwt>
</event>
<event>
12    6  0.1510140E-007  0.1493922E+04  0.7818608E-02  0.8888505E-01
          2   -1    0    0  501    0  0.00000000000E+00  0.00000000000E+00  0.29311741122E+04  0.29311741122E+04  0.00000000000E+00 0. -1.
         -1   -1    0    0    0  501 -0.00000000000E+00 -0.00000000000E+00 -0.19035069162E+03  0.19035069162E+03  0.00000000000E+00 0.  1.
         24    2    1    2    0    0 -0.35675936416E+03 -0.20949493571E+03  0.40622132008E+03  0.58568725371E+03  0.82755218962E+02 0.  0.
        254    2    1    2    0    0  0.35675936416E+03  0.20949493571E+03  0.23346021005E+04  0.25358375501E+04  0.89941077427E+03 0.  0.
         23    2    4    4    0    0  0.96791338649E+02  0.25336602800E+03  0.22134142888E+04  0.22315533532E+04  0.84051455684E+02 0.  0.
         23    2    4    4    0    0  0.25996802552E+03 -0.43871092284E+02  0.12118781170E+03  0.30428419685E+03  0.91620629340E+02 0.  0.
          2    1    3    3  502    0 -0.20304306490E+03 -0.16014584851E+03  0.27650769130E+03  0.37858906792E+03  0.00000000000E+00 0. -1.
         -1    1    3    3    0  502 -0.15371629927E+03 -0.49349087197E+02  0.12971362878E+03  0.20709818579E+03  0.00000000000E+00 0.  1.
         11    1    5    5    0    0  0.39007842574E+02  0.20010468916E+03  0.16949907331E+04  0.17072073933E+04  0.00000000000E+00 0.  1.
        -11    1    5    5    0    0  0.57783496075E+02  0.53261338836E+02  0.51842355567E+03  0.52434595995E+03  0.00000000000E+00 0. -1.
          2    1    6    6  503    0  0.78281709786E+02  0.28297930137E+02  0.43480456437E+02  0.93911389240E+02  0.00000000000E+00 0. -1.
         -2    1    6    6    0  503  0.18168631573E+03 -0.72169022421E+02  0.77707355263E+02  0.21037280761E+03  0.00000000000E+00 0.  1.
<mgrwt>
<rscale>  0 0.14939224E+04</rscale>
<asrwt>0</asrwt>
<pdfrwt beam="1">  1        2 0.45094983E+00 0.14939224E+04</pdfrwt>
<pdfrwt beam="2">  1       -1 0.29284724E-01 0.14939224E+04</pdfrwt>
<totfact> 0.22672266E+01</totfact>
</mgrwt>
</event>
<event>
12    6  0.1510140E-007  0.1175423E+04  0.7818608E-02  0.9134645E-01
          2   -1    0    0  501    0  0.00000000000E+00  0.00000000000E+00  0.26063175352E+03  0.26063175352E+03  0.00000000000E+00 0. -1.
         -1   -1    0    0    0  501 -0.00000000000E+00 -0.00000000000E+00 -0.13252605628E+04  0.13252605628E+04  0.00000000000E+00 0.  1.
         24    2    1    2    0    0 -0.23260675560E+03  0.38219111167E+02 -0.26448973942E+03  0.36258652081E+03  0.77120422784E+02 0.  0.
        254    2    1    2    0    0  0.23260675560E+03 -0.38219111167E+02 -0.80013906984E+03  0.12233057955E+04  0.89481167570E+03 0.  0.
         23    2    4    4    0    0  0.46067994762E+03  0.24877330358E+03 -0.57437863230E+03  0.78242291264E+03  0.90336206820E+02 0.  0.
         23    2    4    4    0    0 -0.22807319203E+03 -0.28699241475E+03 -0.22576043754E+03  0.44088288284E+03  0.95015336534E+02 0.  0.
          2    1    3    3  502    0 -0.59494342532E+02 -0.20176509441E+02 -0.46487621005E+02  0.78152205556E+02  0.00000000000E+00 0. -1.
         -1    1    3    3    0  502 -0.17311241307E+03  0.58395620608E+02 -0.21800211841E+03  0.28443431526E+03  0.00000000000E+00 0.  1.
         11    1    5    5    0    0  0.85398217034E+02  0.88883898977E+02 -0.14012812855E+03  0.18662554857E+03  0.00000000000E+00 0. -1.
        -11    1    5    5    0    0  0.37528173059E+03  0.15988940461E+03 -0.43425050375E+03  0.59579736407E+03  0.00000000000E+00 0.  1.
          2    1    6    6  503    0 -0.30115955236E+01 -0.56040889301E+02 -0.37042228855E+02  0.67244164801E+02  0.00000000000E+00 0. -1.
         -2    1    6    6    0  503 -0.22506159650E+03 -0.23095152545E+03 -0.18871820868E+03  0.37363871804E+03  0.00000000000E+00 0.  1.
<mgrwt>
<rscale>  0 0.11754233E+04</rscale>
<asrwt>0</asrwt>
<pdfrwt beam="1">  1        2 0.40097192E-01 0.11754233E+04</pdfrwt>
<pdfrwt beam="2">  1       -1 0.20388624E+00 0.11754233E+04</pdfrwt>
<totfact> 0.20608985E+01</totfact>
</mgrwt>
</event>
<event>
12    6  0.1510140E-007  0.2031964E+04  0.7818608E-02  0.8591821E-01
         -1   -1    0    0    0  501 -0.00000000000E+00  0.00000000000E+00  0.71495032543E+03  0.71495032543E+03  0.00000000000E+00 0.  1.
          2   -1    0    0  501    0  0.00000000000E+00 -0.00000000000E+00 -0.14437638019E+04  0.14437638019E+04  0.00000000000E+00 0. -1.
         24    2    1    2    0    0  0.64036259453E+03 -0.28001976480E+03 -0.73513111233E+03  0.10180378344E+04  0.86648478537E+02 0.  0.
        254    2    1    2    0    0 -0.64036259453E+03  0.28001976480E+03  0.63176358542E+01  0.11406762929E+04  0.90145835819E+03 0.  0.
         23    2    4    4    0    0 -0.34795777550E+03  0.33033981823E+03 -0.39903634832E+03  0.62997359642E+03  0.86242193033E+02 0.  0.
         23    2    4    4    0    0 -0.29240481902E+03 -0.50320053432E+02  0.40535398417E+03  0.51070269650E+03  0.92047301789E+02 0.  0.
          4    1    3    3  502    0  0.52182630319E+03 -0.20277394682E+03 -0.62236119681E+03  0.83711016211E+03  0.00000000000E+00 0. -1.
         -3    1    3    3    0  502  0.11853629134E+03 -0.77245817978E+02 -0.11276991552E+03  0.18092767230E+03  0.00000000000E+00 0.  1.
         11    1    5    5    0    0 -0.50870938849E+02  0.33839398740E+02 -0.19613068081E+02  0.64168760047E+02  0.00000000000E+00 0. -1.
        -11    1    5    5    0    0 -0.29708683666E+03  0.29650041949E+03 -0.37942328024E+03  0.56580483637E+03  0.00000000000E+00 0.  1.
          3    1    6    6  503    0 -0.46004431110E+02  0.21875872537E+02  0.43363404996E+02  0.66898029671E+02  0.00000000000E+00 0. -1.
         -3    1    6    6    0  503 -0.24640038791E+03 -0.72195925969E+02  0.36199057918E+03  0.44380466683E+03  0.00000000000E+00 0.  1.
<mgrwt>
<rscale>  0 0.20319640E+04</rscale>
<asrwt>0</asrwt>
<pdfrwt beam="1">  1        2 0.22211750E+00 0.20319640E+04</pdfrwt>
<pdfrwt beam="2">  1       -1 0.10999236E+00 0.20319640E+04</pdfrwt>
<totfact> 0.11011250E+01</totfact>
</mgrwt>
</event>
<event>
12    6  0.1510140E-007  0.1675925E+04  0.7818608E-02  0.8775216E-01
         -1   -1    0    0    0  501 -0.00000000000E+00  0.00000000000E+00  0.40534827977E+03  0.40534827977E+03  0.00000000000E+00 0.  1.
          2   -1    0    0  501    0  0.00000000000E+00 -0.00000000000E+00 -0.17322909618E+04  0.17322909618E+04  0.00000000000E+00 0. -1.
         24    2    1    2    0    0 -0.23280184210E+03  0.41219153104E+03 -0.35970038884E+02  0.48147614053E+03  0.80167788153E+02 0.  0.
        254    2    1    2    0    0  0.23280184210E+03 -0.41219153104E+03 -0.12909726432E+04  0.16561631011E+04  0.92312907871E+03 0.  0.
         23    2    4    4    0    0  0.44596065777E+03 -0.50238925633E+03 -0.54489075302E+03  0.86946481613E+03  0.88245456556E+02 0.  0.
         23    2    4    4    0    0 -0.21315881567E+03  0.90197725286E+02 -0.74608189013E+03  0.78669828492E+03  0.93186342225E+02 0.  0.
          2    1    3    3  502    0 -0.78807867204E+02  0.16578634871E+03 -0.51008407928E+02  0.19051942429E+03  0.00000000000E+00 0. -1.
         -1    1    3    3    0  502 -0.15399397490E+03  0.24640518233E+03  0.15038369044E+02  0.29095671624E+03  0.00000000000E+00 0.  1.
         11    1    5    5    0    0  0.71963242462E+01 -0.29248464236E+02 -0.40373483480E+02  0.50371399734E+02  0.00000000000E+00 0. -1.
        -11    1    5    5    0    0  0.43876433352E+03 -0.47314079209E+03 -0.50451726954E+03  0.81909341639E+03  0.00000000000E+00 0.  1.
          4    1    6    6  503    0 -0.11647411712E+02 -0.77383457461E+00 -0.39356199253E+01  0.12318690017E+02  0.00000000000E+00 0. -1.
         -4    1    6    6    0  503 -0.20151140396E+03  0.90971559861E+02 -0.74214627021E+03  0.77437959491E+03  0.00000000000E+00 0.  1.
<mgrwt>
<rscale>  0 0.16759250E+04</rscale>
<asrwt>0</asrwt>
<pdfrwt beam="1">  1        2 0.26650630E+00 0.16759250E+04</pdfrwt>
<pdfrwt beam="2">  1       -1 0.62361274E-01 0.16759250E+04</pdfrwt>
<totfact> 0.26650681E+01</totfact>
</mgrwt>
</event>
<event>
12    6  0.1510140E-007  0.1787666E+04  0.7818608E-02  0.8712886E-01
         -1   -1    0    0    0  501 -0.00000000000E+00  0.00000000000E+00  0.40839266084E+03  0.40839266084E+03  0.00000000000E+00 0.  1.
          2   -1    0    0  501    0  0.00000000000E+00 -0.00000000000E+00 -0.19562962006E+04  0.19562962006E+04  0.00000000000E+00 0. -1.
         24    2    1    2    0    0 -0.13792357553E+01  0.41343573997E+03  0.91292370421E+02  0.43111422784E+03  0.81204477553E+02 0.  0.
        254    2    1    2    0    0  0.13792357553E+01 -0.41343573997E+03 -0.16391959102E+04  0.19335746336E+04  0.93851831007E+03 0.  0.
         23    2    4    4    0    0  0.16863871014E+03 -0.30407099311E+03 -0.91586627703E+02  0.37039920414E+03  0.88934114067E+02 0.  0.
         23    2    4    4    0    0 -0.16725947439E+03 -0.10936474686E+03 -0.15476092825E+04  0.15631754295E+04  0.92122485807E+02 0.  0.
          2    1    3    3  502    0  0.44895584752E+01  0.13382467836E+03 -0.85036870967E+01  0.13416971852E+03  0.00000000000E+00 0. -1.
         -1    1    3    3    0  502 -0.58687942305E+01  0.27961106161E+03  0.99796057517E+02  0.29694450932E+03  0.00000000000E+00 0.  1.
         11    1    5    5    0    0  0.15557945524E+02 -0.70248769498E+02  0.10804484319E+02  0.72757653661E+02  0.00000000000E+00 0. -1.
        -11    1    5    5    0    0  0.15308076462E+03 -0.23382222361E+03 -0.10239111202E+03  0.29764155048E+03  0.00000000000E+00 0.  1.
          2    1    6    6  503    0 -0.12859682846E+03 -0.11533625907E+03 -0.13940279456E+04  0.14046898270E+04  0.00000000000E+00 0. -1.
         -2    1    6    6    0  503 -0.38662645926E+02  0.59715122088E+01 -0.15358133686E+03  0.15848560244E+03  0.00000000000E+00 0.  1.
<mgrwt>
<rscale>  0 0.17876655E+04</rscale>
<asrwt>0</asrwt>
<pdfrwt beam="1">  1        2 0.30096864E+00 0.17876655E+04</pdfrwt>
<pdfrwt beam="2">  1       -1 0.62829641E-01 0.17876655E+04</pdfrwt>
<totfact> 0.19538677E+01</totfact>
</mgrwt>
</event>
<event>
12    6  0.1510140E-007  0.1363213E+04  0.7818608E-02  0.8980886E-01
         -1   -1    0    0    0  501 -0.00000000000E+00  0.00000000000E+00  0.59704019400E+03  0.59704019400E+03  0.00000000000E+00 0.  1.
          2   -1    0    0  501    0  0.00000000000E+00 -0.00000000000E+00 -0.77815123458E+03  0.77815123458E+03  0.00000000000E+00 0. -1.
         24    2    1    2    0    0 -0.28384024732E+03  0.34826819660E+03  0.43252218629E+02  0.45875310001E+03  0.82022128688E+02 0.  0.
        254    2    1    2    0    0  0.28384024732E+03 -0.34826819660E+03 -0.22436325922E+03  0.91643832857E+03  0.76659266579E+03 0.  0.
         23    2    4    4    0    0  0.23903759966E+03 -0.41664268636E+02  0.23840875373E+03  0.35212269738E+03  0.90976781796E+02 0.  0.
         23    2    4    4    0    0  0.44802647660E+02 -0.30660392796E+03 -0.46277201294E+03  0.56431563120E+03  0.90999724027E+02 0.  0.
          4    1    3    3  502    0 -0.12650532022E+03  0.16350671516E+03 -0.20777321090E+02  0.20777328754E+03  0.00000000000E+00 0. -1.
         -3    1    3    3    0  502 -0.15733492710E+03  0.18476148144E+03  0.64029539719E+02  0.25097981246E+03  0.00000000000E+00 0.  1.
         11    1    5    5    0    0  0.61593463336E+02  0.26137206332E+02  0.42632877882E+02  0.79337699469E+02  0.00000000000E+00 0. -1.
        -11    1    5    5    0    0  0.17744413632E+03 -0.67801474967E+02  0.19577587584E+03  0.27278499791E+03  0.00000000000E+00 0.  1.
          3    1    6    6  503    0  0.22996767121E+01 -0.25296054376E+03 -0.34042430176E+03  0.42412619636E+03  0.00000000000E+00 0. -1.
         -3    1    6    6    0  503  0.42502970948E+02 -0.53643384201E+02 -0.12234771118E+03  0.14018943483E+03  0.00000000000E+00 0.  1.
<mgrwt>
<rscale>  0 0.13632132E+04</rscale>
<asrwt>0</asrwt>
<pdfrwt beam="1">  1        2 0.11971557E+00 0.13632132E+04</pdfrwt>
<pdfrwt beam="2">  1       -1 0.91852338E-01 0.13632132E+04</pdfrwt>
<totfact> 0.45992916E+01</totfact>
</mgrwt>
</event>
<event>
12    6  0.1510140E-007  0.3554321E+04  0.7818608E-02  0.8101036E-01
         -1   -1    0    0    0  501 -0.00000000000E+00  0.00000000000E+00  0.18887316412E+04  0.18887316412E+04  0.00000000000E+00 0.  1.
          2   -1    0    0  501    0  0.00000000000E+00 -0.00000000000E+00 -0.16721802780E+04  0.16721802780E+04  0.00000000000E+00 0. -1.
         24    2    1    2    0    0  0.15955316869E+04 -0.42226501337E+03  0.32402176869E+03  0.16838210009E+04  0.78955373762E+02 0.  0.
        254    2    1    2    0    0 -0.15955316869E+04  0.42226501337E+03 -0.10747040549E+03  0.18770909183E+04  0.88763242496E+03 0.  0.
         23    2    4    4    0    0 -0.87042217821E+03 -0.17969592824E+03  0.12426527538E+03  0.90194703472E+03  0.90228597655E+02 0.  0.
         23    2    4    4    0    0 -0.72510950871E+03  0.60196094161E+03 -0.23173568087E+03  0.97514388353E+03  0.95201853705E+02 0.  0.
          2    1    3    3  502    0  0.54626856615E+03 -0.13552346513E+03  0.73510640884E+02  0.56760881801E+03  0.00000000000E+00 0. -1.
         -1    1    3    3    0  502  0.10492631208E+04 -0.28674154824E+03  0.25051112781E+03  0.11162121829E+04  0.00000000000E+00 0.  1.
         11    1    5    5    0    0 -0.48546945749E+03 -0.98128916746E+02  0.11438054063E+03  0.50832350579E+03  0.00000000000E+00 0. -1.
        -11    1    5    5    0    0 -0.38495272072E+03 -0.81567011493E+02  0.98847347505E+01  0.39362352894E+03  0.00000000000E+00 0.  1.
          4    1    6    6  503    0 -0.68954792654E+03  0.54300059790E+03 -0.20518216646E+03  0.90134661133E+03  0.00000000000E+00 0. -1.
         -4    1    6    6    0  503 -0.35561582166E+02  0.58960343709E+02 -0.26553514412E+02  0.73797272200E+02  0.00000000000E+00 0.  1.
<mgrwt>
<rscale>  0 0.35543212E+04</rscale>
<asrwt>0</asrwt>
<pdfrwt beam="1">  1        2 0.25725850E+00 0.35543212E+04</pdfrwt>
<pdfrwt beam="2">  1       -1 0.29057410E+00 0.35543212E+04</pdfrwt>
<totfact> 0.35970436E-01</totfact>
</mgrwt>
</event>
<event>
12    6  0.1510140E-007  0.1457311E+04  0.7818608E-02  0.8913348E-01
         -1   -1    0    0    0  501 -0.00000000000E+00  0.00000000000E+00  0.71116675132E+03  0.71116675132E+03  0.00000000000E+00 0.  1.
          2   -1    0    0  501    0  0.00000000000E+00 -0.00000000000E+00 -0.74657429741E+03  0.74657429741E+03  0.00000000000E+00 0. -1.
         24    2    1    2    0    0 -0.32930169167E+03 -0.12811438128E+03  0.25586223001E+03  0.44363420302E+03  0.80578697669E+02 0.  0.
        254    2    1    2    0    0  0.32930169167E+03  0.12811438128E+03 -0.29126977611E+03  0.10141068457E+04  0.90483242273E+03 0.  0.
         23    2    4    4    0    0  0.34639399825E+03  0.37069302721E+03  0.11843807976E+03  0.52887865891E+03  0.91010629418E+02 0.  0.
         23    2    4    4    0    0 -0.17092306578E+02 -0.24257864593E+03 -0.40970785587E+03  0.48522818680E+03  0.91920181136E+02 0.  0.
          4    1    3    3  502    0 -0.10392927985E+03 -0.50940570166E+02  0.13053728220E+03  0.17445979177E+03  0.00000000000E+00 0. -1.
         -3    1    3    3    0  502 -0.22537241182E+03 -0.77173811111E+02  0.12532494781E+03  0.26917441125E+03  0.00000000000E+00 0.  1.
         11    1    5    5    0    0  0.30190684003E+03  0.31627056644E+03  0.68299918340E+02  0.44253778380E+03  0.00000000000E+00 0. -1.
        -11    1    5    5    0    0  0.44487158225E+02  0.54422460773E+02  0.50138161421E+02  0.86340875106E+02  0.00000000000E+00 0.  1.
          1    1    6    6  503    0 -0.53611197519E+00 -0.22959985948E+03 -0.40176146193E+03  0.46274037556E+03  0.00000000000E+00 0. -1.
         -1    1    6    6    0  503 -0.16556194603E+02 -0.12978786452E+02 -0.79463939418E+01  0.22487811236E+02  0.00000000000E+00 0.  1.
<mgrwt>
<rscale>  0 0.14573110E+04</rscale>
<asrwt>0</asrwt>
<pdfrwt beam="1">  1        2 0.11485758E+00 0.14573110E+04</pdfrwt>
<pdfrwt beam="2">  1       -1 0.10941027E+00 0.14573110E+04</pdfrwt>
<totfact> 0.32286357E+01</totfact>
</mgrwt>
</event>
<event>
12    6  0.1510140E-007  0.1458504E+04  0.7818608E-02  0.8912526E-01
         -1   -1    0    0    0  501 -0.00000000000E+00  0.00000000000E+00  0.25494379125E+03  0.25494379125E+03  0.00000000000E+00 0.  1.
          2   -1    0    0  501    0  0.00000000000E+00 -0.00000000000E+00 -0.20859820613E+04  0.20859820613E+04  0.00000000000E+00 0. -1.
         24    2    1    2    0    0  0.18229535731E+03 -0.38712074316E+03 -0.36356295239E+03  0.56736749479E+03  0.81448061422E+02 0.  0.
        254    2    1    2    0    0 -0.18229535731E+03  0.38712074316E+03 -0.14674753177E+04  0.17735583578E+04  0.89940612262E+03 0.  0.
         23    2    4    4    0    0  0.99052764118E+02  0.16667282654E+03 -0.13769210395E+04  0.13937157375E+04  0.94555416164E+02 0.  0.
         23    2    4    4    0    0 -0.28134812142E+03  0.22044791663E+03 -0.90554278185E+02  0.37984262030E+03  0.91248504237E+02 0.  0.
          4    1    3    3  502    0  0.17702079626E+03 -0.30085012025E+03 -0.29569890738E+03  0.45747677645E+03  0.00000000000E+00 0. -1.
         -3    1    3    3    0  502  0.52745610418E+01 -0.86270622915E+02 -0.67864045017E+02  0.10989071835E+03  0.00000000000E+00 0.  1.
         11    1    5    5    0    0 -0.68752755225E+01  0.49976332956E+02 -0.51837605442E+03  0.52082495818E+03  0.00000000000E+00 0.  1.
        -11    1    5    5    0    0  0.10592803964E+03  0.11669649358E+03 -0.85854498509E+03  0.87289077932E+03  0.00000000000E+00 0. -1.
          3    1    6    6  503    0 -0.24406894318E+03  0.18570942644E+03 -0.10924897893E+03  0.32556563008E+03  0.00000000000E+00 0. -1.
         -3    1    6    6    0  503 -0.37279178249E+02  0.34738490189E+02  0.18694700748E+02  0.54276990222E+02  0.00000000000E+00 0.  1.
<mgrwt>
<rscale>  0 0.14585036E+04</rscale>
<asrwt>0</asrwt>
<pdfrwt beam="1">  1        2 0.32092031E+00 0.14585036E+04</pdfrwt>
<pdfrwt beam="2">  1       -1 0.39222123E-01 0.14585036E+04</pdfrwt>
<totfact> 0.41733055E+01</totfact>
</mgrwt>
</event>
<event>
12    6  0.1510140E-007  0.1672288E+04  0.7818608E-02  0.8777329E-01
          2   -1    0    0  501    0  0.00000000000E+00  0.00000000000E+00  0.61027467943E+03  0.61027467943E+03  0.00000000000E+00 0. -1.
         -1   -1    0    0    0  501 -0.00000000000E+00 -0.00000000000E+00 -0.11456095819E+04  0.11456095819E+04  0.00000000000E+00 0.  1.
         24    2    1    2    0    0 -0.63829657199E+02 -0.42286843445E+03  0.23497629677E+03  0.49466870316E+03  0.81186993141E+02 0.  0.
        254    2    1    2    0    0  0.63829657199E+02  0.42286843445E+03 -0.77031119926E+03  0.12612155582E+04  0.90243747848E+03 0.  0.
         23    2    4    4    0    0  0.24666130043E+03  0.49909018966E+03 -0.12180044222E+03  0.57720055419E+03  0.91609592785E+02 0.  0.
         23    2    4    4    0    0 -0.18283164323E+03 -0.76221755216E+02 -0.64851075704E+03  0.68401500401E+03  0.89850753919E+02 0.  0.
          2    1    3    3  502    0 -0.10535760505E+01 -0.21862610752E+03  0.89849837140E+02  0.23637148336E+03  0.00000000000E+00 0. -1.
         -1    1    3    3    0  502 -0.62776081148E+02 -0.20424232692E+03  0.14512645963E+03  0.25829721980E+03  0.00000000000E+00 0.  1.
         11    1    5    5    0    0  0.67664363365E+02  0.23502416798E+03 -0.66249722349E+02  0.25338478904E+03  0.00000000000E+00 0. -1.
        -11    1    5    5    0    0  0.17899693706E+03  0.26406602168E+03 -0.55550719873E+02  0.32381576515E+03  0.00000000000E+00 0.  1.
          3    1    6    6  503    0 -0.22794838065E+02  0.75411339015E+01 -0.24166676448E+02  0.34066135582E+02  0.00000000000E+00 0. -1.
         -3    1    6    6    0  503 -0.16003680516E+03 -0.83762889117E+02 -0.62434408060E+03  0.64994886843E+03  0.00000000000E+00 0.  1.
<mgrwt>
<rscale>  0 0.16722877E+04</rscale>
<asrwt>0</asrwt>
<pdfrwt beam="1">  1        2 0.93888413E-01 0.16722877E+04</pdfrwt>
<pdfrwt beam="2">  1       -1 0.17624763E+00 0.16722877E+04</pdfrwt>
<totfact> 0.11722916E+01</totfact>
</mgrwt>
</event>
<event>
12    6  0.1510140E-007  0.1562383E+04  0.7818608E-02  0.8843997E-01
          2   -1    0    0  501    0  0.00000000000E+00  0.00000000000E+00  0.10680011047E+04  0.10680011047E+04  0.00000000000E+00 0. -1.
         -1   -1    0    0    0  501 -0.00000000000E+00 -0.00000000000E+00 -0.57140429254E+03  0.57140429254E+03  0.00000000000E+00 0.  1.
         24    2    1    2    0    0 -0.30079218134E+03  0.36265881083E+03 -0.60166696071E+02  0.48127766974E+03  0.77529443714E+02 0.  0.
        254    2    1    2    0    0  0.30079218134E+03 -0.36265881083E+03  0.55676350822E+03  0.11581277275E+04  0.89959817678E+03 0.  0.
         23    2    4    4    0    0  0.56635449879E+03 -0.34057799121E+03  0.18745145472E+03  0.69295704123E+03  0.91107775290E+02 0.  0.
         23    2    4    4    0    0 -0.26556231744E+03 -0.22080819623E+02  0.36931205350E+03  0.46517068626E+03  0.94770604402E+02 0.  0.
          2    1    3    3  502    0  0.55141839143E+00 -0.14541811714E+01 -0.52320750057E+01  0.54583251998E+01  0.00000000000E+00 0. -1.
         -1    1    3    3    0  502 -0.30134359974E+03  0.36411299200E+03 -0.54934621066E+02  0.47581934454E+03  0.00000000000E+00 0.  1.
         11    1    5    5    0    0  0.27371152409E+03 -0.11261639669E+03  0.91510644490E+02  0.30979775545E+03  0.00000000000E+00 0. -1.
        -11    1    5    5    0    0  0.29264297469E+03 -0.22796159452E+03  0.95940810233E+02  0.38315928578E+03  0.00000000000E+00 0.  1.
          3    1    6    6  503    0 -0.21189089680E+03 -0.29166100077E+02  0.22221706427E+03  0.30842963086E+03  0.00000000000E+00 0. -1.
         -3    1    6    6    0  503 -0.53671420646E+02  0.70852804541E+01  0.14709498923E+03  0.15674105540E+03  0.00000000000E+00 0.  1.
<mgrwt>
<rscale>  0 0.15623833E+04</rscale>
<asrwt>0</asrwt>
<pdfrwt beam="1">  1        2 0.16430786E+00 0.15623833E+04</pdfrwt>
<pdfrwt beam="2">  1       -1 0.87908353E-01 0.15623833E+04</pdfrwt>
<totfact> 0.31834005E+01</totfact>
</mgrwt>
</event>
<event>
12    6  0.1510140E-007  0.1901030E+04  0.7818608E-02  0.8654344E-01
          2   -1    0    0  501    0  0.00000000000E+00  0.00000000000E+00  0.17251454324E+04  0.17251454324E+04  0.00000000000E+00 0. -1.
         -1   -1    0    0    0  501 -0.00000000000E+00 -0.00000000000E+00 -0.52371139518E+03  0.52371139518E+03  0.00000000000E+00 0.  1.
         24    2    1    2    0    0 -0.44449809173E+03 -0.58358418657E+03  0.38454353080E+03  0.83184774559E+03  0.77122554433E+02 0.  0.
        254    2    1    2    0    0  0.44449809173E+03  0.58358418657E+03  0.81689050638E+03  0.14170090819E+04  0.89579885159E+03 0.  0.
         23    2    4    4    0    0  0.61743805756E+03  0.69111506191E+03  0.70037233550E+03  0.11653395486E+04  0.92871262661E+02 0.  0.
         23    2    4    4    0    0 -0.17293996583E+03 -0.10753087533E+03  0.11651817088E+03  0.25166953336E+03  0.91049156738E+02 0.  0.
          2    1    3    3  502    0  0.10754541569E+01 -0.80868413897E+01 -0.98696414606E+00  0.82175241728E+01  0.00000000000E+00 0. -1.
         -1    1    3    3    0  502 -0.44557354588E+03 -0.57549734518E+03  0.38553049494E+03  0.82363022142E+03  0.00000000000E+00 0.  1.
         11    1    5    5    0    0  0.61838595518E+03  0.68149703795E+03  0.68506817433E+03  0.11472392104E+04  0.00000000000E+00 0.  1.
        -11    1    5    5    0    0 -0.94789761440E+00  0.96180239610E+01  0.15304161173E+02  0.18100338229E+02  0.00000000000E+00 0. -1.
          1    1    6    6  503    0 -0.50388678995E+02  0.46467661295E+01  0.34818143275E+01  0.50722129660E+02  0.00000000000E+00 0. -1.
         -1    1    6    6    0  503 -0.12255128684E+03 -0.11217764146E+03  0.11303635655E+03  0.20094740370E+03  0.00000000000E+00 0.  1.
<mgrwt>
<rscale>  0 0.19010295E+04</rscale>
<asrwt>0</asrwt>
<pdfrwt beam="1">  1        2 0.26540699E+00 0.19010295E+04</pdfrwt>
<pdfrwt beam="2">  1       -1 0.80570985E-01 0.19010295E+04</pdfrwt>
<totfact> 0.15561164E+01</totfact>
</mgrwt>
</event>
<event>
12    6  0.1510140E-007  0.2416409E+04  0.7818608E-02  0.8433386E-01
         -1   -1    0    0    0  501 -0.00000000000E+00  0.00000000000E+00  0.46183831443E+03  0.46183831443E+03  0.00000000000E+00 0.  1.
          2   -1    0    0  501    0  0.00000000000E+00 -0.00000000000E+00 -0.31607549422E+04  0.31607549422E+04  0.00000000000E+00 0. -1.
         24    2    1    2    0    0 -0.95790907745E+03  0.23520619950E+03 -0.16259170070E+04  0.19033602258E+04  0.79134560123E+02 0.  0.
        254    2    1    2    0    0  0.95790907745E+03 -0.23520619950E+03 -0.10729996208E+04  0.17192330308E+04  0.91187843000E+03 0.  0.
         23    2    4    4    0    0  0.21031096252E+02  0.23437882468E+03 -0.65858352416E+02  0.26295798043E+03  0.97127938403E+02 0.  0.
         23    2    4    4    0    0  0.93687798120E+03 -0.46958502419E+03 -0.10071412683E+04  0.14562750504E+04  0.90294193284E+02 0.  0.
          2    1    3    3  502    0 -0.76070122680E+03  0.15633031643E+03 -0.13019828387E+04  0.15160029145E+04  0.00000000000E+00 0. -1.
         -1    1    3    3    0  502 -0.19720785065E+03  0.78875883076E+02 -0.32393416827E+03  0.38735731136E+03  0.00000000000E+00 0.  1.
         11    1    5    5    0    0  0.48938961517E+02  0.19101473153E+03 -0.74271033307E+02  0.21070794006E+03  0.00000000000E+00 0.  1.
        -11    1    5    5    0    0 -0.27907865265E+02  0.43364093148E+02  0.84126808904E+01  0.52250040363E+02  0.00000000000E+00 0. -1.
          1    1    6    6  503    0  0.14674831643E+03 -0.10124012110E+03 -0.20419407864E+03  0.27107167363E+03  0.00000000000E+00 0. -1.
         -1    1    6    6    0  503  0.79012966477E+03 -0.36834490309E+03 -0.80294718971E+03  0.11852033767E+04  0.00000000000E+00 0.  1.
<mgrwt>
<rscale>  0 0.24164087E+04</rscale>
<asrwt>0</asrwt>
<pdfrwt beam="1">  1        2 0.48626999E+00 0.24164087E+04</pdfrwt>
<pdfrwt beam="2">  1       -1 0.71052048E-01 0.24164087E+04</pdfrwt>
<totfact> 0.28126634E+00</totfact>
</mgrwt>
</event>
<event>
12    6  0.1510140E-007  0.1284504E+04  0.7818608E-02  0.9041945E-01
          2   -1    0    0  501    0  0.00000000000E+00  0.00000000000E+00  0.98121678923E+03  0.98121678923E+03  0.00000000000E+00 0. -1.
         -1   -1    0    0    0  501 -0.00000000000E+00 -0.00000000000E+00 -0.42038355192E+03  0.42038355192E+03  0.00000000000E+00 0.  1.
         24    2    1    2    0    0  0.25382197953E+03 -0.11240816147E+03  0.30003567452E+03  0.41644295240E+03  0.79637519819E+02 0.  0.
        254    2    1    2    0    0 -0.25382197953E+03  0.11240816147E+03  0.26079756280E+03  0.98515738875E+03  0.90854747801E+03 0.  0.
         23    2    4    4    0    0 -0.54496176501E+03 -0.27210463364E+02  0.32761203733E+03  0.64363737200E+03  0.95998359295E+02 0.  0.
         23    2    4    4    0    0  0.29113978549E+03  0.13961862484E+03 -0.66814474536E+02  0.34152001675E+03  0.88971977271E+02 0.  0.
          4    1    3    3  502    0  0.16041485901E+03 -0.41927506732E+02  0.13329577858E+03  0.21274070461E+03  0.00000000000E+00 0. -1.
         -3    1    3    3    0  502  0.93407120519E+02 -0.70480654740E+02  0.16673989594E+03  0.20370224779E+03  0.00000000000E+00 0.  1.
         11    1    5    5    0    0 -0.15151440964E+03 -0.48057910479E+02  0.11253478996E+03  0.19475692039E+03  0.00000000000E+00 0.  1.
        -11    1    5    5    0    0 -0.39344735537E+03  0.20847447115E+02  0.21507724737E+03  0.44888045161E+03  0.00000000000E+00 0. -1.
          4    1    6    6  503    0  0.19907313760E+03  0.13315420753E+03 -0.27041660327E+02  0.24102159341E+03  0.00000000000E+00 0. -1.
         -4    1    6    6    0  503  0.92066647884E+02  0.64644173101E+01 -0.39772814209E+02  0.10049842334E+03  0.00000000000E+00 0.  1.
<mgrwt>
<rscale>  0 0.12845036E+04</rscale>
<asrwt>0</asrwt>
<pdfrwt beam="1">  1        2 0.15095643E+00 0.12845036E+04</pdfrwt>
<pdfrwt beam="2">  1       -1 0.64674393E-01 0.12845036E+04</pdfrwt>
<totfact> 0.70299225E+01</totfact>
</mgrwt>
</event>
<event>
12    6  0.1510140E-007  0.2167521E+04  0.7818608E-02  0.8532069E-01
          2   -1    0    0  501    0  0.00000000000E+00  0.00000000000E+00  0.36638953320E+04  0.36638953320E+04  0.00000000000E+00 0. -1.
         -1   -1    0    0    0  501 -0.00000000000E+00 -0.00000000000E+00 -0.32057061316E+03  0.32057061316E+03  0.00000000000E+00 0.  1.
         24    2    1    2    0    0  0.32467220821E+03 -0.81405878590E+03  0.10761703377E+04  0.13903798671E+04  0.83125383549E+02 0.  0.
        254    2    1    2    0    0 -0.32467220821E+03  0.81405878590E+03  0.22671543812E+04  0.25940860781E+04  0.90619525645E+03 0.  0.
         23    2    4    4    0    0 -0.36610702758E+03  0.89793429136E+03  0.22634244353E+04  0.24641546068E+04  0.92991422630E+02 0.  0.
         23    2    4    4    0    0  0.41434819370E+02 -0.83875505457E+02  0.37299458441E+01  0.12993147126E+03  0.90090676860E+02 0.  0.
          2    1    3    3  502    0  0.76929286861E+00 -0.36318929557E+02  0.29739796452E+02  0.46947970656E+02  0.00000000000E+00 0. -1.
         -1    1    3    3    0  502  0.32390291534E+03 -0.77773985634E+03  0.10464305413E+04  0.13434318964E+04  0.00000000000E+00 0.  1.
         11    1    5    5    0    0 -0.37018246754E+03  0.86891639276E+03  0.22060414167E+04  0.23997227942E+04  0.00000000000E+00 0. -1.
        -11    1    5    5    0    0  0.40754399607E+01  0.29017898600E+02  0.57383018621E+02  0.64431812609E+02  0.00000000000E+00 0.  1.
          2    1    6    6  503    0  0.65642792459E+02 -0.81801160284E+02  0.82924166492E+01  0.10521012404E+03  0.00000000000E+00 0. -1.
         -2    1    6    6    0  503 -0.24207973089E+02 -0.20743451728E+01 -0.45624708051E+01  0.24721347229E+02  0.00000000000E+00 0.  1.
<mgrwt>
<rscale>  0 0.21675213E+04</rscale>
<asrwt>0</asrwt>
<pdfrwt beam="1">  1        2 0.56367617E+00 0.21675213E+04</pdfrwt>
<pdfrwt beam="2">  1       -1 0.49318559E-01 0.21675213E+04</pdfrwt>
<totfact> 0.26793880E+00</totfact>
</mgrwt>
</event>
<event>
12    6  0.1510140E-007  0.1454511E+04  0.7818608E-02  0.8915279E-01
         -3   -1    0    0    0  501 -0.00000000000E+00  0.00000000000E+00  0.67230186177E+03  0.67230186177E+03  0.00000000000E+00 0.  1.
          2   -1    0    0  501    0  0.00000000000E+00 -0.00000000000E+00 -0.78670071003E+03  0.78670071003E+03  0.00000000000E+00 0. -1.
         24    2    1    2    0    0 -0.15871757393E+03  0.31441106449E+03  0.22847498483E+03  0.42685146850E+03  0.77173646518E+02 0.  0.
        254    2    1    2    0    0  0.15871757393E+03 -0.31441106449E+03 -0.34287383309E+03  0.10321511033E+04  0.90759453992E+03 0.  0.
         23    2    4    4    0    0 -0.30483915406E+03 -0.34782602541E+03 -0.29311915214E+03  0.55625353812E+03  0.97925009692E+02 0.  0.
         23    2    4    4    0    0  0.46355672799E+03  0.33414960922E+02 -0.49754680953E+02  0.47589756519E+03  0.89451465029E+02 0.  0.
          4    1    3    3  502    0 -0.60344699210E+01  0.17236983264E+02 -0.53778800470E+01  0.19038119998E+02  0.00000000000E+00 0. -1.
         -3    1    3    3    0  502 -0.15268310401E+03  0.29717408123E+03  0.23385286488E+03  0.40781334850E+03  0.00000000000E+00 0.  1.
         11    1    5    5    0    0 -0.19675540478E+02 -0.36747099930E+02  0.12853614050E+01  0.41702858419E+02  0.00000000000E+00 0. -1.
        -11    1    5    5    0    0 -0.28516361358E+03 -0.31107892548E+03 -0.29440451355E+03  0.51455067970E+03  0.00000000000E+00 0.  1.
          1    1    6    6  503    0  0.87061232262E+02 -0.27936173719E+02 -0.19688278470E+01  0.91454711459E+02  0.00000000000E+00 0. -1.
         -1    1    6    6    0  503  0.37649549573E+03  0.61351134641E+02 -0.47785853106E+02  0.38444285373E+03  0.00000000000E+00 0.  1.
<mgrwt>
<rscale>  0 0.14545107E+04</rscale>
<asrwt>0</asrwt>
<pdfrwt beam="1">  1        2 0.12103088E+00 0.14545107E+04</pdfrwt>
<pdfrwt beam="2">  1       -3 0.10343106E+00 0.14545107E+04</pdfrwt>
<totfact> 0.17426231E+01</totfact>
</mgrwt>
</event>
<event>
12    6  0.1510140E-007  0.1419792E+04  0.7818608E-02  0.8939616E-01
          2   -1    0    0  501    0  0.00000000000E+00  0.00000000000E+00  0.50156992891E+03  0.50156992891E+03  0.00000000000E+00 0. -1.
         -1   -1    0    0    0  501 -0.00000000000E+00 -0.00000000000E+00 -0.10047496335E+04  0.10047496335E+04  0.00000000000E+00 0.  1.
         24    2    1    2    0    0  0.30118362431E+03  0.13703774082E+03 -0.42024492248E+03  0.54089767760E+03  0.80458590559E+02 0.  0.
        254    2    1    2    0    0 -0.30118362431E+03 -0.13703774082E+03 -0.82934782096E+02  0.96542188480E+03  0.90314468365E+03 0.  0.
         23    2    4    4    0    0  0.26636693275E+03 -0.11148507402E+03  0.15842810732E+03  0.34145993934E+03  0.90084185032E+02 0.  0.
         23    2    4    4    0    0 -0.56755055706E+03 -0.25552666803E+02 -0.24136288942E+03  0.62396194546E+03  0.91136663258E+02 0.  0.
          2    1    3    3  502    0  0.18462499339E+03  0.84828779718E+02 -0.19306911811E+03  0.28028199090E+03  0.00000000000E+00 0. -1.
         -1    1    3    3    0  502  0.11655863092E+03  0.52208961101E+02 -0.22717580438E+03  0.26061568670E+03  0.00000000000E+00 0.  1.
         11    1    5    5    0    0  0.46512027558E+02 -0.26664723770E+02  0.73494749698E+02  0.90971723268E+02  0.00000000000E+00 0. -1.
        -11    1    5    5    0    0  0.21985490519E+03 -0.84820350246E+02  0.84933357622E+02  0.25048821607E+03  0.00000000000E+00 0.  1.
          4    1    6    6  503    0 -0.12877479232E+03  0.29154879374E+02 -0.72601265594E+02  0.15067812679E+03  0.00000000000E+00 0. -1.
         -4    1    6    6    0  503 -0.43877576474E+03 -0.54707546177E+02 -0.16876162382E+03  0.47328381866E+03  0.00000000000E+00 0.  1.
<mgrwt>
<rscale>  0 0.14197918E+04</rscale>
<asrwt>0</asrwt>
<pdfrwt beam="1">  1        2 0.77164605E-01 0.14197918E+04</pdfrwt>
<pdfrwt beam="2">  1       -1 0.15457687E+00 0.14197918E+04</pdfrwt>
<totfact> 0.21923184E+01</totfact>
</mgrwt>
</event>
<event>
12    6  0.1510140E-007  0.1457157E+04  0.7818608E-02  0.8913454E-01
         -1   -1    0    0    0  501 -0.00000000000E+00  0.00000000000E+00  0.30366746253E+03  0.30366746253E+03  0.00000000000E+00 0.  1.
          2   -1    0    0  501    0  0.00000000000E+00 -0.00000000000E+00 -0.17480516081E+04  0.17480516081E+04  0.00000000000E+00 0. -1.
         24    2    1    2    0    0 -0.42950910071E+03 -0.11630638816E+03 -0.33234210634E+03  0.56109425123E+03  0.79813780707E+02 0.  0.
        254    2    1    2    0    0  0.42950910071E+03  0.11630638816E+03 -0.11120420392E+04  0.14906248194E+04  0.88731032433E+03 0.  0.
         23    2    4    4    0    0 -0.15312764381E+03  0.98372111666E+02 -0.79441967769E+03  0.82024805938E+03  0.92623468712E+02 0.  0.
         23    2    4    4    0    0  0.58263674453E+03  0.17934276496E+02 -0.31762236152E+03  0.67037676001E+03  0.93454916812E+02 0.  0.
          2    1    3    3  502    0 -0.25109794881E+03 -0.46037246330E+02 -0.14788222271E+03  0.29502332067E+03  0.00000000000E+00 0. -1.
         -1    1    3    3    0  502 -0.17841115190E+03 -0.70269141832E+02 -0.18445988364E+03  0.26607093056E+03  0.00000000000E+00 0.  1.
         11    1    5    5    0    0 -0.14736455731E+03  0.99441573801E+02 -0.60106735524E+03  0.62680691197E+03  0.00000000000E+00 0. -1.
        -11    1    5    5    0    0 -0.57630865032E+01 -0.10694621354E+01 -0.19335232244E+03  0.19344114741E+03  0.00000000000E+00 0.  1.
          3    1    6    6  503    0  0.58172635455E+03  0.18171817906E+02 -0.30381213956E+03  0.65653452513E+03  0.00000000000E+00 0. -1.
         -3    1    6    6    0  503  0.91038997692E+00 -0.23754140959E+00 -0.13810221962E+02  0.13842234880E+02  0.00000000000E+00 0.  1.
<mgrwt>
<rscale>  0 0.14571567E+04</rscale>
<asrwt>0</asrwt>
<pdfrwt beam="1">  1        2 0.26893102E+00 0.14571567E+04</pdfrwt>
<pdfrwt beam="2">  1       -1 0.46718071E-01 0.14571567E+04</pdfrwt>
<totfact> 0.46482402E+01</totfact>
</mgrwt>
</event>
<event>
12    6  0.1510140E-007  0.1880656E+04  0.7818608E-02  0.8664546E-01
         -1   -1    0    0    0  501 -0.00000000000E+00  0.00000000000E+00  0.27572368783E+03  0.27572368783E+03  0.00000000000E+00 0.  1.
          2   -1    0    0  501    0  0.00000000000E+00 -0.00000000000E+00 -0.32068927455E+04  0.32068927455E+04  0.00000000000E+00 0. -1.
         24    2    1    2    0    0  0.14181237522E+03  0.66360082413E+03 -0.17842295254E+04  0.19106774983E+04  0.82077400343E+02 0.  0.
        254    2    1    2    0    0 -0.14181237522E+03 -0.66360082413E+03 -0.11469395324E+04  0.15719389351E+04  0.83369354157E+03 0.  0.
         23    2    4    4    0    0  0.33365675094E+02 -0.68292172560E+03 -0.39640460635E+03  0.79558533151E+03  0.91236265808E+02 0.  0.
         23    2    4    4    0    0 -0.17517805031E+03  0.19320901469E+02 -0.75053492600E+03  0.77635360360E+03  0.91441763545E+02 0.  0.
          2    1    3    3  502    0  0.12834823039E+03  0.51680210652E+03 -0.14731137523E+04  0.15664041026E+04  0.00000000000E+00 0. -1.
         -1    1    3    3    0  502  0.13464144830E+02  0.14679871761E+03 -0.31111577309E+03  0.34427339565E+03  0.00000000000E+00 0.  1.
         11    1    5    5    0    0  0.95192210966E+01 -0.56015512074E+03 -0.35762236529E+03  0.66464887799E+03  0.00000000000E+00 0.  1.
        -11    1    5    5    0    0  0.23846453997E+02 -0.12276660486E+03 -0.38782241068E+02  0.13093645352E+03  0.00000000000E+00 0. -1.
          4    1    6    6  503    0 -0.13833142401E+03  0.21250723753E+01 -0.68792493073E+03  0.70169851726E+03  0.00000000000E+00 0.  1.
         -4    1    6    6    0  503 -0.36846626301E+02  0.17195829094E+02 -0.62609995273E+02  0.74655086338E+02  0.00000000000E+00 0. -1.
<mgrwt>
<rscale>  0 0.18806555E+04</rscale>
<asrwt>0</asrwt>
<pdfrwt beam="1">  1        2 0.49336813E+00 0.18806555E+04</pdfrwt>
<pdfrwt beam="2">  1       -1 0.42419027E-01 0.18806555E+04</pdfrwt>
<totfact> 0.75256859E+00</totfact>
</mgrwt>
</event>
<event>
12    6  0.1510140E-007  0.3738517E+04  0.7818608E-02  0.8059479E-01
         -1   -1    0    0    0  501 -0.00000000000E+00  0.00000000000E+00  0.12786736605E+04  0.12786736605E+04  0.00000000000E+00 0.  1.
          2   -1    0    0  501    0  0.00000000000E+00 -0.00000000000E+00 -0.27326183070E+04  0.27326183070E+04  0.00000000000E+00 0. -1.
         24    2    1    2    0    0  0.99708578207E+03  0.53003475016E+03 -0.21331127807E+04  0.24148435179E+04  0.78626886720E+02 0.  0.
        254    2    1    2    0    0 -0.99708578207E+03 -0.53003475016E+03  0.67916813431E+03  0.15964484496E+04  0.90125546014E+03 0.  0.
         23    2    4    4    0    0 -0.51989484603E+02  0.10926933911E+03  0.38570187722E+03  0.41479266230E+03  0.92974833275E+02 0.  0.
         23    2    4    4    0    0 -0.94509629747E+03 -0.63930408927E+03  0.29346625709E+03  0.11816557873E+04  0.90946278750E+02 0.  0.
          4    1    3    3  502    0  0.84746064617E+03  0.48085240505E+03 -0.18453430409E+04  0.20867916813E+04  0.00000000000E+00 0. -1.
         -3    1    3    3    0  502  0.14962513590E+03  0.49182345118E+02 -0.28776973979E+03  0.32805183662E+03  0.00000000000E+00 0.  1.
         11    1    5    5    0    0  0.86459586233E+01  0.86609168277E+02  0.19952193802E+03  0.21768073957E+03  0.00000000000E+00 0. -1.
        -11    1    5    5    0    0 -0.60635443226E+02  0.22660170830E+02  0.18617993920E+03  0.19711192272E+03  0.00000000000E+00 0.  1.
          1    1    6    6  503    0 -0.86715307127E+03 -0.60118604648E+03  0.29221099435E+03  0.10948819008E+04  0.00000000000E+00 0. -1.
         -1    1    6    6    0  503 -0.77943226200E+02 -0.38118042787E+02  0.12552627354E+01  0.86773886515E+02  0.00000000000E+00 0.  1.
<mgrwt>
<rscale>  0 0.37385168E+04</rscale>
<asrwt>0</asrwt>
<pdfrwt beam="1">  1        2 0.42040281E+00 0.37385168E+04</pdfrwt>
<pdfrwt beam="2">  1       -1 0.19671903E+00 0.37385168E+04</pdfrwt>
<totfact> 0.36851356E-01</totfact>
</mgrwt>
</event>
<event>
12    6  0.1510140E-007  0.1261986E+04  0.7818608E-02  0.9060266E-01
         -1   -1    0    0    0  501 -0.00000000000E+00  0.00000000000E+00  0.13445692204E+04  0.13445692204E+04  0.00000000000E+00 0.  1.
          2   -1    0    0  501    0  0.00000000000E+00 -0.00000000000E+00 -0.29611887679E+03  0.29611887679E+03  0.00000000000E+00 0. -1.
         24    2    1    2    0    0  0.12807934549E+03  0.91191796794E+02  0.58535095076E+03  0.61155458590E+03  0.81504683510E+02 0.  0.
        254    2    1    2    0    0 -0.12807934549E+03 -0.91191796794E+02  0.46309939280E+03  0.10291335112E+04  0.90550233229E+03 0.  0.
         23    2    4    4    0    0  0.18080897492E+03 -0.33776420846E+03 -0.24748355145E+02  0.39466484902E+03  0.91494896246E+02 0.  0.
         23    2    4    4    0    0 -0.30888832042E+03  0.24657241167E+03  0.48784774795E+03  0.63446866222E+03  0.91351570709E+02 0.  0.
          4    1    3    3  502    0 -0.42891935460E+01  0.76500540477E+01  0.42583226031E+01  0.97495548411E+01  0.00000000000E+00 0. -1.
         -3    1    3    3    0  502  0.13236853904E+03  0.83541742746E+02  0.58109262816E+03  0.60180503106E+03  0.00000000000E+00 0.  1.
         11    1    5    5    0    0  0.13427397923E+03 -0.18036313837E+03 -0.44903506495E+02  0.22929607078E+03  0.00000000000E+00 0. -1.
        -11    1    5    5    0    0  0.46534995696E+02 -0.15740107009E+03  0.20155151350E+02  0.16536877824E+03  0.00000000000E+00 0.  1.
          1    1    6    6  503    0 -0.28887457865E+03  0.21634063156E+03  0.47377026691E+03  0.59557539982E+03  0.00000000000E+00 0. -1.
         -1    1    6    6    0  503 -0.20013741765E+02  0.30231780107E+02  0.14077481036E+02  0.38893262401E+02  0.00000000000E+00 0.  1.
<mgrwt>
<rscale>  0 0.12619863E+04</rscale>
<asrwt>0</asrwt>
<pdfrwt beam="1">  1        2 0.45556751E-01 0.12619863E+04</pdfrwt>
<pdfrwt beam="2">  1       -1 0.20685680E+00 0.12619863E+04</pdfrwt>
<totfact> 0.16942700E+01</totfact>
</mgrwt>
</event>
<event>
12    6  0.1707745E-007  0.2733512E+04  0.7818608E-02  0.8324213E-01
          2   -1    0    0  501    0  0.00000000000E+00  0.00000000000E+00  0.17314234511E+04  0.17314234511E+04  0.00000000000E+00 0. -1.
         -1   -1    0    0    0  501 -0.00000000000E+00 -0.00000000000E+00 -0.10788938776E+04  0.10788938776E+04  0.00000000000E+00 0.  1.
         24    2    1    2    0    0  0.58784823179E+03  0.26854487811E+02  0.13853574880E+04  0.15071838267E+04  0.78108968422E+02 0.  0.
        254    2    1    2    0    0 -0.58784823179E+03 -0.26854487811E+02 -0.73282791449E+03  0.13031335020E+04  0.90268126408E+03 0.  0.
         23    2    4    4    0    0 -0.20399249684E+03 -0.18395089727E+03 -0.81962457391E+03  0.86841605316E+03  0.83133193427E+02 0.  0.
         23    2    4    4    0    0 -0.38385573495E+03  0.15709640946E+03  0.86796659419E+02  0.43471744880E+03  0.97062315444E+02 0.  0.
          2    1    3    3  502    0  0.47881635867E+03  0.48736019777E+02  0.10874181865E+04  0.11891671948E+04  0.00000000000E+00 0. -1.
         -1    1    3    3    0  502  0.10903187312E+03 -0.21881531966E+02  0.29793930152E+03  0.31801663194E+03  0.00000000000E+00 0.  1.
         11    1    5    5    0    0 -0.13584826217E+03 -0.12911764767E+03 -0.66347557930E+03  0.68943887445E+03  0.00000000000E+00 0. -1.
        -11    1    5    5    0    0 -0.68144234666E+02 -0.54833249604E+02 -0.15614899461E+03  0.17897717871E+03  0.00000000000E+00 0.  1.
          2    1    6    6  503    0 -0.35320651470E+03  0.11194692021E+03  0.66198859787E+02  0.37638975013E+03  0.00000000000E+00 0. -1.
         -2    1    6    6    0  503 -0.30649220259E+02  0.45149489245E+02  0.20597799632E+02  0.58327698663E+02  0.00000000000E+00 0.  1.
<mgrwt>
<rscale>  0 0.27335121E+04</rscale>
<asrwt>0</asrwt>
<pdfrwt beam="1">  1        2 0.26637284E+00 0.27335121E+04</pdfrwt>
<pdfrwt beam="2">  1       -1 0.16598367E+00 0.27335121E+04</pdfrwt>
<totfact> 0.24719908E+00</totfact>
</mgrwt>
</event>
<event>
12    6  0.1510140E-007  0.2491613E+04  0.7818608E-02  0.8405980E-01
          2   -1    0    0  501    0  0.00000000000E+00  0.00000000000E+00  0.17492980647E+04  0.17492980647E+04  0.00000000000E+00 0. -1.
         -1   -1    0    0    0  501 -0.00000000000E+00 -0.00000000000E+00 -0.88723215986E+03  0.88723215986E+03  0.00000000000E+00 0.  1.
         24    2    1    2    0    0 -0.92693870429E+03 -0.49315134335E+03  0.10489808520E+03  0.10581426971E+04  0.79049036986E+02 0.  0.
        254    2    1    2    0    0  0.92693870429E+03  0.49315134335E+03  0.75716781965E+03  0.15783875274E+04  0.90310047652E+03 0.  0.
         23    2    4    4    0    0  0.88971941203E+03  0.31275633457E+03  0.17700640114E+03  0.96331284638E+03  0.84989511128E+02 0.  0.
         23    2    4    4    0    0  0.37219292261E+02  0.18039500878E+03  0.58016141851E+03  0.61507468105E+03  0.88328686385E+02 0.  0.
          2    1    3    3  502    0 -0.33835794556E+03 -0.14508276751E+03  0.58533644371E+02  0.37277512829E+03  0.00000000000E+00 0. -1.
         -1    1    3    3    0  502 -0.58858075873E+03 -0.34806857584E+03  0.46364440829E+02  0.68536756884E+03  0.00000000000E+00 0.  1.
         11    1    5    5    0    0  0.84060874676E+03  0.29332036637E+03  0.14640610323E+03  0.90227193767E+03  0.00000000000E+00 0.  1.
        -11    1    5    5    0    0  0.49110665271E+02  0.19435968206E+02  0.30600297913E+02  0.61040908707E+02  0.00000000000E+00 0. -1.
          1    1    6    6  503    0  0.58467808585E+02  0.74691325145E+02  0.23340579233E+03  0.25194353055E+03  0.00000000000E+00 0. -1.
         -1    1    6    6    0  503 -0.21248516324E+02  0.10570368363E+03  0.34675562618E+03  0.36313115050E+03  0.00000000000E+00 0.  1.
<mgrwt>
<rscale>  0 0.24916127E+04</rscale>
<asrwt>0</asrwt>
<pdfrwt beam="1">  1        2 0.26912278E+00 0.24916127E+04</pdfrwt>
<pdfrwt beam="2">  1       -1 0.13649726E+00 0.24916127E+04</pdfrwt>
<totfact> 0.41884888E+00</totfact>
</mgrwt>
</event>
<event>
12    6  0.1510140E-007  0.1273593E+04  0.7818608E-02  0.9050772E-01
         -1   -1    0    0    0  501 -0.00000000000E+00  0.00000000000E+00  0.13493338480E+03  0.13493338480E+03  0.00000000000E+00 0.  1.
          2   -1    0    0  501    0  0.00000000000E+00 -0.00000000000E+00 -0.30052596013E+04  0.30052596013E+04  0.00000000000E+00 0. -1.
         24    2    1    2    0    0  0.23549473112E+03 -0.81388670237E+02 -0.22928884327E+03  0.34732200261E+03  0.77313102508E+02 0.  0.
        254    2    1    2    0    0 -0.23549473112E+03  0.81388670237E+02 -0.26410373732E+04  0.27928709835E+04  0.87348041744E+03 0.  0.
         23    2    4    4    0    0 -0.10805990973E+03  0.46749608908E+03 -0.15341744911E+04  0.16100451341E+04  0.91238299349E+02 0.  0.
         23    2    4    4    0    0 -0.12743482139E+03 -0.38610741884E+03 -0.11068628821E+04  0.11828258494E+04  0.92806129151E+02 0.  0.
          4    1    3    3  502    0  0.45310236018E+02  0.11917959208E+02 -0.60142329786E+02  0.76237491248E+02  0.00000000000E+00 0. -1.
         -3    1    3    3    0  502  0.19018449510E+03 -0.93306629446E+02 -0.16914651349E+03  0.27108451136E+03  0.00000000000E+00 0.  1.
         11    1    5    5    0    0 -0.29793662883E+02  0.24280202044E+03 -0.90180048939E+03  0.93438996471E+03  0.00000000000E+00 0. -1.
        -11    1    5    5    0    0 -0.78266246843E+02  0.22469406864E+03 -0.63237400172E+03  0.67565516939E+03  0.00000000000E+00 0.  1.
          2    1    6    6  503    0 -0.98924203665E+02 -0.21818577744E+03 -0.53611691478E+03  0.58720726993E+03  0.00000000000E+00 0. -1.
         -2    1    6    6    0  503 -0.28510617727E+02 -0.16792164141E+03 -0.57074596734E+03  0.59561857947E+03  0.00000000000E+00 0.  1.
<mgrwt>
<rscale>  0 0.12735931E+04</rscale>
<asrwt>0</asrwt>
<pdfrwt beam="1">  1        2 0.46234759E+00 0.12735931E+04</pdfrwt>
<pdfrwt beam="2">  1       -1 0.20758984E-01 0.12735931E+04</pdfrwt>
<totfact> 0.37587069E+01</totfact>
</mgrwt>
</event>
<event>
12    6  0.1510140E-007  0.1064756E+04  0.7818608E-02  0.9240241E-01
         -1   -1    0    0    0  501 -0.00000000000E+00  0.00000000000E+00  0.16050316536E+03  0.16050316536E+03  0.00000000000E+00 0.  1.
          2   -1    0    0  501    0  0.00000000000E+00 -0.00000000000E+00 -0.17658603840E+04  0.17658603840E+04  0.00000000000E+00 0. -1.
         24    2    1    2    0    0  0.88557680612E+02 -0.46597934033E+02 -0.77241977281E+02  0.14944305571E+03  0.79706170363E+02 0.  0.
        254    2    1    2    0    0 -0.88557680612E+02  0.46597934033E+02 -0.15281152414E+04  0.17769204937E+04  0.90127488573E+03 0.  0.
         23    2    4    4    0    0  0.26748971416E+03  0.24714785543E+03 -0.11615004029E+04  0.12203363151E+04  0.86629824073E+02 0.  0.
         23    2    4    4    0    0 -0.35604739477E+03 -0.20054992139E+03 -0.36661483851E+03  0.55658417859E+03  0.91594157810E+02 0.  0.
          2    1    3    3  502    0  0.37080255647E+01 -0.30329812291E+02 -0.50463026670E+02  0.58992915065E+02  0.00000000000E+00 0. -1.
         -3    1    3    3    0  502  0.84849655048E+02 -0.16268121741E+02 -0.26778950611E+02  0.90450140644E+02  0.00000000000E+00 0.  1.
         11    1    5    5    0    0  0.31071829838E+02  0.89679437937E+01 -0.52408346542E+02  0.61583418325E+02  0.00000000000E+00 0.  1.
        -11    1    5    5    0    0  0.23641788432E+03  0.23817991163E+03 -0.11090920564E+04  0.11587528968E+04  0.00000000000E+00 0. -1.
          1    1    6    6  503    0 -0.31388053666E+03 -0.20622231684E+03 -0.31928270781E+03  0.49294024259E+03  0.00000000000E+00 0. -1.
         -1    1    6    6    0  503 -0.42166858110E+02  0.56723954447E+01 -0.47332130699E+02  0.63643935999E+02  0.00000000000E+00 0.  1.
<mgrwt>
<rscale>  0 0.10647557E+04</rscale>
<asrwt>0</asrwt>
<pdfrwt beam="1">  1        2 0.27167082E+00 0.10647557E+04</pdfrwt>
<pdfrwt beam="2">  1       -1 0.24692795E-01 0.10647557E+04</pdfrwt>
<totfact> 0.14624991E+02</totfact>
</mgrwt>
</event>
<event>
12    6  0.1510140E-007  0.1390190E+04  0.7818608E-02  0.8960951E-01
          2   -1    0    0  501    0  0.00000000000E+00  0.00000000000E+00  0.16731154122E+04  0.16731154122E+04  0.00000000000E+00 0. -1.
         -1   -1    0    0    0  501 -0.00000000000E+00 -0.00000000000E+00 -0.28877670437E+03  0.28877670437E+03  0.00000000000E+00 0.  1.
         24    2    1    2    0    0 -0.26476168721E+03  0.29844885334E+03  0.37457500414E+03  0.55323940860E+03  0.81221551539E+02 0.  0.
        254    2    1    2    0    0  0.26476168721E+03 -0.29844885334E+03  0.10097637037E+04  0.14086527079E+04  0.89750166867E+03 0.  0.
         23    2    4    4    0    0  0.32386661777E+03  0.19742901978E+02 -0.71977621542E+01  0.33743002933E+03  0.92346351464E+02 0.  0.
         23    2    4    4    0    0 -0.59104930564E+02 -0.31819175532E+03  0.10169614658E+04  0.10712226786E+04  0.92563590218E+02 0.  0.
          2    1    3    3  502    0 -0.18889413668E+03  0.24547657205E+03  0.24991789524E+03  0.39799333746E+03  0.00000000000E+00 0. -1.
         -1    1    3    3    0  502 -0.75867550524E+02  0.52972281289E+02  0.12465710890E+03  0.15524607115E+03  0.00000000000E+00 0.  1.
         11    1    5    5    0    0  0.51914433976E+02 -0.20230611000E+02  0.24244417339E+02  0.60763293595E+02  0.00000000000E+00 0.  1.
        -11    1    5    5    0    0  0.27195218379E+03  0.39973512978E+02 -0.31442179493E+02  0.27666673573E+03  0.00000000000E+00 0. -1.
          1    1    6    6  503    0 -0.84247578788E+02 -0.24894203108E+03  0.80627901679E+03  0.84803044892E+03  0.00000000000E+00 0. -1.
         -1    1    6    6    0  503  0.25142648224E+02 -0.69249724237E+02  0.21068244902E+03  0.22319222968E+03  0.00000000000E+00 0.  1.
<mgrwt>
<rscale>  0 0.13901896E+04</rscale>
<asrwt>0</asrwt>
<pdfrwt beam="1">  1        2 0.25740236E+00 0.13901896E+04</pdfrwt>
<pdfrwt beam="2">  1       -1 0.44427186E-01 0.13901896E+04</pdfrwt>
<totfact> 0.56497207E+01</totfact>
</mgrwt>
</event>
<event>
12    6  0.1510140E-007  0.2423588E+04  0.7818608E-02  0.8430725E-01
         -1   -1    0    0    0  501 -0.00000000000E+00  0.00000000000E+00  0.84208813259E+03  0.84208813259E+03  0.00000000000E+00 0.  1.
          2   -1    0    0  501    0  0.00000000000E+00 -0.00000000000E+00 -0.17438134018E+04  0.17438134018E+04  0.00000000000E+00 0. -1.
         24    2    1    2    0    0  0.27902085206E+03 -0.38261550058E+03  0.60351302927E+03  0.77119112176E+03  0.79123401173E+02 0.  0.
        254    2    1    2    0    0 -0.27902085206E+03  0.38261550058E+03 -0.15052382985E+04  0.18147104126E+04  0.89620549502E+03 0.  0.
         23    2    4    4    0    0  0.25815320844E+03  0.26235073126E+03 -0.96958191893E+03  0.10412344718E+04  0.92785464916E+02 0.  0.
         23    2    4    4    0    0 -0.53717406049E+03  0.12026476931E+03 -0.53565637953E+03  0.77347594082E+03  0.91201360136E+02 0.  0.
          4    1    3    3  502    0  0.83523044041E+02 -0.93854738973E+02  0.21596121601E+03  0.24984806930E+03  0.00000000000E+00 0. -1.
         -3    1    3    3    0  502  0.19549780801E+03 -0.28876076160E+03  0.38755181326E+03  0.52134305245E+03  0.00000000000E+00 0.  1.
         11    1    5    5    0    0  0.17069914247E+03  0.10827285766E+03 -0.53626132752E+03  0.57309459982E+03  0.00000000000E+00 0. -1.
        -11    1    5    5    0    0  0.87454065970E+02  0.15407787360E+03 -0.43332059141E+03  0.46813987197E+03  0.00000000000E+00 0.  1.
          4    1    6    6  503    0 -0.87100320057E+02 -0.75593614586E+01 -0.11375879947E+03  0.14347360090E+03  0.00000000000E+00 0. -1.
         -4    1    6    6    0  503 -0.45007374043E+03  0.12782413077E+03 -0.42189758006E+03  0.63000233991E+03  0.00000000000E+00 0.  1.
<mgrwt>
<rscale>  0 0.24235879E+04</rscale>
<asrwt>0</asrwt>
<pdfrwt beam="1">  1        2 0.26827898E+00 0.24235879E+04</pdfrwt>
<pdfrwt beam="2">  1       -1 0.12955202E+00 0.24235879E+04</pdfrwt>
<totfact> 0.48466022E+00</totfact>
</mgrwt>
</event>
<event>
12    6  0.1510140E-007  0.1172431E+04  0.7818608E-02  0.9137336E-01
         -1   -1    0    0    0  501 -0.00000000000E+00  0.00000000000E+00  0.99346651267E+02  0.99346651267E+02  0.00000000000E+00 0.  1.
          2   -1    0    0  501    0  0.00000000000E+00 -0.00000000000E+00 -0.34590868506E+04  0.34590868506E+04  0.00000000000E+00 0. -1.
         24    2    1    2    0    0 -0.20302232453E+03  0.91782344406E+02 -0.42683163312E+03  0.48815684520E+03  0.80435063780E+02 0.  0.
        254    2    1    2    0    0  0.20302232453E+03 -0.91782344406E+02 -0.29329085662E+04  0.30702766567E+04  0.88034313066E+03 0.  0.
         23    2    4    4    0    0  0.84126720898E+02 -0.27802828735E+03 -0.27567394343E+04  0.27733789247E+04  0.87414632057E+02 0.  0.
         23    2    4    4    0    0  0.11889560363E+03  0.18624594295E+03 -0.17616913197E+03  0.29689773196E+03  0.91043859549E+02 0.  0.
          2    1    3    3  502    0 -0.92883562383E+02  0.30068300997E+02 -0.26820622550E+03  0.28542256092E+03  0.00000000000E+00 0. -1.
         -1    1    3    3    0  502 -0.11013876214E+03  0.61714043409E+02 -0.15862540762E+03  0.20273428428E+03  0.00000000000E+00 0.  1.
         11    1    5    5    0    0  0.80223354426E+02 -0.27167179268E+03 -0.27442525160E+04  0.27588336705E+04  0.00000000000E+00 0. -1.
        -11    1    5    5    0    0  0.39033664728E+01 -0.63564946713E+01 -0.12486918225E+02  0.14545254246E+02  0.00000000000E+00 0.  1.
          1    1    6    6  503    0  0.11554532183E+03  0.13870229643E+03 -0.17151256555E+03  0.24900925399E+03  0.00000000000E+00 0. -1.
         -1    1    6    6    0  503  0.33502818011E+01  0.47543646514E+02 -0.46565664201E+01  0.47888477976E+02  0.00000000000E+00 0.  1.
<mgrwt>
<rscale>  0 0.11724311E+04</rscale>
<asrwt>0</asrwt>
<pdfrwt beam="1">  1        2 0.53216727E+00 0.11724311E+04</pdfrwt>
<pdfrwt beam="2">  1       -1 0.15284098E-01 0.11724311E+04</pdfrwt>
<totfact> 0.32019618E+01</totfact>
</mgrwt>
</event>
<event>
12    6  0.1510140E-007  0.1525896E+04  0.7818608E-02  0.8867412E-01
          2   -1    0    0  501    0  0.00000000000E+00  0.00000000000E+00  0.24277000272E+04  0.24277000272E+04  0.00000000000E+00 0. -1.
         -1   -1    0    0    0  501 -0.00000000000E+00 -0.00000000000E+00 -0.23977010774E+03  0.23977010774E+03  0.00000000000E+00 0.  1.
         24    2    1    2    0    0  0.27581904575E+03 -0.38316667068E+03  0.44150989981E+03  0.65156087009E+03  0.81900746544E+02 0.  0.
        254    2    1    2    0    0 -0.27581904575E+03  0.38316667068E+03  0.17464200196E+04  0.20159092648E+04  0.88938992322E+03 0.  0.
         23    2    4    4    0    0 -0.14435565691E+01  0.32809785531E+03  0.16813209636E+04  0.17154983261E+04  0.91891444486E+02 0.  0.
         23    2    4    4    0    0 -0.27437548918E+03  0.55068815372E+02  0.65099056017E+02  0.30041093875E+03  0.87717509879E+02 0.  0.
          4    1    3    3  502    0  0.26755651330E+03 -0.38520947640E+03  0.43963262641E+03  0.64284498499E+03  0.00000000000E+00 0. -1.
         -1    1    3    3    0  502  0.82625324495E+01  0.20428057241E+01  0.18772734020E+01  0.87158851031E+01  0.00000000000E+00 0.  1.
         11    1    5    5    0    0  0.44578860993E+02  0.13431867295E+03  0.68655015995E+03  0.70098495197E+03  0.00000000000E+00 0. -1.
        -11    1    5    5    0    0 -0.46022417563E+02  0.19377918236E+03  0.99477080365E+03  0.10145133741E+04  0.00000000000E+00 0.  1.
          1    1    6    6  503    0 -0.19370659246E+03  0.60983009521E+02  0.79809340529E+02  0.21819876775E+03  0.00000000000E+00 0. -1.
         -1    1    6    6    0  503 -0.80668896718E+02 -0.59141941492E+01 -0.14710284512E+02  0.82212171000E+02  0.00000000000E+00 0.  1.
<mgrwt>
<rscale>  0 0.15258963E+04</rscale>
<asrwt>0</asrwt>
<pdfrwt beam="1">  1        2 0.37349229E+00 0.15258963E+04</pdfrwt>
<pdfrwt beam="2">  1       -1 0.36887711E-01 0.15258963E+04</pdfrwt>
<totfact> 0.29773993E+01</totfact>
</mgrwt>
</event>
<event>
12    6  0.1510140E-007  0.1120368E+04  0.7818608E-02  0.9185564E-01
         -1   -1    0    0    0  501 -0.00000000000E+00  0.00000000000E+00  0.53670502207E+03  0.53670502207E+03  0.00000000000E+00 0.  1.
          2   -1    0    0  501    0  0.00000000000E+00 -0.00000000000E+00 -0.58469013720E+03  0.58469013720E+03  0.00000000000E+00 0. -1.
         24    2    1    2    0    0  0.16984496992E+03  0.52771785473E+02  0.87175756160E+00  0.19502523100E+03  0.80011909217E+02 0.  0.
        254    2    1    2    0    0 -0.16984496992E+03 -0.52771785473E+02 -0.48856872692E+02  0.92636992827E+03  0.90782271113E+03 0.  0.
         23    2    4    4    0    0  0.34171745298E+03  0.87321949216E+02  0.80486676462E+02  0.37275205293E+03  0.89833442495E+02 0.  0.
         23    2    4    4    0    0 -0.51156242289E+03 -0.14009373469E+03 -0.12934354915E+03  0.55361787534E+03  0.91872907718E+02 0.  0.
          4    1    3    3  502    0  0.25929343879E+02  0.43117220244E+02 -0.57087031671E+01  0.50636102214E+02  0.00000000000E+00 0. -1.
         -3    1    3    3    0  502  0.14391562604E+03  0.96545652288E+01  0.65804607287E+01  0.14438912878E+03  0.00000000000E+00 0.  1.
         11    1    5    5    0    0  0.33433487382E+03  0.74972880315E+02  0.91486428856E+02  0.35464137844E+03  0.00000000000E+00 0.  1.
        -11    1    5    5    0    0  0.73825791535E+01  0.12349068900E+02 -0.10999752395E+02  0.18110674488E+02  0.00000000000E+00 0. -1.
          2    1    6    6  503    0 -0.27730032589E+03 -0.12126162241E+03 -0.86006029375E+02  0.31463771055E+03  0.00000000000E+00 0. -1.
         -2    1    6    6    0  503 -0.23426209700E+03 -0.18832112282E+02 -0.43337519779E+02  0.23898016479E+03  0.00000000000E+00 0.  1.
<mgrwt>
<rscale>  0 0.11203680E+04</rscale>
<asrwt>0</asrwt>
<pdfrwt beam="1">  1        2 0.89952328E-01 0.11203680E+04</pdfrwt>
<pdfrwt beam="2">  1       -1 0.82570004E-01 0.11203680E+04</pdfrwt>
<totfact> 0.84588090E+01</totfact>
</mgrwt>
</event>
<event>
12    6  0.1510140E-007  0.1886355E+04  0.7818608E-02  0.8661678E-01
         -1   -1    0    0    0  501 -0.00000000000E+00  0.00000000000E+00  0.11421384216E+04  0.11421384216E+04  0.00000000000E+00 0.  1.
          2   -1    0    0  501    0  0.00000000000E+00 -0.00000000000E+00 -0.77887547501E+03  0.77887547501E+03  0.00000000000E+00 0. -1.
         24    2    1    2    0    0 -0.86392291324E+02 -0.77642353656E+02  0.81528471759E+03  0.82757517651E+03  0.81850711399E+02 0.  0.
        254    2    1    2    0    0  0.86392291324E+02  0.77642353656E+02 -0.45202177101E+03  0.10934387201E+04  0.98883395474E+03 0.  0.
         23    2    4    4    0    0 -0.97139463500E+02 -0.67238916238E+02  0.28117026235E+03  0.31841650980E+03  0.91516173751E+02 0.  0.
         23    2    4    4    0    0  0.18353175482E+03  0.14488126989E+03 -0.73319203336E+03  0.77502221029E+03  0.91729936579E+02 0.  0.
          4    1    3    3  502    0 -0.19264167616E+02  0.15666240349E+02  0.95762773610E+02  0.98929510512E+02  0.00000000000E+00 0. -1.
         -3    1    3    3    0  502 -0.67128123708E+02 -0.93308594005E+02  0.71952194398E+03  0.72864566600E+03  0.00000000000E+00 0.  1.
         11    1    5    5    0    0 -0.12253507463E+02 -0.56829975182E+02  0.72702764315E+02  0.93088594701E+02  0.00000000000E+00 0. -1.
        -11    1    5    5    0    0 -0.84885956038E+02 -0.10408941055E+02  0.20846749804E+03  0.22532791510E+03  0.00000000000E+00 0.  1.
          1    1    6    6  503    0  0.76800158583E+02  0.81071584977E+02 -0.48158657080E+03  0.49436473521E+03  0.00000000000E+00 0. -1.
         -1    1    6    6    0  503  0.10673159624E+03  0.63809684917E+02 -0.25160546256E+03  0.28065747508E+03  0.00000000000E+00 0.  1.
<mgrwt>
<rscale>  0 0.18863548E+04</rscale>
<asrwt>0</asrwt>
<pdfrwt beam="1">  1        2 0.11982700E+00 0.18863548E+04</pdfrwt>
<pdfrwt beam="2">  1       -1 0.17571360E+00 0.18863548E+04</pdfrwt>
<totfact> 0.85365278E+00</totfact>
</mgrwt>
</event>
<event>
12    6  0.1510140E-007  0.1718040E+04  0.7818608E-02  0.8751142E-01
          2   -1    0    0  501    0  0.00000000000E+00  0.00000000000E+00  0.16179601828E+04  0.16179601828E+04  0.00000000000E+00 0. -1.
         -1   -1    0    0    0  501 -0.00000000000E+00 -0.00000000000E+00 -0.45607782560E+03  0.45607782560E+03  0.00000000000E+00 0.  1.
         24    2    1    2    0    0  0.40301090697E+03 -0.42983328673E+03  0.65182474087E+03  0.88224627509E+03  0.79426391027E+02 0.  0.
        254    2    1    2    0    0 -0.40301090697E+03  0.42983328673E+03  0.51005761631E+03  0.11917917333E+04  0.90168415648E+03 0.  0.
         23    2    4    4    0    0  0.10017528872E+02  0.61000635265E+03  0.31555962154E+03  0.69298726707E+03  0.91898729151E+02 0.  0.
         23    2    4    4    0    0 -0.41302843584E+03 -0.18017306592E+03  0.19449799477E+03  0.49880446622E+03  0.89003387864E+02 0.  0.
          2    1    3    3  502    0  0.25695039941E+03 -0.25014869679E+03  0.44724493232E+03  0.57325902326E+03  0.00000000000E+00 0. -1.
         -1    1    3    3    0  502  0.14606050755E+03 -0.17968458994E+03  0.20457980855E+03  0.30898725183E+03  0.00000000000E+00 0.  1.
         11    1    5    5    0    0 -0.22948132303E+01  0.46021126328E+03  0.27942909304E+03  0.53840532228E+03  0.00000000000E+00 0.  1.
        -11    1    5    5    0    0  0.12312342102E+02  0.14979508936E+03  0.36130528498E+02  0.15458194479E+03  0.00000000000E+00 0. -1.
          2    1    6    6  503    0 -0.50215720592E+02 -0.56620058202E+02  0.24758778245E+02  0.79626921864E+02  0.00000000000E+00 0. -1.
         -2    1    6    6    0  503 -0.36281271525E+03 -0.12355300772E+03  0.16973921653E+03  0.41917754435E+03  0.00000000000E+00 0.  1.
<mgrwt>
<rscale>  0 0.17180405E+04</rscale>
<asrwt>0</asrwt>
<pdfrwt beam="1">  1        2 0.24891695E+00 0.17180405E+04</pdfrwt>
<pdfrwt beam="2">  1       -1 0.70165820E-01 0.17180405E+04</pdfrwt>
<totfact> 0.24219437E+01</totfact>
</mgrwt>
</event>
<event>
12    6  0.1510140E-007  0.2192935E+04  0.7818608E-02  0.8521374E-01
          2   -1    0    0  501    0  0.00000000000E+00  0.00000000000E+00  0.20999653909E+04  0.20999653909E+04  0.00000000000E+00 0. -1.
         -1   -1    0    0    0  501 -0.00000000000E+00 -0.00000000000E+00 -0.57250533310E+03  0.57250533310E+03  0.00000000000E+00 0.  1.
         24    2    1    2    0    0 -0.63253028771E+03  0.64466268264E+03  0.76304111522E+03  0.11849462286E+04  0.78621129272E+02 0.  0.
        254    2    1    2    0    0  0.63253028771E+03 -0.64466268264E+03  0.76441894257E+03  0.14875244954E+04  0.90150333626E+03 0.  0.
         23    2    4    4    0    0  0.53551256997E+03  0.36435416765E+01  0.59269337717E+03  0.80367489011E+03  0.88435861845E+02 0.  0.
         23    2    4    4    0    0  0.97017717746E+02 -0.64830622431E+03  0.17172556540E+03  0.68384960526E+03  0.91908730591E+02 0.  0.
          2    1    3    3  502    0 -0.59219712725E+03  0.57227119911E+03  0.69987152569E+03  0.10807459994E+04  0.00000000000E+00 0. -1.
         -1    1    3    3    0  502 -0.40333160468E+02  0.72391483520E+02  0.63169589525E+02  0.10420022918E+03  0.00000000000E+00 0.  1.
         11    1    5    5    0    0  0.22972620350E+03  0.80512775174E+00  0.32018388118E+03  0.39407168710E+03  0.00000000000E+00 0. -1.
        -11    1    5    5    0    0  0.30578636647E+03  0.28384139247E+01  0.27250949599E+03  0.40960320301E+03  0.00000000000E+00 0.  1.
          1    1    6    6  503    0  0.75489373031E+01 -0.22411970466E+02 -0.10472942360E+02  0.25864365375E+02  0.00000000000E+00 0. -1.
         -1    1    6    6    0  503  0.89468780443E+02 -0.62589425385E+03  0.18219850776E+03  0.65798523988E+03  0.00000000000E+00 0.  1.
<mgrwt>
<rscale>  0 0.21929354E+04</rscale>
<asrwt>0</asrwt>
<pdfrwt beam="1">  1        2 0.32307159E+00 0.21929354E+04</pdfrwt>
<pdfrwt beam="2">  1       -1 0.88077745E-01 0.21929354E+04</pdfrwt>
<totfact> 0.77477669E+00</totfact>
</mgrwt>
</event>
<event>
12    6  0.1510140E-007  0.2147883E+04  0.7818608E-02  0.8540439E-01
         -1   -1    0    0    0  501 -0.00000000000E+00  0.00000000000E+00  0.63305696267E+03  0.63305696267E+03  0.00000000000E+00 0.  1.
          2   -1    0    0  501    0  0.00000000000E+00 -0.00000000000E+00 -0.18218736700E+04  0.18218736700E+04  0.00000000000E+00 0. -1.
         24    2    1    2    0    0 -0.62139209778E+03 -0.51593800622E+02 -0.12116587008E+04  0.13649840781E+04  0.79212793557E+02 0.  0.
        254    2    1    2    0    0  0.62139209778E+03  0.51593800622E+02  0.22841993505E+02  0.10899465546E+04  0.89368432667E+03 0.  0.
         23    2    4    4    0    0 -0.14654502721E+02 -0.20826674097E+03  0.27081071220E+03  0.35375427678E+03  0.90630329670E+02 0.  0.
         23    2    4    4    0    0  0.63604660051E+03  0.25986054159E+03 -0.24796871869E+03  0.73619227780E+03  0.91694085731E+02 0.  0.
          4    1    3    3  502    0 -0.56302976583E+03 -0.52307926074E+02 -0.11402536330E+04  0.12727595940E+04  0.00000000000E+00 0. -1.
         -3    1    3    3    0  502 -0.58362331954E+02  0.71412545184E+00 -0.71405067795E+02  0.92224484130E+02  0.00000000000E+00 0.  1.
         11    1    5    5    0    0 -0.26434341389E+02 -0.91884190921E+01  0.38274507965E+02  0.47414548507E+02  0.00000000000E+00 0. -1.
        -11    1    5    5    0    0  0.11779838668E+02 -0.19907832188E+03  0.23253620423E+03  0.30633972828E+03  0.00000000000E+00 0.  1.
          3    1    6    6  503    0  0.63587246928E+01 -0.24294457617E+01  0.52307649444E+01  0.85846658835E+01  0.00000000000E+00 0. -1.
         -3    1    6    6    0  503  0.62968787581E+03  0.26228998736E+03 -0.25319948364E+03  0.72760761192E+03  0.00000000000E+00 0.  1.
<mgrwt>
<rscale>  0 0.21478825E+04</rscale>
<asrwt>0</asrwt>
<pdfrwt beam="1">  1        2 0.28028825E+00 0.21478825E+04</pdfrwt>
<pdfrwt beam="2">  1       -1 0.97393380E-01 0.21478825E+04</pdfrwt>
<totfact> 0.88768231E+00</totfact>
</mgrwt>
</event>
<event>
12    6  0.1510140E-007  0.1217956E+04  0.7818608E-02  0.9097283E-01
          2   -1    0    0  501    0  0.00000000000E+00  0.00000000000E+00  0.22313480502E+04  0.22313480502E+04  0.00000000000E+00 0. -1.
         -1   -1    0    0    0  501 -0.00000000000E+00 -0.00000000000E+00 -0.16620189105E+03  0.16620189105E+03  0.00000000000E+00 0.  1.
         24    2    1    2    0    0  0.34202694198E+02 -0.19236606674E+03  0.82657344765E+03  0.85360972409E+03  0.85154969171E+02 0.  0.
        254    2    1    2    0    0 -0.34202694198E+02  0.19236606674E+03  0.12385727115E+04  0.15439402172E+04  0.90084099852E+03 0.  0.
         23    2    4    4    0    0  0.24996473046E+03  0.23637275901E+02  0.87472930053E+01  0.26733519773E+03  0.91381100466E+02 0.  0.
         23    2    4    4    0    0 -0.28416742466E+03  0.16872879084E+03  0.12298254185E+04  0.12766050195E+04  0.89606281012E+02 0.  0.
          4    1    3    3  502    0  0.30229017669E+02 -0.19979104555E+03  0.81213145554E+03  0.83689172327E+03  0.00000000000E+00 0. -1.
         -3    1    3    3    0  502  0.39736765292E+01  0.74249788077E+01  0.14441992111E+02  0.16718000825E+02  0.00000000000E+00 0.  1.
         11    1    5    5    0    0  0.13717401066E+03 -0.32580593738E+02 -0.24374324259E+00  0.14099029647E+03  0.00000000000E+00 0.  1.
        -11    1    5    5    0    0  0.11279071980E+03  0.56217869640E+02  0.89910362479E+01  0.12634490126E+03  0.00000000000E+00 0. -1.
          3    1    6    6  503    0 -0.13488986921E+03  0.37974767829E+02  0.60529509555E+03  0.62130468573E+03  0.00000000000E+00 0. -1.
         -3    1    6    6    0  503 -0.14927755545E+03  0.13075402301E+03  0.62453032297E+03  0.65530033375E+03  0.00000000000E+00 0.  1.
<mgrwt>
<rscale>  0 0.12179561E+04</rscale>
<asrwt>0</asrwt>
<pdfrwt beam="1">  1        2 0.34328429E+00 0.12179561E+04</pdfrwt>
<pdfrwt beam="2">  1       -1 0.25569523E-01 0.12179561E+04</pdfrwt>
<totfact> 0.75233052E+01</totfact>
</mgrwt>
</event>
<event>
12    6  0.1510140E-007  0.1265052E+04  0.7818608E-02  0.9057748E-01
          2   -1    0    0  501    0  0.00000000000E+00  0.00000000000E+00  0.37972718788E+03  0.37972718788E+03  0.00000000000E+00 0. -1.
         -1   -1    0    0    0  501 -0.00000000000E+00 -0.00000000000E+00 -0.10536227012E+04  0.10536227012E+04  0.00000000000E+00 0.  1.
         24    2    1    2    0    0  0.82515151595E+02  0.27558464736E+03 -0.51053924489E+02  0.30303498702E+03  0.80424200676E+02 0.  0.
        254    2    1    2    0    0 -0.82515151595E+02 -0.27558464736E+03 -0.62284158885E+03  0.11303149021E+04  0.89828975557E+03 0.  0.
         23    2    4    4    0    0  0.13286210754E+03 -0.86603998469E+02  0.18971144049E+03  0.26419558100E+03  0.93039143371E+02 0.  0.
         23    2    4    4    0    0 -0.21537725913E+03 -0.18898064889E+03 -0.81255302934E+03  0.86611932107E+03  0.88426259935E+02 0.  0.
          2    1    3    3  502    0  0.24156788024E+02  0.15239696200E+03  0.79424185893E+01  0.15450393667E+03  0.00000000000E+00 0. -1.
         -1    1    3    3    0  502  0.58358363571E+02  0.12318768536E+03 -0.58996343078E+02  0.14853105035E+03  0.00000000000E+00 0.  1.
         11    1    5    5    0    0  0.46886387000E+02 -0.42723390076E+02  0.15923324154E+02  0.65400103957E+02  0.00000000000E+00 0. -1.
        -11    1    5    5    0    0  0.85975720539E+02 -0.43880608393E+02  0.17378811633E+03  0.19879547705E+03  0.00000000000E+00 0.  1.
          3    1    6    6  503    0 -0.80480786683E+02 -0.20998882690E+02 -0.26328162006E+03  0.27610744568E+03  0.00000000000E+00 0. -1.
         -3    1    6    6    0  503 -0.13489647245E+03 -0.16798176620E+03 -0.54927140928E+03  0.59001187540E+03  0.00000000000E+00 0.  1.
<mgrwt>
<rscale>  0 0.12650521E+04</rscale>
<asrwt>0</asrwt>
<pdfrwt beam="1">  1        2 0.58419568E-01 0.12650521E+04</pdfrwt>
<pdfrwt beam="2">  1       -1 0.16209580E+00 0.12650521E+04</pdfrwt>
<totfact> 0.26720794E+01</totfact>
</mgrwt>
</event>
<event>
12    6  0.1510140E-007  0.3195887E+04  0.7818608E-02  0.8189904E-01
          2   -1    0    0  501    0  0.00000000000E+00  0.00000000000E+00  0.29333767084E+04  0.29333767084E+04  0.00000000000E+00 0. -1.
         -1   -1    0    0    0  501 -0.00000000000E+00 -0.00000000000E+00 -0.87047215390E+03  0.87047215390E+03  0.00000000000E+00 0.  1.
         24    2    1    2    0    0 -0.13664124940E+04 -0.51488665686E+03  0.11463954830E+04  0.18581724460E+04  0.79942869425E+02 0.  0.
        254    2    1    2    0    0  0.13664124940E+04  0.51488665686E+03  0.91650907157E+03  0.19456764163E+04  0.90192930186E+03 0.  0.
         23    2    4    4    0    0  0.76526923748E+03  0.19716034740E+03  0.97375106938E+03  0.12573032294E+04  0.90061407867E+02 0.  0.
         23    2    4    4    0    0  0.60114325656E+03  0.31772630947E+03 -0.57241997809E+02  0.68837318692E+03  0.90872303372E+02 0.  0.
          4    1    3    3  502    0 -0.27526437588E+03 -0.10180406720E+03  0.27211099338E+03  0.40022360931E+03  0.00000000000E+00 0. -1.
         -3    1    3    3    0  502 -0.10911481182E+04 -0.41308258967E+03  0.87428448958E+03  0.14579488367E+04  0.00000000000E+00 0.  1.
         11    1    5    5    0    0  0.70067472759E+03  0.20550822541E+03  0.89788675314E+03  0.11573155689E+04  0.00000000000E+00 0. -1.
        -11    1    5    5    0    0  0.64594509892E+02 -0.83478780149E+01  0.75864316240E+02  0.99987660510E+02  0.00000000000E+00 0.  1.
          4    1    6    6  503    0  0.33789238829E+03  0.12753181162E+03 -0.34731481427E+02  0.36282489556E+03  0.00000000000E+00 0.  1.
         -4    1    6    6    0  503  0.26325086827E+03  0.19019449784E+03 -0.22510516382E+02  0.32554829135E+03  0.00000000000E+00 0. -1.
<mgrwt>
<rscale>  0 0.31958866E+04</rscale>
<asrwt>0</asrwt>
<pdfrwt beam="1">  1        2 0.45128872E+00 0.31958866E+04</pdfrwt>
<pdfrwt beam="2">  1       -1 0.13391879E+00 0.31958866E+04</pdfrwt>
<totfact> 0.86150520E-01</totfact>
</mgrwt>
</event>
<event>
12    6  0.1510140E-007  0.2037949E+04  0.7818608E-02  0.8589081E-01
         -1   -1    0    0    0  501 -0.00000000000E+00  0.00000000000E+00  0.56223529994E+03  0.56223529994E+03  0.00000000000E+00 0.  1.
          2   -1    0    0  501    0  0.00000000000E+00 -0.00000000000E+00 -0.18467510126E+04  0.18467510126E+04  0.00000000000E+00 0. -1.
         24    2    1    2    0    0 -0.21357569348E+03  0.65076452566E+03 -0.10492529646E+04  0.12557743789E+04  0.83237385025E+02 0.  0.
        254    2    1    2    0    0  0.21357569348E+03 -0.65076452566E+03 -0.23526274806E+03  0.11532119336E+04  0.89746317951E+03 0.  0.
         23    2    4    4    0    0 -0.32542088007E+03 -0.12247868213E+03 -0.14261622947E+03  0.38743817210E+03  0.94176279031E+02 0.  0.
         23    2    4    4    0    0  0.53899657355E+03 -0.52828584353E+03 -0.92646518593E+02  0.76577376155E+03  0.90679863801E+02 0.  0.
          2    1    3    3  502    0 -0.18536670442E+03  0.62435488124E+03 -0.98816840043E+03  0.11834933969E+04  0.00000000000E+00 0. -1.
         -1    1    3    3    0  502 -0.28208989058E+02  0.26409644419E+02 -0.61084564205E+02  0.72280982050E+02  0.00000000000E+00 0.  1.
         11    1    5    5    0    0 -0.20435275740E+01  0.98841414093E+01 -0.15384836880E+00  0.10094351176E+02  0.00000000000E+00 0.  1.
        -11    1    5    5    0    0 -0.32337735249E+03 -0.13236282354E+03 -0.14246238110E+03  0.37734382092E+03  0.00000000000E+00 0. -1.
          1    1    6    6  503    0  0.36722472089E+03 -0.29965387198E+03 -0.49033748495E+02  0.47649842299E+03  0.00000000000E+00 0. -1.
         -1    1    6    6    0  503  0.17177185266E+03 -0.22863197155E+03 -0.43612770097E+02  0.28927533856E+03  0.00000000000E+00 0.  1.
<mgrwt>
<rscale>  0 0.20379486E+04</rscale>
<asrwt>0</asrwt>
<pdfrwt beam="1">  1        2 0.28411554E+00 0.20379486E+04</pdfrwt>
<pdfrwt beam="2">  1       -1 0.86497740E-01 0.20379486E+04</pdfrwt>
<totfact> 0.11297913E+01</totfact>
</mgrwt>
</event>
<event>
12    6  0.1510140E-007  0.2073543E+04  0.7818608E-02  0.8572988E-01
         -1   -1    0    0    0  501 -0.00000000000E+00  0.00000000000E+00  0.85536759733E+03  0.85536759733E+03  0.00000000000E+00 0.  1.
          2   -1    0    0  501    0  0.00000000000E+00 -0.00000000000E+00 -0.12566466315E+04  0.12566466315E+04  0.00000000000E+00 0. -1.
         24    2    1    2    0    0  0.50891204942E+03 -0.59448171022E+03  0.16713474908E+03  0.80429330667E+03  0.80955055276E+02 0.  0.
        254    2    1    2    0    0 -0.50891204942E+03  0.59448171022E+03 -0.56841378329E+03  0.13077209222E+04  0.88013624144E+03 0.  0.
         23    2    4    4    0    0 -0.55739287168E+03  0.60892409293E+03 -0.73320690104E+03  0.11079303447E+04  0.91879946617E+02 0.  0.
         23    2    4    4    0    0  0.48480822268E+02 -0.14442382710E+02  0.16479311775E+03  0.19979057751E+03  0.10099767649E+03 0.  0.
          2    1    3    3  502    0  0.10054039334E+03 -0.13460178360E+03  0.42337764687E+01  0.16805932198E+03  0.00000000000E+00 0. -1.
         -1    1    3    3    0  502  0.40837165607E+03 -0.45987992662E+03  0.16290097262E+03  0.63623398469E+03  0.00000000000E+00 0.  1.
         11    1    5    5    0    0 -0.21779388876E+03  0.28179023174E+03 -0.26979368965E+03  0.44679810615E+03  0.00000000000E+00 0. -1.
        -11    1    5    5    0    0 -0.33959898292E+03  0.32713386119E+03 -0.46341321139E+03  0.66113223853E+03  0.00000000000E+00 0.  1.
          2    1    6    6  503    0  0.58383067214E+01 -0.17631317123E+02 -0.91245082233E+01  0.20693134591E+02  0.00000000000E+00 0. -1.
         -2    1    6    6    0  503  0.42642515546E+02  0.31889344139E+01  0.17391762598E+03  0.17909744292E+03  0.00000000000E+00 0.  1.
<mgrwt>
<rscale>  0 0.20735427E+04</rscale>
<asrwt>0</asrwt>
<pdfrwt beam="1">  1        2 0.19333025E+00 0.20735427E+04</pdfrwt>
<pdfrwt beam="2">  1       -1 0.13159501E+00 0.20735427E+04</pdfrwt>
<totfact> 0.90745261E+00</totfact>
</mgrwt>
</event>
<event>
12    6  0.1510140E-007  0.2106055E+04  0.7818608E-02  0.8558581E-01
          2   -1    0    0  501    0  0.00000000000E+00  0.00000000000E+00  0.27911977398E+04  0.27911977398E+04  0.00000000000E+00 0. -1.
         -1   -1    0    0    0  501 -0.00000000000E+00 -0.00000000000E+00 -0.39727261896E+03  0.39727261896E+03  0.00000000000E+00 0.  1.
         24    2    1    2    0    0 -0.52471616745E+03  0.26990708114E+03  0.35886411137E+02  0.59638841407E+03  0.78831574232E+02 0.  0.
        254    2    1    2    0    0  0.52471616745E+03 -0.26990708114E+03  0.23580387097E+04  0.25920819447E+04  0.90020295642E+03 0.  0.
         23    2    4    4    0    0  0.65856630996E+03 -0.13761019052E+03  0.94423970415E+03  0.11630093870E+04  0.91411521602E+02 0.  0.
         23    2    4    4    0    0 -0.13385014250E+03 -0.13229689062E+03  0.14137990056E+04  0.14290725577E+04  0.89456241088E+02 0.  0.
          4    1    3    3  502    0 -0.20753639881E+02  0.30592664211E+02 -0.33094753885E+01  0.37115728461E+02  0.00000000000E+00 0. -1.
         -3    1    3    3    0  502 -0.50396252757E+03  0.23931441692E+03  0.39195886526E+02  0.55927268561E+03  0.00000000000E+00 0.  1.
         11    1    5    5    0    0  0.36698915589E+03 -0.10315050013E+03  0.59635904124E+03  0.70778893201E+03  0.00000000000E+00 0. -1.
        -11    1    5    5    0    0  0.29157715407E+03 -0.34459690387E+02  0.34788066292E+03  0.45522045502E+03  0.00000000000E+00 0.  1.
          2    1    6    6  503    0 -0.18783582833E+02 -0.32200183746E+02  0.10506932421E+03  0.11148649114E+03  0.00000000000E+00 0. -1.
         -2    1    6    6    0  503 -0.11506655967E+03 -0.10009670687E+03  0.13087296814E+04  0.13175860665E+04  0.00000000000E+00 0.  1.
<mgrwt>
<rscale>  0 0.21060545E+04</rscale>
<asrwt>0</asrwt>
<pdfrwt beam="1">  1        2 0.42941502E+00 0.21060545E+04</pdfrwt>
<pdfrwt beam="2">  1       -1 0.61118866E-01 0.21060545E+04</pdfrwt>
<totfact> 0.66692014E+00</totfact>
</mgrwt>
</event>
<event>
12    6  0.1510140E-007  0.1149561E+04  0.7818608E-02  0.9158189E-01
         -1   -1    0    0    0  501 -0.00000000000E+00  0.00000000000E+00  0.18097836674E+03  0.18097836674E+03  0.00000000000E+00 0.  1.
          2   -1    0    0  501    0  0.00000000000E+00 -0.00000000000E+00 -0.18254797577E+04  0.18254797577E+04  0.00000000000E+00 0. -1.
         24    2    1    2    0    0 -0.16312551487E+03  0.19777664801E+03 -0.29156219947E+03  0.39636109338E+03  0.79800150935E+02 0.  0.
        254    2    1    2    0    0  0.16312551487E+03 -0.19777664801E+03 -0.13529391915E+04  0.16100970311E+04  0.83441144375E+03 0.  0.
         23    2    4    4    0    0 -0.28775617635E+03 -0.16956439131E+03 -0.89942435447E+03  0.96370062248E+03  0.90548442963E+02 0.  0.
         23    2    4    4    0    0  0.45088169122E+03 -0.28212256701E+02 -0.45351483703E+03  0.64639640859E+03  0.89790749639E+02 0.  0.
          4    1    3    3  502    0 -0.14150496312E+03  0.14028710324E+03 -0.25919321024E+03  0.32693309125E+03  0.00000000000E+00 0. -1.
         -3    1    3    3    0  502 -0.21620551756E+02  0.57489544773E+02 -0.32368989231E+02  0.69428002133E+02  0.00000000000E+00 0.  1.
         11    1    5    5    0    0 -0.21323310070E+03 -0.16804360680E+03 -0.70068800897E+03  0.75144573652E+03  0.00000000000E+00 0.  1.
        -11    1    5    5    0    0 -0.74523075651E+02 -0.15207845060E+01 -0.19873634550E+03  0.21225488595E+03  0.00000000000E+00 0. -1.
          3    1    6    6  503    0  0.39860920295E+03 -0.53226661942E+02 -0.40606452636E+03  0.57149870847E+03  0.00000000000E+00 0. -1.
         -3    1    6    6    0  503  0.52272488280E+02  0.25014405242E+02 -0.47450310668E+02  0.74897700118E+02  0.00000000000E+00 0.  1.
<mgrwt>
<rscale>  0 0.11495605E+04</rscale>
<asrwt>0</asrwt>
<pdfrwt beam="1">  1        2 0.28084304E+00 0.11495605E+04</pdfrwt>
<pdfrwt beam="2">  1       -1 0.27842826E-01 0.11495605E+04</pdfrwt>
<totfact> 0.10957021E+02</totfact>
</mgrwt>
</event>
<event>
12    6  0.1510140E-007  0.1802195E+04  0.7818608E-02  0.8705133E-01
         -1   -1    0    0    0  501 -0.00000000000E+00  0.00000000000E+00  0.22287987978E+04  0.22287987978E+04  0.00000000000E+00 0.  1.
          2   -1    0    0  501    0  0.00000000000E+00 -0.00000000000E+00 -0.36431130453E+03  0.36431130453E+03  0.00000000000E+00 0. -1.
         24    2    1    2    0    0 -0.51619282429E+03  0.19997149691E+03  0.14377492760E+03  0.57754400446E+03  0.80263415450E+02 0.  0.
        254    2    1    2    0    0  0.51619282429E+03 -0.19997149691E+03  0.17207125657E+04  0.20155660979E+04  0.89174622497E+03 0.  0.
         23    2    4    4    0    0  0.24059895992E+03  0.25412165169E+03  0.22532520510E+03  0.42596124938E+03  0.90586227123E+02 0.  0.
         23    2    4    4    0    0  0.27559386437E+03 -0.45409314860E+03  0.14953873606E+04  0.15896048485E+04  0.92236925802E+02 0.  0.
          2    1    3    3  502    0 -0.35841675133E+03  0.12270439339E+03  0.62442709954E+02  0.38395055388E+03  0.00000000000E+00 0. -1.
         -3    1    3    3    0  502 -0.15777607296E+03  0.77267103512E+02  0.81332217647E+02  0.19359345059E+03  0.00000000000E+00 0.  1.
         11    1    5    5    0    0  0.20152339275E+03  0.19409893770E+03  0.13493076370E+03  0.31063223663E+03  0.00000000000E+00 0. -1.
        -11    1    5    5    0    0  0.39075567173E+02  0.60022713987E+02  0.90394441406E+02  0.11532901275E+03  0.00000000000E+00 0.  1.
          3    1    6    6  503    0  0.15113476046E+03 -0.17664148601E+03  0.72563923169E+03  0.76196865091E+03  0.00000000000E+00 0. -1.
         -3    1    6    6    0  503  0.12445910391E+03 -0.27745166259E+03  0.76974812888E+03  0.82763619757E+03  0.00000000000E+00 0.  1.
<mgrwt>
<rscale>  0 0.18021949E+04</rscale>
<asrwt>0</asrwt>
<pdfrwt beam="1">  1        2 0.56047895E-01 0.18021949E+04</pdfrwt>
<pdfrwt beam="2">  1       -1 0.34289211E+00 0.18021949E+04</pdfrwt>
<totfact> 0.16551665E+00</totfact>
</mgrwt>
</event>
<event>
12    6  0.1510140E-007  0.1472679E+04  0.7818608E-02  0.8902827E-01
          2   -1    0    0  501    0  0.00000000000E+00  0.00000000000E+00  0.15291310610E+04  0.15291310610E+04  0.00000000000E+00 0. -1.
         -1   -1    0    0    0  501 -0.00000000000E+00 -0.00000000000E+00 -0.35457760656E+03  0.35457760656E+03  0.00000000000E+00 0.  1.
         24    2    1    2    0    0 -0.27712389848E+03  0.56358137706E+02 -0.99156871904E+02  0.30373851886E+03  0.49508663894E+02 0.  0.
        254    2    1    2    0    0  0.27712389848E+03 -0.56358137706E+02  0.12737103263E+04  0.15799701487E+04  0.89106328649E+03 0.  0.
         23    2    4    4    0    0  0.57436630388E+03 -0.12212495124E+03  0.65426371197E+03  0.88420881360E+03  0.94620645167E+02 0.  0.
         23    2    4    4    0    0 -0.29724240541E+03  0.65766813531E+02  0.61944661433E+03  0.69576133506E+03  0.87700661481E+02 0.  0.
          4    1    3    3  502    0 -0.31550383219E+02  0.23488657063E+02 -0.13735270240E+02  0.41662949253E+02  0.00000000000E+00 0. -1.
         -3    1    3    3    0  502 -0.24557351526E+03  0.32869480643E+02 -0.85421601664E+02  0.26207556961E+03  0.00000000000E+00 0.  1.
         11    1    5    5    0    0  0.15516444623E+02  0.10873593554E+02  0.11566297224E+02  0.22198520716E+02  0.00000000000E+00 0. -1.
        -11    1    5    5    0    0  0.55884985926E+03 -0.13299854479E+03  0.64269741475E+03  0.86201029288E+03  0.00000000000E+00 0.  1.
          2    1    6    6  503    0 -0.25651412481E+02  0.21981616467E+02  0.12983679692E+03  0.13415953287E+03  0.00000000000E+00 0. -1.
         -2    1    6    6    0  503 -0.27159099293E+03  0.43785197063E+02  0.48960981741E+03  0.56160180219E+03  0.00000000000E+00 0.  1.
<mgrwt>
<rscale>  0 0.14726787E+04</rscale>
<asrwt>0</asrwt>
<pdfrwt beam="1">  1        2 0.23525093E+00 0.14726787E+04</pdfrwt>
<pdfrwt beam="2">  1       -1 0.54550402E-01 0.14726787E+04</pdfrwt>
<totfact> 0.45768847E+01</totfact>
</mgrwt>
</event>
<event>
12    6  0.1510140E-007  0.2106787E+04  0.7818608E-02  0.8558259E-01
         -1   -1    0    0    0  501 -0.00000000000E+00  0.00000000000E+00  0.42626082473E+03  0.42626082473E+03  0.00000000000E+00 0.  1.
          2   -1    0    0  501    0  0.00000000000E+00 -0.00000000000E+00 -0.26031901286E+04  0.26031901286E+04  0.00000000000E+00 0. -1.
         24    2    1    2    0    0 -0.69201410428E+03 -0.50238145533E+03 -0.76559870734E+03  0.11505841711E+04  0.80199169853E+02 0.  0.
        254    2    1    2    0    0  0.69201410428E+03  0.50238145533E+03 -0.14113305965E+04  0.18788667823E+04  0.89834051762E+03 0.  0.
         23    2    4    4    0    0 -0.32419666965E+02  0.44065278883E+03 -0.27992595879E+03  0.53089314650E+03  0.90901460336E+02 0.  0.
         23    2    4    4    0    0  0.72443377124E+03  0.61728666505E+02 -0.11314046377E+04  0.13479736358E+04  0.91333187900E+02 0.  0.
          4    1    3    3  502    0 -0.69422979918E+03 -0.50156549820E+03 -0.76262236236E+03  0.11467849976E+04  0.00000000000E+00 0. -1.
         -3    1    3    3    0  502  0.22156948975E+01 -0.81595713150E+00 -0.29763449766E+01  0.37991735073E+01  0.00000000000E+00 0.  1.
         11    1    5    5    0    0 -0.30470008735E+02  0.22327865868E+03 -0.91509506421E+02  0.24321959341E+03  0.00000000000E+00 0.  1.
        -11    1    5    5    0    0 -0.19496582296E+01  0.21737413015E+03 -0.18841645237E+03  0.28767355309E+03  0.00000000000E+00 0. -1.
          3    1    6    6  503    0  0.43113106726E+03  0.55860083057E+02 -0.74874492019E+03  0.86580211454E+03  0.00000000000E+00 0. -1.
         -3    1    6    6    0  503  0.29330270399E+03  0.58685834474E+01 -0.38265971756E+03  0.48217152122E+03  0.00000000000E+00 0.  1.
<mgrwt>
<rscale>  0 0.21067871E+04</rscale>
<asrwt>0</asrwt>
<pdfrwt beam="1">  1        2 0.40049079E+00 0.21067871E+04</pdfrwt>
<pdfrwt beam="2">  1       -1 0.65578588E-01 0.21067871E+04</pdfrwt>
<totfact> 0.74905386E+00</totfact>
</mgrwt>
</event>
<event>
12    6  0.1510140E-007  0.2644376E+04  0.7818608E-02  0.8353282E-01
          2   -1    0    0  501    0  0.00000000000E+00  0.00000000000E+00  0.22536791320E+04  0.22536791320E+04  0.00000000000E+00 0. -1.
         -1   -1    0    0    0  501 -0.00000000000E+00 -0.00000000000E+00 -0.77570077746E+03  0.77570077746E+03  0.00000000000E+00 0.  1.
         24    2    1    2    0    0  0.28597736082E+03 -0.81650547260E+03  0.16100441204E+04  0.18295371179E+04  0.80621079892E+02 0.  0.
        254    2    1    2    0    0 -0.28597736082E+03  0.81650547260E+03 -0.13206576583E+03  0.11998427916E+04  0.82080272923E+03 0.  0.
         23    2    4    4    0    0 -0.75512930846E+02  0.76206220129E+03  0.19533875691E+03  0.79514960835E+03  0.87548091622E+02 0.  0.
         23    2    4    4    0    0 -0.21046442998E+03  0.54443271308E+02 -0.32740452274E+03  0.40469318323E+03  0.96558298270E+02 0.  0.
          4    1    3    3  502    0  0.28087686852E+03 -0.75042028234E+03  0.15120348578E+04  0.17112193975E+04  0.00000000000E+00 0. -1.
         -3    1    3    3    0  502  0.51004922975E+01 -0.66085190260E+02  0.98009262610E+02  0.11831772036E+03  0.00000000000E+00 0.  1.
         11    1    5    5    0    0 -0.24196578241E+02  0.58854154192E+03  0.13402085047E+03  0.60409288138E+03  0.00000000000E+00 0. -1.
        -11    1    5    5    0    0 -0.51316352606E+02  0.17352065937E+03  0.61317906436E+02  0.19105672697E+03  0.00000000000E+00 0.  1.
          4    1    6    6  503    0 -0.11333768418E+03 -0.14234270281E+02 -0.12054351972E+03  0.16606861610E+03  0.00000000000E+00 0. -1.
         -4    1    6    6    0  503 -0.97126745793E+02  0.68677541590E+02 -0.20686100302E+03  0.23862456713E+03  0.00000000000E+00 0.  1.
<mgrwt>
<rscale>  0 0.26443757E+04</rscale>
<asrwt>0</asrwt>
<pdfrwt beam="1">  1        2 0.34671986E+00 0.26443757E+04</pdfrwt>
<pdfrwt beam="2">  1       -1 0.11933858E+00 0.26443757E+04</pdfrwt>
<totfact> 0.30288958E+00</totfact>
</mgrwt>
</event>
<event>
12    6  0.1510140E-007  0.1413084E+04  0.7818608E-02  0.8944402E-01
         -1   -1    0    0    0  501 -0.00000000000E+00  0.00000000000E+00  0.10126530410E+04  0.10126530410E+04  0.00000000000E+00 0.  1.
          2   -1    0    0  501    0  0.00000000000E+00 -0.00000000000E+00 -0.49296416759E+03  0.49296416759E+03  0.00000000000E+00 0. -1.
         24    2    1    2    0    0  0.69498101540E+02  0.26495610371E+03  0.49776604023E+03  0.57389439082E+03  0.80944536565E+02 0.  0.
        254    2    1    2    0    0 -0.69498101540E+02 -0.26495610371E+03  0.21922833156E+02  0.93172281774E+03  0.89027808884E+03 0.  0.
         23    2    4    4    0    0 -0.35952633181E+02  0.30724924714E+03 -0.10363572647E+03  0.33849814621E+03  0.90254858494E+02 0.  0.
         23    2    4    4    0    0 -0.33545468359E+02 -0.57220535086E+03  0.12555855963E+03  0.59322467153E+03  0.87214087311E+02 0.  0.
          4    1    3    3  502    0  0.57733013192E+02  0.74392512758E+02  0.14820250393E+03  0.17558852165E+03  0.00000000000E+00 0. -1.
         -3    1    3    3    0  502  0.11765088348E+02  0.19056359095E+03  0.34956353631E+03  0.39830586917E+03  0.00000000000E+00 0.  1.
         11    1    5    5    0    0 -0.46967578745E+02  0.17471884871E+03 -0.97144229106E+02  0.20535245505E+03  0.00000000000E+00 0.  1.
        -11    1    5    5    0    0  0.11014945565E+02  0.13253039844E+03 -0.64914973643E+01  0.13314569116E+03  0.00000000000E+00 0. -1.
          3    1    6    6  503    0 -0.40414557666E+02 -0.23180487520E+03  0.17208060729E+02  0.23592997688E+03  0.00000000000E+00 0. -1.
         -3    1    6    6    0  503  0.68690893066E+01 -0.34040047566E+03  0.10835049890E+03  0.35729469465E+03  0.00000000000E+00 0.  1.
<mgrwt>
<rscale>  0 0.14130841E+04</rscale>
<asrwt>0</asrwt>
<pdfrwt beam="1">  1        2 0.75840641E-01 0.14130841E+04</pdfrwt>
<pdfrwt beam="2">  1       -1 0.15579277E+00 0.14130841E+04</pdfrwt>
<totfact> 0.21904493E+01</totfact>
</mgrwt>
</event>
<event>
12    6  0.1510140E-007  0.1487130E+04  0.7818608E-02  0.8893057E-01
         -1   -1    0    0    0  501 -0.00000000000E+00  0.00000000000E+00  0.61905807522E+03  0.61905807522E+03  0.00000000000E+00 0.  1.
          2   -1    0    0  501    0  0.00000000000E+00 -0.00000000000E+00 -0.89311340082E+03  0.89311340082E+03  0.00000000000E+00 0. -1.
         24    2    1    2    0    0  0.47906531676E+01  0.40378863417E+03  0.63783957688E+02  0.41669764026E+03  0.80624553972E+02 0.  0.
        254    2    1    2    0    0 -0.47906531676E+01 -0.40378863417E+03 -0.33783928329E+03  0.10954738358E+04  0.96065567822E+03 0.  0.
         23    2    4    4    0    0  0.21370725035E+03 -0.43018034347E+03  0.18350665705E+03  0.52225162540E+03  0.91357267306E+02 0.  0.
         23    2    4    4    0    0 -0.21849790351E+03  0.26391709305E+02 -0.52134594034E+03  0.57322221038E+03  0.91346903618E+02 0.  0.
          4    1    3    3  502    0 -0.24822778650E+01 -0.20380802648E+01 -0.40579469085E+01  0.51751722364E+01  0.00000000000E+00 0. -1.
         -3    1    3    3    0  502  0.72729310326E+01  0.40582671443E+03  0.67841904596E+02  0.41152246803E+03  0.00000000000E+00 0.  1.
         11    1    5    5    0    0 -0.90491484151E+01 -0.24311615504E+02  0.84593819284E+01  0.27285580039E+02  0.00000000000E+00 0. -1.
        -11    1    5    5    0    0  0.22275639876E+03 -0.40586872797E+03  0.17504727512E+03  0.49496604536E+03  0.00000000000E+00 0.  1.
          2    1    6    6  503    0 -0.21422541090E+03  0.24534864426E+02 -0.52483424422E+03  0.56740238822E+03  0.00000000000E+00 0.  1.
         -2    1    6    6    0  503 -0.42724926154E+01  0.18568448790E+01  0.34883038787E+01  0.58198221625E+01  0.00000000000E+00 0. -1.
<mgrwt>
<rscale>  0 0.14871302E+04</rscale>
<asrwt>0</asrwt>
<pdfrwt beam="1">  1        2 0.13740206E+00 0.14871302E+04</pdfrwt>
<pdfrwt beam="2">  1       -1 0.95239704E-01 0.14871302E+04</pdfrwt>
<totfact> 0.34843607E+01</totfact>
</mgrwt>
</event>
<event>
12    6  0.1510140E-007  0.1260424E+04  0.7818608E-02  0.9061552E-01
          2   -1    0    0  501    0  0.00000000000E+00  0.00000000000E+00  0.15484614922E+04  0.15484614922E+04  0.00000000000E+00 0. -1.
         -1   -1    0    0    0  501 -0.00000000000E+00 -0.00000000000E+00 -0.25649143074E+03  0.25649143074E+03  0.00000000000E+00 0.  1.
         24    2    1    2    0    0 -0.15156060974E+03  0.21322062712E+03  0.96562198831E+02  0.28626152561E+03  0.64712815933E+02 0.  0.
        254    2    1    2    0    0  0.15156060974E+03 -0.21322062712E+03  0.11954078626E+04  0.15186913973E+04  0.89943868497E+03 0.  0.
         23    2    4    4    0    0 -0.21630387330E+03 -0.43376964654E+03  0.55784538035E+03  0.74475511855E+03  0.92332260704E+02 0.  0.
         23    2    4    4    0    0  0.36786448304E+03  0.22054901942E+03  0.63756248223E+03  0.77393627874E+03  0.92332534600E+02 0.  0.
          4    1    3    3  502    0 -0.99027713370E+02  0.91329048483E+02  0.66215396266E+02  0.15010650157E+03  0.00000000000E+00 0. -1.
         -3    1    3    3    0  502 -0.52532896370E+02  0.12189157864E+03  0.30346802565E+02  0.13615502403E+03  0.00000000000E+00 0.  1.
         11    1    5    5    0    0  0.31089919195E+01 -0.39686780039E+02  0.68645739256E+02  0.79353285116E+02  0.00000000000E+00 0.  1.
        -11    1    5    5    0    0 -0.21941286522E+03 -0.39408286650E+03  0.48919964109E+03  0.66540183344E+03  0.00000000000E+00 0. -1.
          2    1    6    6  503    0  0.37059996824E+03  0.22457620387E+03  0.63383072364E+03  0.76780218418E+03  0.00000000000E+00 0. -1.
         -2    1    6    6    0  503 -0.27354852018E+01 -0.40271844434E+01  0.37317585907E+01  0.61340945550E+01  0.00000000000E+00 0.  1.
<mgrwt>
<rscale>  0 0.12604239E+04</rscale>
<asrwt>0</asrwt>
<pdfrwt beam="1">  1        2 0.23822484E+00 0.12604239E+04</pdfrwt>
<pdfrwt beam="2">  1       -1 0.39460221E-01 0.12604239E+04</pdfrwt>
<totfact> 0.83321408E+01</totfact>
</mgrwt>
</event>
<event>
12    6  0.1510140E-007  0.1984517E+04  0.7818608E-02  0.8613894E-01
         -1   -1    0    0    0  501 -0.00000000000E+00  0.00000000000E+00  0.50347175376E+03  0.50347175376E+03  0.00000000000E+00 0.  1.
          2   -1    0    0  501    0  0.00000000000E+00 -0.00000000000E+00 -0.19555751955E+04  0.19555751955E+04  0.00000000000E+00 0. -1.
         24    2    1    2    0    0 -0.70935552682E+03  0.27348342752E+03 -0.75140324517E+03  0.10719057140E+04  0.79978586422E+02 0.  0.
        254    2    1    2    0    0  0.70935552682E+03 -0.27348342752E+03 -0.70070019653E+03  0.13871412352E+04  0.92477110276E+03 0.  0.
         23    2    4    4    0    0  0.23045237407E+03 -0.49408960804E+03 -0.65704271965E+02  0.55679425608E+03  0.92032357176E+02 0.  0.
         23    2    4    4    0    0  0.47890315276E+03  0.22060618052E+03 -0.63499592456E+03  0.83034697914E+03  0.90779760749E+02 0.  0.
          2    1    3    3  502    0 -0.67936982056E+03  0.25666488118E+03 -0.69124607488E+03  0.10026172502E+04  0.00000000000E+00 0. -1.
         -1    1    3    3    0  502 -0.29985706264E+02  0.16818546345E+02 -0.60157170291E+02  0.69288463821E+02  0.00000000000E+00 0.  1.
         11    1    5    5    0    0  0.96271446884E+02 -0.11093110927E+03 -0.20743284062E+02  0.14833808116E+03  0.00000000000E+00 0. -1.
        -11    1    5    5    0    0  0.13418092719E+03 -0.38315849877E+03 -0.44960987903E+02  0.40845617492E+03  0.00000000000E+00 0.  1.
          2    1    6    6  503    0  0.42264371648E+02  0.51595144974E+02 -0.73333522292E+02  0.99126896388E+02  0.00000000000E+00 0. -1.
         -2    1    6    6    0  503  0.43663878111E+03  0.16901103554E+03 -0.56166240227E+03  0.73122008276E+03  0.00000000000E+00 0.  1.
<mgrwt>
<rscale>  0 0.19845169E+04</rscale>
<asrwt>0</asrwt>
<pdfrwt beam="1">  1        2 0.30085772E+00 0.19845169E+04</pdfrwt>
<pdfrwt beam="2">  1       -1 0.77457195E-01 0.19845169E+04</pdfrwt>
<totfact> 0.12513856E+01</totfact>
</mgrwt>
</event>
<event>
12    6  0.1510140E-007  0.1182748E+04  0.7818608E-02  0.9128093E-01
         -1   -1    0    0    0  501 -0.00000000000E+00  0.00000000000E+00  0.57267904709E+03  0.57267904709E+03  0.00000000000E+00 0.  1.
          2   -1    0    0  501    0  0.00000000000E+00 -0.00000000000E+00 -0.61067883424E+03  0.61067883424E+03  0.00000000000E+00 0. -1.
         24    2    1    2    0    0 -0.15343284117E+03  0.12135968104E+03 -0.14041733858E+03  0.25339330172E+03  0.78875391940E+02 0.  0.
        254    2    1    2    0    0  0.15343284117E+03 -0.12135968104E+03  0.10241755143E+03  0.92996457961E+03  0.90336867090E+03 0.  0.
         23    2    4    4    0    0  0.48288385283E+02 -0.33721681817E+03 -0.29332686416E+03  0.45856724490E+03  0.90533520022E+02 0.  0.
         23    2    4    4    0    0  0.10514445588E+03  0.21585713713E+03  0.39574441559E+03  0.47139733471E+03  0.89174797178E+02 0.  0.
          2    1    3    3  502    0 -0.14501576230E+03  0.12511283752E+03 -0.14752333241E+03  0.24175592450E+03  0.00000000000E+00 0. -1.
         -3    1    3    3    0  502 -0.84170788703E+01 -0.37531564807E+01  0.71059938297E+01  0.11637377221E+02  0.00000000000E+00 0.  1.
         11    1    5    5    0    0  0.68739599341E+02 -0.31372506582E+03 -0.27129649201E+03  0.42041685981E+03  0.00000000000E+00 0.  1.
        -11    1    5    5    0    0 -0.20451214058E+02 -0.23491752345E+02 -0.22030372150E+02  0.38150385081E+02  0.00000000000E+00 0. -1.
          2    1    6    6  503    0 -0.12794026956E+02  0.52041358194E+02  0.97667545678E+02  0.11140439653E+03  0.00000000000E+00 0. -1.
         -2    1    6    6    0  503  0.11793848284E+03  0.16381577894E+03  0.29807686991E+03  0.35999293818E+03  0.00000000000E+00 0.  1.
<mgrwt>
<rscale>  0 0.11827476E+04</rscale>
<asrwt>0</asrwt>
<pdfrwt beam="1">  1        2 0.93950590E-01 0.11827476E+04</pdfrwt>
<pdfrwt beam="2">  1       -1 0.88104468E-01 0.11827476E+04</pdfrwt>
<totfact> 0.69412512E+01</totfact>
</mgrwt>
</event>
<event>
12    6  0.1510140E-007  0.1420263E+04  0.7818608E-02  0.8939280E-01
          2   -1    0    0  501    0  0.00000000000E+00  0.00000000000E+00  0.23625613112E+04  0.23625613112E+04  0.00000000000E+00 0. -1.
         -1   -1    0    0    0  501 -0.00000000000E+00 -0.00000000000E+00 -0.21344920585E+03  0.21344920585E+03  0.00000000000E+00 0.  1.
         24    2    1    2    0    0 -0.54847764345E+01 -0.24029059068E+03  0.13026577212E+04  0.13270790975E+04  0.80325223178E+02 0.  0.
        254    2    1    2    0    0  0.54847764345E+01  0.24029059068E+03  0.84645438414E+03  0.12489314196E+04  0.88632669808E+03 0.  0.
         23    2    4    4    0    0  0.39272663973E+03  0.21324958853E+03  0.67549663316E+03  0.81503347722E+03  0.90962998145E+02 0.  0.
         23    2    4    4    0    0 -0.38724186330E+03  0.27041002151E+02  0.17095775098E+03  0.43389794239E+03  0.91396910794E+02 0.  0.
          4    1    3    3  502    0 -0.12152319135E+02 -0.24297410025E+03  0.12877628377E+04  0.13105408115E+04  0.00000000000E+00 0. -1.
         -3    1    3    3    0  502  0.66675427010E+01  0.26835095691E+01  0.14894883490E+02  0.16538285989E+02  0.00000000000E+00 0.  1.
         11    1    5    5    0    0  0.22261408717E+03  0.12758296364E+03  0.30601641975E+03  0.39935008898E+03  0.00000000000E+00 0. -1.
        -11    1    5    5    0    0  0.17011255256E+03  0.85666624887E+02  0.36948021341E+03  0.41568338824E+03  0.00000000000E+00 0.  1.
          1    1    6    6  503    0 -0.63599888652E+02  0.25672760187E+02  0.15653612645E+01  0.68603839601E+02  0.00000000000E+00 0. -1.
         -1    1    6    6    0  503 -0.32364197464E+03  0.13682419648E+01  0.16939238972E+03  0.36529410279E+03  0.00000000000E+00 0.  1.
<mgrwt>
<rscale>  0 0.14202631E+04</rscale>
<asrwt>0</asrwt>
<pdfrwt beam="1">  1        2 0.36347095E+00 0.14202631E+04</pdfrwt>
<pdfrwt beam="2">  1       -1 0.32838341E-01 0.14202631E+04</pdfrwt>
<totfact> 0.40302272E+01</totfact>
</mgrwt>
</event>
<event>
12    6  0.1510140E-007  0.2320845E+04  0.7818608E-02  0.8469747E-01
          2   -1    0    0  501    0  0.00000000000E+00  0.00000000000E+00  0.29460098828E+04  0.29460098828E+04  0.00000000000E+00 0. -1.
         -1   -1    0    0    0  501 -0.00000000000E+00 -0.00000000000E+00 -0.45708619732E+03  0.45708619732E+03  0.00000000000E+00 0.  1.
         24    2    1    2    0    0  0.27938736977E+03 -0.11396234121E+03 -0.31195002987E+03  0.44566359782E+03  0.10128427166E+03 0.  0.
        254    2    1    2    0    0 -0.27938736977E+03  0.11396234121E+03  0.28008737154E+04  0.29574324823E+04  0.90026029590E+03 0.  0.
         23    2    4    4    0    0  0.19496037734E+03  0.11001696293E+03  0.20695906562E+03  0.31870146161E+03  0.92872417470E+02 0.  0.
         23    2    4    4    0    0 -0.47434774711E+03  0.39453782860E+01  0.25939146497E+04  0.26387310207E+04  0.97400401576E+02 0.  0.
          2    1    3    3  502    0  0.99408154166E+02 -0.93213574584E+02 -0.11805375607E+03  0.18029820000E+03  0.00000000000E+00 0. -1.
         -1    1    3    3    0  502  0.17997921561E+03 -0.20748766627E+02 -0.19389627380E+03  0.26536539782E+03  0.00000000000E+00 0.  1.
         11    1    5    5    0    0  0.13495742716E+03  0.35265739193E+02  0.84126100768E+02  0.16289377010E+03  0.00000000000E+00 0. -1.
        -11    1    5    5    0    0  0.60002950178E+02  0.74751223732E+02  0.12283296485E+03  0.15580769151E+03  0.00000000000E+00 0.  1.
          1    1    6    6  503    0 -0.35009153100E+03  0.29201934357E+02  0.20764076352E+04  0.21059167839E+04  0.00000000000E+00 0. -1.
         -1    1    6    6    0  503 -0.12425621611E+03 -0.25256556071E+02  0.51750701453E+03  0.53281423682E+03  0.00000000000E+00 0.  1.
<mgrwt>
<rscale>  0 0.23208451E+04</rscale>
<asrwt>0</asrwt>
<pdfrwt beam="1">  1        2 0.45323228E+00 0.23208451E+04</pdfrwt>
<pdfrwt beam="2">  1       -1 0.70320955E-01 0.23208451E+04</pdfrwt>
<totfact> 0.39622580E+00</totfact>
</mgrwt>
</event>
<event>
12    6  0.1510140E-007  0.2070384E+04  0.7818608E-02  0.8574403E-01
          2   -1    0    0  501    0  0.00000000000E+00  0.00000000000E+00  0.20606853211E+04  0.20606853211E+04  0.00000000000E+00 0. -1.
         -1   -1    0    0    0  501 -0.00000000000E+00 -0.00000000000E+00 -0.52003184457E+03  0.52003184457E+03  0.00000000000E+00 0.  1.
         24    2    1    2    0    0 -0.70942645495E+02  0.52041229850E+03 -0.18738547999E+03  0.56343948023E+03  0.80553773293E+02 0.  0.
        254    2    1    2    0    0  0.70942645495E+02 -0.52041229850E+03  0.17280389565E+04  0.20172776854E+04  0.89857042324E+03 0.  0.
         23    2    4    4    0    0 -0.23175193031E+03 -0.65231343071E+03  0.11431823903E+04  0.13395444542E+04  0.91058214116E+02 0.  0.
         23    2    4    4    0    0  0.30269457580E+03  0.13190113221E+03  0.58485656625E+03  0.67773323120E+03  0.90792151023E+02 0.  0.
          4    1    3    3  502    0  0.17932405908E+02  0.85912535126E+02 -0.26788908286E+02  0.91761541402E+02  0.00000000000E+00 0. -1.
         -3    1    3    3    0  502 -0.88875051403E+02  0.43449976337E+03 -0.16059657170E+03  0.47167793883E+03  0.00000000000E+00 0.  1.
         11    1    5    5    0    0  0.35129542121E+01 -0.70091570283E+02  0.10879437759E+03  0.12946577025E+03  0.00000000000E+00 0. -1.
        -11    1    5    5    0    0 -0.23526488452E+03 -0.58222186043E+03  0.10343880127E+04  0.12100786840E+04  0.00000000000E+00 0.  1.
          2    1    6    6  503    0  0.18930955792E+03  0.10011515584E+03  0.45223613660E+03  0.50037853311E+03  0.00000000000E+00 0. -1.
         -2    1    6    6    0  503  0.11338501789E+03  0.31785976373E+02  0.13262042965E+03  0.17735469809E+03  0.00000000000E+00 0.  1.
<mgrwt>
<rscale>  0 0.20703835E+04</rscale>
<asrwt>0</asrwt>
<pdfrwt beam="1">  1        2 0.31702850E+00 0.20703835E+04</pdfrwt>
<pdfrwt beam="2">  1       -1 0.80004901E-01 0.20703835E+04</pdfrwt>
<totfact> 0.10137043E+01</totfact>
</mgrwt>
</event>
<event>
12    6  0.1510140E-007  0.1914945E+04  0.7818608E-02  0.8647453E-01
         -1   -1    0    0    0  501 -0.00000000000E+00  0.00000000000E+00  0.61051070988E+03  0.61051070988E+03  0.00000000000E+00 0.  1.
          2   -1    0    0  501    0  0.00000000000E+00 -0.00000000000E+00 -0.15016175168E+04  0.15016175168E+04  0.00000000000E+00 0. -1.
         24    2    1    2    0    0  0.62741969771E+03  0.36287773546E+03 -0.41436150453E+03  0.83868558860E+03  0.79764228405E+02 0.  0.
        254    2    1    2    0    0 -0.62741969771E+03 -0.36287773546E+03 -0.47674530236E+03  0.12734426381E+04  0.93222011409E+03 0.  0.
         23    2    4    4    0    0 -0.59143648072E+03  0.10794997557E+03 -0.50703323264E+03  0.79173264472E+03  0.91145892736E+02 0.  0.
         23    2    4    4    0    0 -0.35983216988E+02 -0.47082771103E+03  0.30287930286E+02  0.48170999333E+03  0.90297472694E+02 0.  0.
          2    1    3    3  502    0  0.24962646210E+03  0.17756583141E+03 -0.20573494073E+03  0.36901200645E+03  0.00000000000E+00 0. -1.
         -1    1    3    3    0  502  0.37779323561E+03  0.18531190405E+03 -0.20862656380E+03  0.46967358216E+03  0.00000000000E+00 0.  1.
         11    1    5    5    0    0 -0.21887918814E+03  0.66476974468E+02 -0.14655743349E+03  0.27167327518E+03  0.00000000000E+00 0.  1.
        -11    1    5    5    0    0 -0.37255729258E+03  0.41473001102E+02 -0.36047579915E+03  0.52005936954E+03  0.00000000000E+00 0. -1.
          1    1    6    6  503    0  0.67266207821E+01 -0.11199618862E+03  0.42914457554E+02  0.12012511960E+03  0.00000000000E+00 0. -1.
         -1    1    6    6    0  503 -0.42709837770E+02 -0.35883152241E+03 -0.12626527268E+02  0.36158487372E+03  0.00000000000E+00 0.  1.
<mgrwt>
<rscale>  0 0.19149450E+04</rscale>
<asrwt>0</asrwt>
<pdfrwt beam="1">  1        2 0.23101808E+00 0.19149450E+04</pdfrwt>
<pdfrwt beam="2">  1       -1 0.93924725E-01 0.19149450E+04</pdfrwt>
<totfact> 0.14831087E+01</totfact>
</mgrwt>
</event>
<event>
12    6  0.1510140E-007  0.2434745E+04  0.7818608E-02  0.8426609E-01
          2   -1    0    0  501    0  0.00000000000E+00  0.00000000000E+00  0.13043566131E+04  0.13043566131E+04  0.00000000000E+00 0. -1.
         -1   -1    0    0    0  501 -0.00000000000E+00 -0.00000000000E+00 -0.11361888980E+04  0.11361888980E+04  0.00000000000E+00 0.  1.
         24    2    1    2    0    0 -0.57376711857E+03 -0.76206176757E+03  0.51081024566E+03  0.10852522386E+04  0.83057030498E+02 0.  0.
        254    2    1    2    0    0  0.57376711857E+03  0.76206176757E+03 -0.34264253062E+03  0.13552932725E+04  0.89970501101E+03 0.  0.
         23    2    4    4    0    0  0.65611746634E+03  0.67493718901E+03 -0.55463967028E+03  0.10955244900E+04  0.80736642773E+02 0.  0.
         23    2    4    4    0    0 -0.82350347766E+02  0.87124578556E+02  0.21199713966E+03  0.25976878258E+03  0.90359068257E+02 0.  0.
          4    1    3    3  502    0 -0.47654577750E+03 -0.60973491041E+03  0.37976044549E+03  0.86202699203E+03  0.00000000000E+00 0. -1.
         -3    1    3    3    0  502 -0.97221341077E+02 -0.15232685716E+03  0.13104980017E+03  0.22322524655E+03  0.00000000000E+00 0.  1.
         11    1    5    5    0    0  0.11749622882E+03  0.11668037829E+03 -0.63290118960E+02  0.17727186360E+03  0.00000000000E+00 0.  1.
        -11    1    5    5    0    0  0.53862123752E+03  0.55825681072E+03 -0.49134955132E+03  0.91825262635E+03  0.00000000000E+00 0. -1.
          2    1    6    6  503    0 -0.76618921238E+02  0.84178704733E+02  0.22106234934E+03  0.24864648744E+03  0.00000000000E+00 0. -1.
         -2    1    6    6    0  503 -0.57314265280E+01  0.29458738230E+01 -0.90652096817E+01  0.11122295141E+02  0.00000000000E+00 0.  1.
<mgrwt>
<rscale>  0 0.24347448E+04</rscale>
<asrwt>0</asrwt>
<pdfrwt beam="1">  1        2 0.20067025E+00 0.24347448E+04</pdfrwt>
<pdfrwt beam="2">  1       -1 0.17479829E+00 0.24347448E+04</pdfrwt>
<totfact> 0.38113447E+00</totfact>
</mgrwt>
</event>
<event>
12    6  0.1510140E-007  0.1645499E+04  0.7818608E-02  0.8793074E-01
         -1   -1    0    0    0  501 -0.00000000000E+00  0.00000000000E+00  0.33026448323E+03  0.33026448323E+03  0.00000000000E+00 0.  1.
          2   -1    0    0  501    0  0.00000000000E+00 -0.00000000000E+00 -0.20496196228E+04  0.20496196228E+04  0.00000000000E+00 0. -1.
         24    2    1    2    0    0 -0.28197039449E+03  0.47623599309E+03 -0.40590270974E+03  0.69262523616E+03  0.93084281731E+02 0.  0.
        254    2    1    2    0    0  0.28197039449E+03 -0.47623599309E+03 -0.13134524298E+04  0.16872588699E+04  0.90298238302E+03 0.  0.
         23    2    4    4    0    0 -0.43128955503E+02 -0.40321281699E+03 -0.10278201289E+03  0.42829644406E+03  0.91831471872E+02 0.  0.
         23    2    4    4    0    0  0.32509935000E+03 -0.73023176101E+02 -0.12106704169E+04  0.12589624258E+04  0.90783035644E+02 0.  0.
          2    1    3    3  502    0 -0.27534376791E+03  0.48014572141E+03 -0.39937757919E+03  0.68253685254E+03  0.00000000000E+00 0. -1.
         -1    1    3    3    0  502 -0.66266265860E+01 -0.39097283174E+01 -0.65251305434E+01  0.10088383619E+02  0.00000000000E+00 0.  1.
         11    1    5    5    0    0  0.27335098714E+02 -0.16899933581E+03 -0.41756249728E+02  0.17621454968E+03  0.00000000000E+00 0.  1.
        -11    1    5    5    0    0 -0.70464054217E+02 -0.23421348118E+03 -0.61025763164E+02  0.25208189438E+03  0.00000000000E+00 0. -1.
          3    1    6    6  503    0  0.27403601879E+00 -0.88508862233E+01 -0.94746532903E+01  0.12968513317E+02  0.00000000000E+00 0. -1.
         -3    1    6    6    0  503  0.32482531398E+03 -0.64172289878E+02 -0.12011957636E+04  0.12459939125E+04  0.00000000000E+00 0.  1.
<mgrwt>
<rscale>  0 0.16454988E+04</rscale>
<asrwt>0</asrwt>
<pdfrwt beam="1">  1        2 0.31532609E+00 0.16454988E+04</pdfrwt>
<pdfrwt beam="2">  1       -1 0.50809921E-01 0.16454988E+04</pdfrwt>
<totfact> 0.26567017E+01</totfact>
</mgrwt>
</event>
<event>
12    6  0.1510140E-007  0.1624321E+04  0.7818608E-02  0.8805744E-01
         -1   -1    0    0    0  501 -0.00000000000E+00  0.00000000000E+00  0.15927740552E+04  0.15927740552E+04  0.00000000000E+00 0.  1.
          2   -1    0    0  501    0  0.00000000000E+00 -0.00000000000E+00 -0.41412328127E+03  0.41412328127E+03  0.00000000000E+00 0. -1.
         24    2    1    2    0    0 -0.31219576005E+03 -0.37119196572E+03  0.73688525841E+03  0.88577629968E+03  0.79687520903E+02 0.  0.
        254    2    1    2    0    0  0.31219576005E+03  0.37119196572E+03  0.44176551551E+03  0.11211210368E+04  0.90912372118E+03 0.  0.
         23    2    4    4    0    0  0.52542056469E+03  0.50480950036E+03  0.43464652772E+03  0.85328835921E+03  0.91016583339E+02 0.  0.
         23    2    4    4    0    0 -0.21322480464E+03 -0.13361753464E+03  0.71189877951E+01  0.26783267758E+03  0.91461469024E+02 0.  0.
          2    1    3    3  502    0  0.38649701466E+01 -0.23802849243E+01  0.15211633496E+02  0.15874430515E+02  0.00000000000E+00 0. -1.
         -1    1    3    3    0  502 -0.31606073020E+03 -0.36881168080E+03  0.72167362492E+03  0.86990186916E+03  0.00000000000E+00 0.  1.
         11    1    5    5    0    0  0.19916059538E+03  0.25216630787E+03  0.20277676102E+03  0.37996210915E+03  0.00000000000E+00 0. -1.
        -11    1    5    5    0    0  0.32625996931E+03  0.25264319249E+03  0.23186976670E+03  0.47332625006E+03  0.00000000000E+00 0.  1.
          1    1    6    6  503    0 -0.18612276719E+03 -0.12220626265E+03 -0.25269593121E+02  0.22408616073E+03  0.00000000000E+00 0. -1.
         -1    1    6    6    0  503 -0.27102037451E+02 -0.11411271994E+02  0.32388580916E+02  0.43746516848E+02  0.00000000000E+00 0.  1.
<mgrwt>
<rscale>  0 0.16243212E+04</rscale>
<asrwt>0</asrwt>
<pdfrwt beam="1">  1        2 0.63711275E-01 0.16243212E+04</pdfrwt>
<pdfrwt beam="2">  1       -1 0.24504216E+00 0.16243212E+04</pdfrwt>
<totfact> 0.62892292E+00</totfact>
</mgrwt>
</event>
<event>
12    6  0.1510140E-007  0.1167305E+04  0.7818608E-02  0.9141966E-01
          2   -1    0    0  501    0  0.00000000000E+00  0.00000000000E+00  0.26215702244E+04  0.26215702244E+04  0.00000000000E+00 0. -1.
         -1   -1    0    0    0  501 -0.00000000000E+00 -0.00000000000E+00 -0.12994130467E+03  0.12994130467E+03  0.00000000000E+00 0.  1.
         24    2    1    2    0    0  0.76311492037E+02  0.13653977182E+02  0.97812968499E+03  0.98464532701E+03  0.82333859506E+02 0.  0.
        254    2    1    2    0    0 -0.76311492037E+02 -0.13653977182E+02  0.15134992347E+04  0.17668662020E+04  0.90836466658E+03 0.  0.
         23    2    4    4    0    0  0.12805744402E+03 -0.11994595230E+03  0.15050102806E+04  0.15180209344E+04  0.92443887513E+02 0.  0.
         23    2    4    4    0    0 -0.20436893606E+03  0.10629197512E+03  0.84889541255E+01  0.24884526758E+03  0.93740380054E+02 0.  0.
          4    1    3    3  502    0  0.43615556914E+02  0.30455957750E+02  0.84078619692E+03  0.84246739468E+03  0.00000000000E+00 0. -1.
         -3    1    3    3    0  502  0.32695935123E+02 -0.16801980568E+02  0.13734348807E+03  0.14217793233E+03  0.00000000000E+00 0.  1.
         11    1    5    5    0    0  0.96149699753E+02 -0.40752550717E+02  0.60271340863E+03  0.61169354100E+03  0.00000000000E+00 0.  1.
        -11    1    5    5    0    0  0.31907744267E+02 -0.79193401588E+02  0.90229687193E+03  0.90632739344E+03  0.00000000000E+00 0. -1.
          2    1    6    6  503    0 -0.12547107478E+03  0.91806040632E+02 -0.32395391493E+02  0.15881058244E+03  0.00000000000E+00 0. -1.
         -2    1    6    6    0  503 -0.78897861274E+02  0.14485934490E+02  0.40884345619E+02  0.90034685141E+02  0.00000000000E+00 0.  1.
<mgrwt>
<rscale>  0 0.11673050E+04</rscale>
<asrwt>0</asrwt>
<pdfrwt beam="1">  1        2 0.40331846E+00 0.11673050E+04</pdfrwt>
<pdfrwt beam="2">  1       -1 0.19990972E-01 0.11673050E+04</pdfrwt>
<totfact> 0.68751219E+01</totfact>
</mgrwt>
</event>
<event>
12    6  0.1510140E-007  0.1619933E+04  0.7818608E-02  0.8808395E-01
         -1   -1    0    0    0  501 -0.00000000000E+00  0.00000000000E+00  0.28647115684E+03  0.28647115684E+03  0.00000000000E+00 0.  1.
          2   -1    0    0  501    0  0.00000000000E+00 -0.00000000000E+00 -0.22900941305E+04  0.22900941305E+04  0.00000000000E+00 0. -1.
         24    2    1    2    0    0 -0.17666038104E+03 -0.51144060176E+03 -0.51391764081E+03  0.75050052371E+03  0.79745314631E+02 0.  0.
        254    2    1    2    0    0  0.17666038104E+03  0.51144060176E+03 -0.14897053328E+04  0.18260647636E+04  0.90692346029E+03 0.  0.
         23    2    4    4    0    0  0.44966408139E+03  0.42347848842E+03 -0.13635907468E+04  0.14998190193E+04  0.92442142142E+02 0.  0.
         23    2    4    4    0    0 -0.27300370035E+03  0.87962113344E+02 -0.12611458606E+03  0.32624574433E+03  0.90901282087E+02 0.  0.
          4    1    3    3  502    0 -0.57311402243E+02 -0.89965280801E+02 -0.12877346898E+03  0.16721529502E+03  0.00000000000E+00 0. -1.
         -3    1    3    3    0  502 -0.11934897880E+03 -0.42147532096E+03 -0.38514417183E+03  0.58328522869E+03  0.00000000000E+00 0.  1.
         11    1    5    5    0    0  0.41686437894E+03  0.35102737954E+03 -0.11966853927E+04  0.13149342420E+04  0.00000000000E+00 0.  1.
        -11    1    5    5    0    0  0.32799702453E+02  0.72451108881E+02 -0.16690535404E+03  0.18488477727E+03  0.00000000000E+00 0. -1.
          4    1    6    6  503    0  0.68933803061E+01  0.55882833370E+01 -0.15830403077E+01  0.90140789499E+01  0.00000000000E+00 0. -1.
         -4    1    6    6    0  503 -0.27989708066E+03  0.82373830007E+02 -0.12453154576E+03  0.31723166538E+03  0.00000000000E+00 0.  1.
<mgrwt>
<rscale>  0 0.16199332E+04</rscale>
<asrwt>0</asrwt>
<pdfrwt beam="1">  1        2 0.35232216E+00 0.16199332E+04</pdfrwt>
<pdfrwt beam="2">  1       -1 0.44072487E-01 0.16199332E+04</pdfrwt>
<totfact> 0.25525169E+01</totfact>
</mgrwt>
</event>
<event>
12    6  0.1510140E-007  0.1863155E+04  0.7818608E-02  0.8673417E-01
          2   -1    0    0  501    0  0.00000000000E+00  0.00000000000E+00  0.14693494083E+04  0.14693494083E+04  0.00000000000E+00 0. -1.
         -3   -1    0    0    0  501 -0.00000000000E+00 -0.00000000000E+00 -0.59062676089E+03  0.59062676089E+03  0.00000000000E+00 0.  1.
         24    2    1    2    0    0 -0.84103856772E+02  0.70177656436E+03  0.44077998719E+03  0.83679205637E+03  0.79813178576E+02 0.  0.
        254    2    1    2    0    0  0.84103856772E+02 -0.70177656436E+03  0.43794266025E+03  0.12231841129E+04  0.89711860713E+03 0.  0.
         23    2    4    4    0    0  0.17180902492E+03 -0.71937916785E+03 -0.21498324642E+02  0.74567945289E+03  0.92471294558E+02 0.  0.
         23    2    4    4    0    0 -0.87705168152E+02  0.17602603481E+02  0.45944098489E+03  0.47750465997E+03  0.94459692616E+02 0.  0.
          2    1    3    3  502    0 -0.52022110319E+02  0.26042701006E+03  0.12739031351E+03  0.29454510607E+03  0.00000000000E+00 0. -1.
         -1    1    3    3    0  502 -0.32081746452E+02  0.44134955430E+03  0.31338967368E+03  0.54224695030E+03  0.00000000000E+00 0.  1.
         11    1    5    5    0    0  0.16460014121E+03 -0.52219279937E+03 -0.33743023022E+01  0.54753074080E+03  0.00000000000E+00 0. -1.
        -11    1    5    5    0    0  0.72088837131E+01 -0.19718636847E+03 -0.18124022339E+02  0.19814871209E+03  0.00000000000E+00 0.  1.
          2    1    6    6  503    0 -0.84208108886E+02  0.45846213304E+02  0.28343771493E+03  0.29921533905E+03  0.00000000000E+00 0. -1.
         -2    1    6    6    0  503 -0.34970592656E+01 -0.28243609824E+02  0.17600326996E+03  0.17828932092E+03  0.00000000000E+00 0.  1.
<mgrwt>
<rscale>  0 0.18631555E+04</rscale>
<asrwt>0</asrwt>
<pdfrwt beam="1">  1        2 0.22605375E+00 0.18631555E+04</pdfrwt>
<pdfrwt beam="2">  1       -3 0.90865656E-01 0.18631555E+04</pdfrwt>
<totfact> 0.86173993E+00</totfact>
</mgrwt>
</event>
<event>
12    6  0.1510140E-007  0.1640174E+04  0.7818608E-02  0.8796240E-01
         -1   -1    0    0    0  501 -0.00000000000E+00  0.00000000000E+00  0.83511148038E+03  0.83511148038E+03  0.00000000000E+00 0.  1.
          2   -1    0    0  501    0  0.00000000000E+00 -0.00000000000E+00 -0.80533327946E+03  0.80533327946E+03  0.00000000000E+00 0. -1.
         24    2    1    2    0    0 -0.43269980809E+03 -0.22693407147E+03  0.30493867768E+03  0.58113272671E+03  0.77456130776E+02 0.  0.
        254    2    1    2    0    0  0.43269980809E+03  0.22693407147E+03 -0.27516047676E+03  0.10593120331E+04  0.89872159141E+03 0.  0.
         23    2    4    4    0    0  0.27529229607E+03  0.42440596056E+03  0.16870309309E+03  0.54071897917E+03  0.89498676951E+02 0.  0.
         23    2    4    4    0    0  0.15740751201E+03 -0.19747188909E+03 -0.44386356985E+03  0.51859305397E+03  0.90286295556E+02 0.  0.
          2    1    3    3  502    0 -0.16908960398E+03 -0.11889061617E+03  0.96433229223E+02  0.22809129858E+03  0.00000000000E+00 0. -1.
         -1    1    3    3    0  502 -0.26361020410E+03 -0.10804345530E+03  0.20850544846E+03  0.35304142813E+03  0.00000000000E+00 0.  1.
         11    1    5    5    0    0  0.23745308832E+03  0.31399602748E+03  0.15546186704E+03  0.42325626579E+03  0.00000000000E+00 0. -1.
        -11    1    5    5    0    0  0.37839207750E+02  0.11040993309E+03  0.13241226049E+02  0.11746271338E+03  0.00000000000E+00 0.  1.
          1    1    6    6  503    0  0.15903120363E+03 -0.19219748975E+03 -0.38046908575E+03  0.45495881572E+03  0.00000000000E+00 0. -1.
         -1    1    6    6    0  503 -0.16236916147E+01 -0.52743993452E+01 -0.63394484098E+02  0.63634238245E+02  0.00000000000E+00 0.  1.
<mgrwt>
<rscale>  0 0.16401745E+04</rscale>
<asrwt>0</asrwt>
<pdfrwt beam="1">  1        2 0.12389743E+00 0.16401745E+04</pdfrwt>
<pdfrwt beam="2">  1       -1 0.12847869E+00 0.16401745E+04</pdfrwt>
<totfact> 0.19470584E+01</totfact>
</mgrwt>
</event>
<event>
12    6  0.1510140E-007  0.2270149E+04  0.7818608E-02  0.8489785E-01
         -1   -1    0    0    0  501 -0.00000000000E+00  0.00000000000E+00  0.17190674978E+04  0.17190674978E+04  0.00000000000E+00 0.  1.
          2   -1    0    0  501    0  0.00000000000E+00 -0.00000000000E+00 -0.74947293808E+03  0.74947293808E+03  0.00000000000E+00 0. -1.
         24    2    1    2    0    0 -0.10690681706E+02  0.13704851257E+03  0.14342957475E+04  0.14430885998E+04  0.80023933996E+02 0.  0.
        254    2    1    2    0    0  0.10690681706E+02 -0.13704851257E+03 -0.46470118782E+03  0.10254518361E+04  0.90371881061E+03 0.  0.
         23    2    4    4    0    0  0.20137304728E+03 -0.22729743995E+03  0.16357200874E+03  0.35651822850E+03  0.90189882090E+02 0.  0.
         23    2    4    4    0    0 -0.19068236558E+03  0.90248927382E+02 -0.62827319656E+03  0.66893360756E+03  0.90776254447E+02 0.  0.
          2    1    3    3  502    0 -0.40545103037E+02  0.11219242180E+03  0.10109106496E+04  0.10179250396E+04  0.00000000000E+00 0. -1.
         -1    1    3    3    0  502  0.29854421331E+02  0.24856090770E+02  0.42338509792E+03  0.42516356013E+03  0.00000000000E+00 0.  1.
         11    1    5    5    0    0 -0.53038194743E+01 -0.31556200339E+02  0.19580776530E+02  0.37514411769E+02  0.00000000000E+00 0. -1.
        -11    1    5    5    0    0  0.20667686676E+03 -0.19574123961E+03  0.14399123221E+03  0.31900381673E+03  0.00000000000E+00 0.  1.
          1    1    6    6  503    0 -0.72031512183E+02 -0.67681774848E+01 -0.26392175472E+03  0.27365861870E+03  0.00000000000E+00 0. -1.
         -1    1    6    6    0  503 -0.11865085340E+03  0.97017104867E+02 -0.36435144184E+03  0.39527498886E+03  0.00000000000E+00 0.  1.
<mgrwt>
<rscale>  0 0.22701494E+04</rscale>
<asrwt>0</asrwt>
<pdfrwt beam="1">  1        2 0.11530353E+00 0.22701494E+04</pdfrwt>
<pdfrwt beam="2">  1       -1 0.26447192E+00 0.22701494E+04</pdfrwt>
<totfact> 0.21843077E+00</totfact>
</mgrwt>
</event>
<event>
12    6  0.1510140E-007  0.3944073E+04  0.7818608E-02  0.8015925E-01
         -1   -1    0    0    0  501 -0.00000000000E+00  0.00000000000E+00  0.28352896097E+04  0.28352896097E+04  0.00000000000E+00 0.  1.
          2   -1    0    0  501    0  0.00000000000E+00 -0.00000000000E+00 -0.13716154505E+04  0.13716154505E+04  0.00000000000E+00 0. -1.
         24    2    1    2    0    0 -0.52556616346E+03 -0.48080225693E+02 -0.12160183917E+04  0.13280507789E+04  0.80539692483E+02 0.  0.
        254    2    1    2    0    0  0.52556616346E+03  0.48080225693E+02  0.26796925508E+04  0.28788542814E+04  0.91022980940E+03 0.  0.
         23    2    4    4    0    0  0.41776850567E+03 -0.12779555009E+03  0.43566212370E+03  0.62352867571E+03  0.90134879265E+02 0.  0.
         23    2    4    4    0    0  0.10779765779E+03  0.17587577579E+03  0.22440304271E+04  0.22553256056E+04  0.90930775645E+02 0.  0.
          2    1    3    3  502    0 -0.43624325802E+03 -0.69845656995E+02 -0.99507090189E+03  0.10887390393E+04  0.00000000000E+00 0. -1.
         -1    1    3    3    0  502 -0.89322905442E+02  0.21765431302E+02 -0.22094748981E+03  0.23931173956E+03  0.00000000000E+00 0.  1.
         11    1    5    5    0    0  0.39474050270E+03 -0.14142464287E+03  0.40852887178E+03  0.58542021930E+03  0.00000000000E+00 0.  1.
        -11    1    5    5    0    0  0.23028002967E+02  0.13629092782E+02  0.27133251918E+02  0.38108456415E+02  0.00000000000E+00 0. -1.
          2    1    6    6  503    0  0.72353772798E+02  0.35437229405E+02  0.78537850677E+03  0.78950000922E+03  0.00000000000E+00 0. -1.
         -2    1    6    6    0  503  0.35443884995E+02  0.14043854638E+03  0.14586519204E+04  0.14658255964E+04  0.00000000000E+00 0.  1.
<mgrwt>
<rscale>  0 0.39440725E+04</rscale>
<asrwt>0</asrwt>
<pdfrwt beam="1">  1        2 0.21101776E+00 0.39440725E+04</pdfrwt>
<pdfrwt beam="2">  1       -1 0.43619840E+00 0.39440725E+04</pdfrwt>
<totfact> 0.54632083E-02</totfact>
</mgrwt>
</event>
<event>
12    6  0.1510140E-007  0.2346201E+04  0.7818608E-02  0.8459924E-01
         -1   -1    0    0    0  501 -0.00000000000E+00  0.00000000000E+00  0.70857837743E+03  0.70857837743E+03  0.00000000000E+00 0.  1.
          2   -1    0    0  501    0  0.00000000000E+00 -0.00000000000E+00 -0.19421494975E+04  0.19421494975E+04  0.00000000000E+00 0. -1.
         24    2    1    2    0    0 -0.85563126719E+03 -0.10488543112E+03  0.41128326722E+02  0.86626805069E+03  0.74986514321E+02 0.  0.
        254    2    1    2    0    0  0.85563126719E+03  0.10488543112E+03 -0.12746994468E+04  0.17844598243E+04  0.90351113200E+03 0.  0.
         23    2    4    4    0    0 -0.11020371486E+03 -0.14224353314E+03 -0.42849413724E+03  0.47366355477E+03  0.91497846829E+02 0.  0.
         23    2    4    4    0    0  0.96583498205E+03  0.24712896427E+03 -0.84620530960E+03  0.13107962695E+04  0.90628343577E+02 0.  0.
          2    1    3    3  502    0 -0.15635478644E+03 -0.40763875682E+02  0.27640200359E+02  0.16392831811E+03  0.00000000000E+00 0. -1.
         -1    1    3    3    0  502 -0.69927648075E+03 -0.64121555442E+02  0.13488126363E+02  0.70233973258E+03  0.00000000000E+00 0.  1.
         11    1    5    5    0    0 -0.98553640105E+02 -0.12330451250E+03 -0.26338780196E+03  0.30706669797E+03  0.00000000000E+00 0. -1.
        -11    1    5    5    0    0 -0.11650074752E+02 -0.18939020645E+02 -0.16510633528E+03  0.16659685679E+03  0.00000000000E+00 0.  1.
          4    1    6    6  503    0  0.83584406037E+03  0.24286914341E+03 -0.75092915647E+03  0.11495717951E+04  0.00000000000E+00 0. -1.
         -4    1    6    6    0  503  0.12999092168E+03  0.42598208538E+01 -0.95276153126E+02  0.16122447441E+03  0.00000000000E+00 0.  1.
<mgrwt>
<rscale>  0 0.23462013E+04</rscale>
<asrwt>0</asrwt>
<pdfrwt beam="1">  1        2 0.29879223E+00 0.23462013E+04</pdfrwt>
<pdfrwt beam="2">  1       -1 0.10901206E+00 0.23462013E+04</pdfrwt>
<totfact> 0.57660309E+00</totfact>
</mgrwt>
</event>
<event>
12    6  0.1510140E-007  0.1897014E+04  0.7818608E-02  0.8656344E-01
          2   -1    0    0  501    0  0.00000000000E+00  0.00000000000E+00  0.28990198650E+04  0.28990198650E+04  0.00000000000E+00 0. -1.
         -1   -1    0    0    0  501 -0.00000000000E+00 -0.00000000000E+00 -0.31033425266E+03  0.31033425266E+03  0.00000000000E+00 0.  1.
         24    2    1    2    0    0  0.10602658870E+02 -0.16363829047E+03  0.22090295719E+04  0.22166006764E+04  0.81344958959E+02 0.  0.
        254    2    1    2    0    0 -0.10602658870E+02  0.16363829047E+03  0.37965604039E+03  0.99275344127E+03  0.90251358974E+03 0.  0.
         23    2    4    4    0    0 -0.41932009362E+03  0.14546713555E+03  0.35026374453E+03  0.57279924898E+03  0.91783770134E+02 0.  0.
         23    2    4    4    0    0  0.40871743475E+03  0.18171154917E+02  0.29392295864E+02  0.41995419229E+03  0.90097082219E+02 0.  0.
          4    1    3    3  502    0  0.35266129924E+02 -0.11978361304E+03  0.18285969792E+04  0.18328553478E+04  0.00000000000E+00 0. -1.
         -3    1    3    3    0  502 -0.24663471054E+02 -0.43854677425E+02  0.38043259278E+03  0.38374532856E+03  0.00000000000E+00 0.  1.
         11    1    5    5    0    0 -0.30237746815E+03  0.61577186854E+02  0.25371743925E+03  0.39949520919E+03  0.00000000000E+00 0. -1.
        -11    1    5    5    0    0 -0.11694262547E+03  0.83889948696E+02  0.96546305273E+02  0.17330403979E+03  0.00000000000E+00 0.  1.
          2    1    6    6  503    0  0.36404189507E+03  0.27342438574E+02 -0.11423069090E+01  0.36506905536E+03  0.00000000000E+00 0. -1.
         -2    1    6    6    0  503  0.44675539683E+02 -0.91712836570E+01  0.30534602773E+02  0.54885136935E+02  0.00000000000E+00 0.  1.
<mgrwt>
<rscale>  0 0.18970136E+04</rscale>
<asrwt>0</asrwt>
<pdfrwt beam="1">  1        2 0.44600304E+00 0.18970136E+04</pdfrwt>
<pdfrwt beam="2">  1       -1 0.47743733E-01 0.18970136E+04</pdfrwt>
<totfact> 0.94244604E+00</totfact>
</mgrwt>
</event>
<event>
12    6  0.1510140E-007  0.1325146E+04  0.7818608E-02  0.9009858E-01
          2   -1    0    0  501    0  0.00000000000E+00  0.00000000000E+00  0.13281686272E+04  0.13281686272E+04  0.00000000000E+00 0. -1.
         -1   -1    0    0    0  501 -0.00000000000E+00 -0.00000000000E+00 -0.33053271993E+03  0.33053271993E+03  0.00000000000E+00 0.  1.
         24    2    1    2    0    0 -0.15460416331E+02 -0.30524207571E+03  0.49146129214E+03  0.58424693862E+03  0.79990839189E+02 0.  0.
        254    2    1    2    0    0  0.15460416331E+02  0.30524207571E+03  0.50617461511E+03  0.10744544085E+04  0.89712194583E+03 0.  0.
         23    2    4    4    0    0 -0.28395834612E+03  0.82562404112E+01  0.56531796373E+03  0.63913577238E+03  0.90606995260E+02 0.  0.
         23    2    4    4    0    0  0.29941876245E+03  0.29698583530E+03 -0.59143348617E+02  0.43531863611E+03  0.90289520904E+02 0.  0.
          4    1    3    3  502    0 -0.33561071582E+02 -0.28391927061E+03  0.46428090713E+03  0.54524605315E+03  0.00000000000E+00 0. -1.
         -3    1    3    3    0  502  0.18100655252E+02 -0.21322805108E+02  0.27180385006E+02  0.39000885468E+02  0.00000000000E+00 0.  1.
         11    1    5    5    0    0 -0.11275404010E+03  0.26900852542E+02  0.15032818107E+03  0.18983069154E+03  0.00000000000E+00 0. -1.
        -11    1    5    5    0    0 -0.17120430601E+03 -0.18644612131E+02  0.41498978266E+03  0.44930508084E+03  0.00000000000E+00 0.  1.
          1    1    6    6  503    0  0.14238927492E+03  0.93243838181E+02  0.47475881759E+01  0.17026937060E+03  0.00000000000E+00 0. -1.
         -1    1    6    6    0  503  0.15702948753E+03  0.20374199712E+03 -0.63890936793E+02  0.26504926551E+03  0.00000000000E+00 0.  1.
<mgrwt>
<rscale>  0 0.13251463E+04</rscale>
<asrwt>0</asrwt>
<pdfrwt beam="1">  1        2 0.20433363E+00 0.13251463E+04</pdfrwt>
<pdfrwt beam="2">  1       -1 0.50851189E-01 0.13251463E+04</pdfrwt>
<totfact> 0.68986337E+01</totfact>
</mgrwt>
</event>
<event>
12    6  0.1510140E-007  0.1759047E+04  0.7818608E-02  0.8728386E-01
          2   -1    0    0  501    0  0.00000000000E+00  0.00000000000E+00  0.14776461807E+04  0.14776461807E+04  0.00000000000E+00 0. -1.
         -1   -1    0    0    0  501 -0.00000000000E+00 -0.00000000000E+00 -0.52350939543E+03  0.52350939543E+03  0.00000000000E+00 0.  1.
         24    2    1    2    0    0 -0.22418015421E+03  0.59466777125E+03  0.20028762237E+03  0.67204149340E+03  0.87396438492E+02 0.  0.
        254    2    1    2    0    0  0.22418015421E+03 -0.59466777125E+03  0.75384916293E+03  0.13291140828E+04  0.89127391125E+03 0.  0.
         23    2    4    4    0    0  0.43890142497E+03 -0.59849255929E+03  0.79537444221E+03  0.10914079805E+04  0.87881011825E+02 0.  0.
         23    2    4    4    0    0 -0.21472127076E+03  0.38247880389E+01 -0.41525279282E+02  0.23770610226E+03  0.93059062485E+02 0.  0.
          2    1    3    3  502    0 -0.21033711455E+03  0.57028713336E+03  0.20886275284E+03  0.64272293078E+03  0.00000000000E+00 0. -1.
         -1    1    3    3    0  502 -0.13843039657E+02  0.24380637899E+02 -0.85751304661E+01  0.29318562615E+02  0.00000000000E+00 0.  1.
         11    1    5    5    0    0  0.35104983611E+02 -0.34622226951E+02  0.26589500603E+02  0.56018389978E+02  0.00000000000E+00 0. -1.
        -11    1    5    5    0    0  0.40379644136E+03 -0.56387033234E+03  0.76878494161E+03  0.10353895905E+04  0.00000000000E+00 0.  1.
          3    1    6    6  503    0 -0.14063635873E+02 -0.21365235442E+02  0.12373598481E+02  0.28414170388E+02  0.00000000000E+00 0. -1.
         -3    1    6    6    0  503 -0.20065763489E+03  0.25190023481E+02 -0.53898877763E+02  0.20929193187E+03  0.00000000000E+00 0.  1.
<mgrwt>
<rscale>  0 0.17590471E+04</rscale>
<asrwt>0</asrwt>
<pdfrwt beam="1">  1        2 0.22733018E+00 0.17590471E+04</pdfrwt>
<pdfrwt beam="2">  1       -1 0.80539907E-01 0.17590471E+04</pdfrwt>
<totfact> 0.21689425E+01</totfact>
</mgrwt>
</event>
<event>
12    6  0.1510140E-007  0.1524188E+04  0.7818608E-02  0.8868526E-01
          2   -1    0    0  501    0  0.00000000000E+00  0.00000000000E+00  0.46112359415E+04  0.46112359415E+04  0.00000000000E+00 0. -1.
         -1   -1    0    0    0  501 -0.00000000000E+00 -0.00000000000E+00 -0.12595037953E+03  0.12595037953E+03  0.00000000000E+00 0.  1.
         24    2    1    2    0    0 -0.20374001647E+03  0.39696426503E+03  0.82477509714E+03  0.94107242345E+03  0.79200525856E+02 0.  0.
        254    2    1    2    0    0  0.20374001647E+03 -0.39696426503E+03  0.36605104649E+04  0.37961138976E+04  0.90113996591E+03 0.  0.
         23    2    4    4    0    0  0.11465971416E+03  0.73172655759E+02  0.79223134746E+02  0.18173547167E+03  0.90831651864E+02 0.  0.
         23    2    4    4    0    0  0.89080302306E+02 -0.47013692079E+03  0.35812873301E+04  0.36143784259E+04  0.95647480098E+02 0.  0.
          4    1    3    3  502    0 -0.96242050147E+02  0.11034875966E+03  0.29061133203E+03  0.32541408586E+03  0.00000000000E+00 0. -1.
         -3    1    3    3    0  502 -0.10749796632E+03  0.28661550538E+03  0.53416376511E+03  0.61565833759E+03  0.00000000000E+00 0.  1.
         11    1    5    5    0    0  0.57177159936E+02 -0.13067887596E+02  0.39645248118E+02  0.70793664992E+02  0.00000000000E+00 0.  1.
        -11    1    5    5    0    0  0.57482554225E+02  0.86240543354E+02  0.39577886627E+02  0.11094180667E+03  0.00000000000E+00 0. -1.
          4    1    6    6  503    0  0.90923165996E+02 -0.31052240152E+03  0.26240465358E+04  0.26439197049E+04  0.00000000000E+00 0.  1.
         -4    1    6    6    0  503 -0.18428636902E+01 -0.15961451928E+03  0.95724079432E+03  0.97045872103E+03  0.00000000000E+00 0. -1.
<mgrwt>
<rscale>  0 0.15241875E+04</rscale>
<asrwt>0</asrwt>
<pdfrwt beam="1">  1        2 0.70942078E+00 0.15241875E+04</pdfrwt>
<pdfrwt beam="2">  1       -1 0.19376985E-01 0.15241875E+04</pdfrwt>
<totfact> 0.23397927E+00</totfact>
</mgrwt>
</event>
<event>
12    6  0.1510140E-007  0.2908691E+04  0.7818608E-02  0.8270296E-01
          2   -1    0    0  501    0  0.00000000000E+00  0.00000000000E+00  0.20407538043E+04  0.20407538043E+04  0.00000000000E+00 0. -1.
         -1   -1    0    0    0  501 -0.00000000000E+00 -0.00000000000E+00 -0.10364406988E+04  0.10364406988E+04  0.00000000000E+00 0.  1.
         24    2    1    2    0    0  0.10746474142E+04 -0.24745799290E+03 -0.29752640833E+03  0.11449713105E+04  0.79591551600E+02 0.  0.
        254    2    1    2    0    0 -0.10746474142E+04  0.24745799290E+03  0.13018395138E+04  0.19322231926E+04  0.90697178750E+03 0.  0.
         23    2    4    4    0    0 -0.11508179701E+04  0.32183094566E+03  0.13291804367E+04  0.17896527934E+04  0.90439646868E+02 0.  0.
         23    2    4    4    0    0  0.76170555878E+02 -0.74372952755E+02 -0.27340922905E+02  0.14257039923E+03  0.90804752015E+02 0.  0.
          2    1    3    3  502    0  0.25402600698E+03 -0.39379613738E+02 -0.98613230179E+02  0.27532623444E+03  0.00000000000E+00 0. -1.
         -1    1    3    3    0  502  0.82062140724E+03 -0.20807837917E+03 -0.19891317815E+03  0.86964507607E+03  0.00000000000E+00 0.  1.
         11    1    5    5    0    0 -0.93074727675E+03  0.24151248812E+03  0.11134302845E+04  0.14711715650E+04  0.00000000000E+00 0.  1.
        -11    1    5    5    0    0 -0.22007069335E+03  0.80318457538E+02  0.21575015214E+03  0.31848122840E+03  0.00000000000E+00 0. -1.
          1    1    6    6  503    0  0.30034744792E+02  0.13272360763E+02  0.13408761640E+02  0.35468808038E+02  0.00000000000E+00 0. -1.
         -1    1    6    6    0  503  0.46135811086E+02 -0.87645313518E+02 -0.40749684546E+02  0.10710159120E+03  0.00000000000E+00 0.  1.
<mgrwt>
<rscale>  0 0.29086906E+04</rscale>
<asrwt>0</asrwt>
<pdfrwt beam="1">  1        2 0.31396212E+00 0.29086906E+04</pdfrwt>
<pdfrwt beam="2">  1       -1 0.15945242E+00 0.29086906E+04</pdfrwt>
<totfact> 0.18353603E+00</totfact>
</mgrwt>
</event>
<event>
12    6  0.1510140E-007  0.1387693E+04  0.7818608E-02  0.8962776E-01
          2   -1    0    0  501    0  0.00000000000E+00  0.00000000000E+00  0.92544255272E+03  0.92544255272E+03  0.00000000000E+00 0. -1.
         -1   -1    0    0    0  501 -0.00000000000E+00 -0.00000000000E+00 -0.52020829555E+03  0.52020829555E+03  0.00000000000E+00 0.  1.
         24    2    1    2    0    0  0.29720727792E+03 -0.42059617517E+02 -0.15385535461E+03  0.34668297903E+03  0.80102686182E+02 0.  0.
        254    2    1    2    0    0 -0.29720727792E+03  0.42059617517E+02  0.55908961178E+03  0.10989678692E+04  0.89724467464E+03 0.  0.
         23    2    4    4    0    0 -0.16172411332E+03 -0.41196034963E+03  0.18868382558E+03  0.49026660277E+03  0.94306613054E+02 0.  0.
         23    2    4    4    0    0 -0.13548316460E+03  0.45401996714E+03  0.37040578620E+03  0.60870126648E+03  0.93951939356E+02 0.  0.
          4    1    3    3  502    0  0.14433326659E+02 -0.22155210036E+01  0.97611407340E+01  0.17564433386E+02  0.00000000000E+00 0. -1.
         -1    1    3    3    0  502  0.28277395126E+03 -0.39844096514E+02 -0.16361649534E+03  0.32911854564E+03  0.00000000000E+00 0.  1.
         11    1    5    5    0    0 -0.11061588498E+03 -0.29981256281E+03  0.88930262476E+02  0.33171077524E+03  0.00000000000E+00 0. -1.
        -11    1    5    5    0    0 -0.51108228333E+02 -0.11214778682E+03  0.99753563102E+02  0.15855582753E+03  0.00000000000E+00 0.  1.
          1    1    6    6  503    0 -0.11928020117E+03  0.36685907673E+03  0.34219908655E+03  0.51566807484E+03  0.00000000000E+00 0. -1.
         -1    1    6    6    0  503 -0.16202963437E+02  0.87160890418E+02  0.28206699643E+02  0.93033191643E+02  0.00000000000E+00 0.  1.
<mgrwt>
<rscale>  0 0.13876929E+04</rscale>
<asrwt>0</asrwt>
<pdfrwt beam="1">  1        2 0.14237578E+00 0.13876929E+04</pdfrwt>
<pdfrwt beam="2">  1       -1 0.80032045E-01 0.13876929E+04</pdfrwt>
<totfact> 0.48855053E+01</totfact>
</mgrwt>
</event>
<event>
12    6  0.1510140E-007  0.2104188E+04  0.7818608E-02  0.8559401E-01
          2   -1    0    0  501    0  0.00000000000E+00  0.00000000000E+00  0.85050767439E+03  0.85050767439E+03  0.00000000000E+00 0. -1.
         -1   -1    0    0    0  501 -0.00000000000E+00 -0.00000000000E+00 -0.13014606960E+04  0.13014606960E+04  0.00000000000E+00 0.  1.
         24    2    1    2    0    0  0.67058489529E+03  0.14357859539E+02 -0.71661311553E+03  0.98468816776E+03  0.78652275553E+02 0.  0.
        254    2    1    2    0    0 -0.67058489529E+03 -0.14357859539E+02  0.26566009390E+03  0.11672802026E+04  0.91764782790E+03 0.  0.
         23    2    4    4    0    0 -0.61298513979E+03 -0.29734176253E+03 -0.97869291319E+02  0.69419432742E+03  0.90357405271E+02 0.  0.
         23    2    4    4    0    0 -0.57599755500E+02  0.28298390299E+03  0.36352938522E+03  0.47308587522E+03  0.90879096778E+02 0.  0.
          4    1    3    3  502    0  0.60283981097E+02  0.14906864764E+02 -0.95485912842E+02  0.11390317180E+03  0.00000000000E+00 0. -1.
         -3    1    3    3    0  502  0.61030091419E+03 -0.54900522518E+00 -0.62112720269E+03  0.87078499596E+03  0.00000000000E+00 0.  1.
         11    1    5    5    0    0 -0.63426685339E+02 -0.27053995071E+01 -0.40022452718E+01  0.63610388827E+02  0.00000000000E+00 0.  1.
        -11    1    5    5    0    0 -0.54955845445E+03 -0.29463636302E+03 -0.93867046047E+02  0.63058393859E+03  0.00000000000E+00 0. -1.
          2    1    6    6  503    0 -0.71430726032E+02  0.15747787703E+03  0.24519106568E+03  0.30003381321E+03  0.00000000000E+00 0. -1.
         -2    1    6    6    0  503  0.13830970532E+02  0.12550602595E+03  0.11833831954E+03  0.17305206202E+03  0.00000000000E+00 0.  1.
<mgrwt>
<rscale>  0 0.21041885E+04</rscale>
<asrwt>0</asrwt>
<pdfrwt beam="1">  1        2 0.13084733E+00 0.21041885E+04</pdfrwt>
<pdfrwt beam="2">  1       -1 0.20022472E+00 0.21041885E+04</pdfrwt>
<totfact> 0.49985225E+00</totfact>
</mgrwt>
</event>
<event>
12    6  0.1510140E-007  0.2252700E+04  0.7818608E-02  0.8496808E-01
         -1   -1    0    0    0  501 -0.00000000000E+00  0.00000000000E+00  0.37110712625E+03  0.37110712625E+03  0.00000000000E+00 0.  1.
          2   -1    0    0  501    0  0.00000000000E+00 -0.00000000000E+00 -0.34185932822E+04  0.34185932822E+04  0.00000000000E+00 0. -1.
         24    2    1    2    0    0 -0.35054735475E+03  0.81510607927E+03 -0.18238595400E+04  0.20300021298E+04  0.84638388725E+02 0.  0.
        254    2    1    2    0    0  0.35054735475E+03 -0.81510607927E+03 -0.12236266159E+04  0.17596982786E+04  0.90110741216E+03 0.  0.
         23    2    4    4    0    0 -0.25399395691E+02 -0.29461278359E+03 -0.10408238879E+04  0.10858113407E+04  0.90719790381E+02 0.  0.
         23    2    4    4    0    0  0.37594675044E+03 -0.52049329569E+03 -0.18280272796E+03  0.67388693791E+03  0.91964872174E+02 0.  0.
          2    1    3    3  502    0 -0.15506082128E+03  0.28415770205E+03 -0.72700974469E+03  0.79582198186E+03  0.00000000000E+00 0. -1.
         -1    1    3    3    0  502 -0.19548653346E+03  0.53094837722E+03 -0.10968497953E+04  0.12341801479E+04  0.00000000000E+00 0.  1.
         11    1    5    5    0    0 -0.59313170656E+02 -0.20759863496E+03 -0.72186702437E+03  0.75346350032E+03  0.00000000000E+00 0.  1.
        -11    1    5    5    0    0  0.33913774965E+02 -0.87014148629E+02 -0.31895686356E+03  0.33234784038E+03  0.00000000000E+00 0. -1.
          1    1    6    6  503    0  0.80590085456E+02 -0.17049176442E+03 -0.78026330824E+02  0.20408408050E+03  0.00000000000E+00 0. -1.
         -1    1    6    6    0  503  0.29535666498E+03 -0.35000153127E+03 -0.10477639714E+03  0.46980285742E+03  0.00000000000E+00 0.  1.
<mgrwt>
<rscale>  0 0.22527000E+04</rscale>
<asrwt>0</asrwt>
<pdfrwt beam="1">  1        2 0.52593743E+00 0.22527000E+04</pdfrwt>
<pdfrwt beam="2">  1       -1 0.57093404E-01 0.22527000E+04</pdfrwt>
<totfact> 0.29857843E+00</totfact>
</mgrwt>
</event>
<event>
12    6  0.1510140E-007  0.1624996E+04  0.7818608E-02  0.8805338E-01
         -1   -1    0    0    0  501 -0.00000000000E+00  0.00000000000E+00  0.41917784582E+03  0.41917784582E+03  0.00000000000E+00 0.  1.
          2   -1    0    0  501    0  0.00000000000E+00 -0.00000000000E+00 -0.15748749814E+04  0.15748749814E+04  0.00000000000E+00 0. -1.
         24    2    1    2    0    0 -0.10558542607E+03  0.57020985148E+03 -0.47719801549E+03  0.75543394569E+03  0.81700326689E+02 0.  0.
        254    2    1    2    0    0  0.10558542607E+03 -0.57020985148E+03 -0.67849912012E+03  0.12386188816E+04  0.85879457429E+03 0.  0.
         23    2    4    4    0    0  0.16111870316E+03  0.18298631794E+03 -0.27250973420E+03  0.37692668935E+03  0.91481937284E+02 0.  0.
         23    2    4    4    0    0 -0.55533277088E+02 -0.75319616942E+03 -0.40598938592E+03  0.86169219221E+03  0.85426214643E+02 0.  0.
          4    1    3    3  502    0 -0.60318411125E+02  0.25490422092E+03 -0.16600533919E+03  0.31011650263E+03  0.00000000000E+00 0. -1.
         -3    1    3    3    0  502 -0.45267014945E+02  0.31530563055E+03 -0.31119267631E+03  0.44531744305E+03  0.00000000000E+00 0.  1.
         11    1    5    5    0    0  0.15000970611E+03  0.18203642733E+03 -0.27792595978E+03  0.36453122215E+03  0.00000000000E+00 0.  1.
        -11    1    5    5    0    0  0.11108997050E+02  0.94989061005E+00  0.54162255782E+01  0.12395467201E+02  0.00000000000E+00 0. -1.
          4    1    6    6  503    0 -0.10664040590E+02 -0.94041065154E+01 -0.29106083456E+01  0.14513118962E+02  0.00000000000E+00 0. -1.
         -4    1    6    6    0  503 -0.44869236498E+02 -0.74379206290E+03 -0.40307877757E+03  0.84717907325E+03  0.00000000000E+00 0.  1.
<mgrwt>
<rscale>  0 0.16249956E+04</rscale>
<asrwt>0</asrwt>
<pdfrwt beam="1">  1        2 0.24228846E+00 0.16249956E+04</pdfrwt>
<pdfrwt beam="2">  1       -1 0.64488900E-01 0.16249956E+04</pdfrwt>
<totfact> 0.30627574E+01</totfact>
</mgrwt>
</event>
<event>
12    6  0.1510140E-007  0.1870506E+04  0.7818608E-02  0.8669678E-01
          2   -1    0    0  501    0  0.00000000000E+00  0.00000000000E+00  0.15643364483E+04  0.15643364483E+04  0.00000000000E+00 0. -1.
         -1   -1    0    0    0  501 -0.00000000000E+00 -0.00000000000E+00 -0.55914981380E+03  0.55914981380E+03  0.00000000000E+00 0.  1.
         24    2    1    2    0    0  0.14224147370E+03 -0.13635097690E+03  0.11616828844E+04  0.11809919331E+04  0.80066200892E+02 0.  0.
        254    2    1    2    0    0 -0.14224147370E+03  0.13635097690E+03 -0.15649624992E+03  0.94249432891E+03  0.90828423858E+03 0.  0.
         23    2    4    4    0    0 -0.50746179087E+03 -0.33212090374E+02 -0.93373277512E+02  0.52471267576E+03  0.89354971971E+02 0.  0.
         23    2    4    4    0    0  0.36522031717E+03  0.16956306728E+03 -0.63122972413E+02  0.41778165315E+03  0.91757758297E+02 0.  0.
          2    1    3    3  502    0  0.21227025334E+02 -0.48879797134E+02  0.49127738970E+03  0.49415917962E+03  0.00000000000E+00 0. -1.
         -1    1    3    3    0  502  0.12101444837E+03 -0.87471179768E+02  0.67040549468E+03  0.68683275352E+03  0.00000000000E+00 0.  1.
         11    1    5    5    0    0 -0.45621465808E+03 -0.35759682144E+02 -0.11023250319E+03  0.47070348828E+03  0.00000000000E+00 0. -1.
        -11    1    5    5    0    0 -0.51247132784E+02  0.25475917700E+01  0.16859225678E+02  0.54009187485E+02  0.00000000000E+00 0.  1.
          1    1    6    6  503    0  0.20433863466E+03  0.95419091958E+02  0.10923399907E+02  0.22578397063E+03  0.00000000000E+00 0. -1.
         -1    1    6    6    0  503  0.16088168250E+03  0.74143975318E+02 -0.74046372320E+02  0.19199768252E+03  0.00000000000E+00 0.  1.
<mgrwt>
<rscale>  0 0.18705063E+04</rscale>
<asrwt>0</asrwt>
<pdfrwt beam="1">  1        2 0.24066714E+00 0.18705063E+04</pdfrwt>
<pdfrwt beam="2">  1       -1 0.86023049E-01 0.18705063E+04</pdfrwt>
<totfact> 0.16659682E+01</totfact>
</mgrwt>
</event>
<event>
12    6  0.1510140E-007  0.1376608E+04  0.7818608E-02  0.8970927E-01
          2   -1    0    0  501    0  0.00000000000E+00  0.00000000000E+00  0.10298981439E+04  0.10298981439E+04  0.00000000000E+00 0. -1.
         -1   -1    0    0    0  501 -0.00000000000E+00 -0.00000000000E+00 -0.46000895543E+03  0.46000895543E+03  0.00000000000E+00 0.  1.
         24    2    1    2    0    0  0.47373819901E+02  0.35639657622E+03  0.31034164716E+01  0.36778016342E+03  0.77393921350E+02 0.  0.
        254    2    1    2    0    0 -0.47373819901E+02 -0.35639657622E+03  0.56678577201E+03  0.11221269359E+04  0.89925521995E+03 0.  0.
         23    2    4    4    0    0 -0.43461493182E+03 -0.35519956652E+03  0.36620039420E+03  0.67650316562E+03  0.92178811897E+02 0.  0.
         23    2    4    4    0    0  0.38724111192E+03 -0.11970096937E+01  0.20058537781E+03  0.44562377030E+03  0.91591152811E+02 0.  0.
          2    1    3    3  502    0  0.32531792206E+02  0.17636972449E+03  0.39181197793E+02  0.18357495331E+03  0.00000000000E+00 0. -1.
         -1    1    3    3    0  502  0.14842027694E+02  0.18002685173E+03 -0.36077781322E+02  0.18420521012E+03  0.00000000000E+00 0.  1.
         11    1    5    5    0    0 -0.35929573530E+03 -0.32606376400E+03  0.28877415026E+03  0.56462510877E+03  0.00000000000E+00 0.  1.
        -11    1    5    5    0    0 -0.75319196524E+02 -0.29135802521E+02  0.77426243938E+02  0.11187805685E+03  0.00000000000E+00 0. -1.
          3    1    6    6  503    0  0.14464238646E+03 -0.43312152075E+02  0.63395638283E+02  0.16375704392E+03  0.00000000000E+00 0. -1.
         -3    1    6    6    0  503  0.24259872546E+03  0.42115142382E+02  0.13718973953E+03  0.28186672638E+03  0.00000000000E+00 0.  1.
<mgrwt>
<rscale>  0 0.13766080E+04</rscale>
<asrwt>0</asrwt>
<pdfrwt beam="1">  1        2 0.15844587E+00 0.13766080E+04</pdfrwt>
<pdfrwt beam="2">  1       -1 0.70770609E-01 0.13766080E+04</pdfrwt>
<totfact> 0.54085684E+01</totfact>
</mgrwt>
</event>
<event>
12    6  0.1510140E-007  0.1392538E+04  0.7818608E-02  0.8959238E-01
          2   -1    0    0  501    0  0.00000000000E+00  0.00000000000E+00  0.93494596884E+03  0.93494596884E+03  0.00000000000E+00 0. -1.
         -1   -1    0    0    0  501 -0.00000000000E+00 -0.00000000000E+00 -0.51852220627E+03  0.51852220627E+03  0.00000000000E+00 0.  1.
         24    2    1    2    0    0 -0.22390171721E+03 -0.10679937412E+03  0.44735961320E+03  0.51782439394E+03  0.80457405850E+02 0.  0.
        254    2    1    2    0    0  0.22390171721E+03  0.10679937412E+03 -0.30935850625E+02  0.93564378117E+03  0.90162862261E+03 0.  0.
         23    2    4    4    0    0  0.42780155863E+03  0.36478197401E+03  0.83308959097E+02  0.57487198036E+03  0.86355943712E+02 0.  0.
         23    2    4    4    0    0 -0.20389984141E+03 -0.25798259989E+03 -0.11424480972E+03  0.36077180080E+03  0.94732510424E+02 0.  0.
          2    1    3    3  502    0 -0.12907172717E+03 -0.17729571663E+02  0.23827506077E+03  0.27156740056E+03  0.00000000000E+00 0. -1.
         -1    1    3    3    0  502 -0.94829990042E+02 -0.89069802457E+02  0.20908455243E+03  0.24625699338E+03  0.00000000000E+00 0.  1.
         11    1    5    5    0    0  0.70030158266E+01  0.17324747416E+01  0.12743250950E+02  0.14643570062E+02  0.00000000000E+00 0. -1.
        -11    1    5    5    0    0  0.42079854280E+03  0.36304949927E+03  0.70565708148E+02  0.56022841030E+03  0.00000000000E+00 0.  1.
          3    1    6    6  503    0 -0.81224178181E+02 -0.17040876907E+03 -0.40939302883E+02  0.19316454700E+03  0.00000000000E+00 0. -1.
         -3    1    6    6    0  503 -0.12267566323E+03 -0.87573830819E+02 -0.73305506839E+02  0.16760725380E+03  0.00000000000E+00 0.  1.
<mgrwt>
<rscale>  0 0.13925376E+04</rscale>
<asrwt>0</asrwt>
<pdfrwt beam="1">  1        2 0.14383784E+00 0.13925376E+04</pdfrwt>
<pdfrwt beam="2">  1       -1 0.79772647E-01 0.13925376E+04</pdfrwt>
<totfact> 0.48463465E+01</totfact>
</mgrwt>
</event>
<event>
12    6  0.1510140E-007  0.2676758E+04  0.7818608E-02  0.8342586E-01
         -1   -1    0    0    0  501 -0.00000000000E+00  0.00000000000E+00  0.14343814884E+04  0.14343814884E+04  0.00000000000E+00 0.  1.
          2   -1    0    0  501    0  0.00000000000E+00 -0.00000000000E+00 -0.12488022122E+04  0.12488022122E+04  0.00000000000E+00 0. -1.
         24    2    1    2    0    0  0.31445589634E+03  0.66443643387E+03  0.10210789342E+04  0.12605565424E+04  0.77732369022E+02 0.  0.
        254    2    1    2    0    0 -0.31445589634E+03 -0.66443643387E+03 -0.83549965801E+03  0.14226271582E+04  0.88625620865E+03 0.  0.
         23    2    4    4    0    0 -0.12499769430E+03  0.15270921041E+03 -0.44001420239E+03  0.49079896859E+03  0.91250220492E+02 0.  0.
         23    2    4    4    0    0 -0.18945820204E+03 -0.81714564427E+03 -0.39548545562E+03  0.93182818963E+03  0.90959414594E+02 0.  0.
          4    1    3    3  502    0  0.18402316052E+02  0.88339993565E+02  0.10220631307E+03  0.13634049337E+03  0.00000000000E+00 0. -1.
         -3    1    3    3    0  502  0.29605358029E+03  0.57609644030E+03  0.91887262118E+03  0.11242160490E+04  0.00000000000E+00 0.  1.
         11    1    5    5    0    0 -0.10070706273E+03  0.51245386908E+02 -0.22161016126E+03  0.24875503158E+03  0.00000000000E+00 0.  1.
        -11    1    5    5    0    0 -0.24290631572E+02  0.10146382350E+03 -0.21840404113E+03  0.24204393701E+03  0.00000000000E+00 0. -1.
          3    1    6    6  503    0 -0.17142139664E+03 -0.68508446301E+03 -0.36561031912E+03  0.79523387889E+03  0.00000000000E+00 0. -1.
         -3    1    6    6    0  503 -0.18036805403E+02 -0.13206118126E+03 -0.29875136498E+02  0.13659431074E+03  0.00000000000E+00 0.  1.
<mgrwt>
<rscale>  0 0.26767583E+04</rscale>
<asrwt>0</asrwt>
<pdfrwt beam="1">  1        2 0.19212342E+00 0.26767583E+04</pdfrwt>
<pdfrwt beam="2">  1       -1 0.22067408E+00 0.26767583E+04</pdfrwt>
<totfact> 0.19324406E+00</totfact>
</mgrwt>
</event>
<event>
12    6  0.1510140E-007  0.1665484E+04  0.7818608E-02  0.8781299E-01
         -1   -1    0    0    0  501 -0.00000000000E+00  0.00000000000E+00  0.63771388555E+03  0.63771388555E+03  0.00000000000E+00 0.  1.
          2   -1    0    0  501    0  0.00000000000E+00 -0.00000000000E+00 -0.10874138126E+04  0.10874138126E+04  0.00000000000E+00 0. -1.
         24    2    1    2    0    0 -0.26708604509E+03  0.14854023751E+03 -0.67151184434E+03  0.74225390134E+03  0.81323670111E+02 0.  0.
        254    2    1    2    0    0  0.26708604509E+03 -0.14854023751E+03  0.22181191727E+03  0.98287379684E+03  0.90743661830E+03 0.  0.
         23    2    4    4    0    0 -0.17719612720E+02 -0.38859086729E+03 -0.17011306031E+03  0.43468866341E+03  0.93268075965E+02 0.  0.
         23    2    4    4    0    0  0.28480565781E+03  0.24005062978E+03  0.39192497758E+03  0.54818513343E+03  0.90350345217E+02 0.  0.
          2    1    3    3  502    0 -0.18113272846E+03  0.13572223714E+03 -0.52819372141E+03  0.57464615052E+03  0.00000000000E+00 0. -1.
         -1    1    3    3    0  502 -0.85953316628E+02  0.12818000370E+02 -0.14331812293E+03  0.16760775082E+03  0.00000000000E+00 0.  1.
         11    1    5    5    0    0  0.29738711158E+02 -0.23961785082E+03 -0.80741337702E+02  0.25459825017E+03  0.00000000000E+00 0.  1.
        -11    1    5    5    0    0 -0.47458323878E+02 -0.14897301647E+03 -0.89371722610E+02  0.18009041325E+03  0.00000000000E+00 0. -1.
          4    1    6    6  503    0  0.21077986311E+03  0.12092307688E+03  0.24576590362E+03  0.34561744834E+03  0.00000000000E+00 0. -1.
         -4    1    6    6    0  503  0.74025794697E+02  0.11912755289E+03  0.14615907396E+03  0.20256768508E+03  0.00000000000E+00 0.  1.
<mgrwt>
<rscale>  0 0.16654836E+04</rscale>
<asrwt>0</asrwt>
<pdfrwt beam="1">  1        2 0.16729443E+00 0.16654836E+04</pdfrwt>
<pdfrwt beam="2">  1       -1 0.98109828E-01 0.16654836E+04</pdfrwt>
<totfact> 0.24035386E+01</totfact>
</mgrwt>
</event>
<event>
12    6  0.1510140E-007  0.1264552E+04  0.7818608E-02  0.9058158E-01
         -1   -1    0    0    0  501 -0.00000000000E+00  0.00000000000E+00  0.51314207223E+03  0.51314207223E+03  0.00000000000E+00 0.  1.
          2   -1    0    0  501    0  0.00000000000E+00 -0.00000000000E+00 -0.77906812683E+03  0.77906812683E+03  0.00000000000E+00 0. -1.
         24    2    1    2    0    0 -0.22154435069E+03  0.20215231707E+03 -0.16525205213E+02  0.31154874306E+03  0.82716856083E+02 0.  0.
        254    2    1    2    0    0  0.22154435069E+03 -0.20215231707E+03 -0.24940084939E+03  0.98066145599E+03  0.89974921449E+03 0.  0.
         23    2    4    4    0    0  0.19747166451E+03  0.12612648830E+03 -0.49846305058E+03  0.55814198810E+03  0.90300148087E+02 0.  0.
         23    2    4    4    0    0  0.24072686181E+02 -0.32827880537E+03  0.24906220119E+03  0.42251946790E+03  0.90245511883E+02 0.  0.
          4    1    3    3  502    0 -0.22434139113E+03  0.19457795297E+03 -0.27147914609E+02  0.29820571561E+03  0.00000000000E+00 0. -1.
         -3    1    3    3    0  502  0.27970404406E+01  0.75743640967E+01  0.10622709396E+02  0.13343027453E+02  0.00000000000E+00 0.  1.
         11    1    5    5    0    0  0.16204443073E+03  0.60291739096E+02 -0.30284229011E+03  0.34872187200E+03  0.00000000000E+00 0. -1.
        -11    1    5    5    0    0  0.35427233774E+02  0.65834749206E+02 -0.19562076048E+03  0.20942011609E+03  0.00000000000E+00 0.  1.
          3    1    6    6  503    0  0.31157473365E+02 -0.26866423649E+03  0.24040503830E+03  0.36186439802E+03  0.00000000000E+00 0. -1.
         -3    1    6    6    0  503 -0.70847871848E+01 -0.59614568883E+02  0.86571628900E+01  0.60655069877E+02  0.00000000000E+00 0.  1.
<mgrwt>
<rscale>  0 0.12645515E+04</rscale>
<asrwt>0</asrwt>
<pdfrwt beam="1">  1        2 0.11985663E+00 0.12645515E+04</pdfrwt>
<pdfrwt beam="2">  1       -1 0.78944934E-01 0.12645515E+04</pdfrwt>
<totfact> 0.64253554E+01</totfact>
</mgrwt>
</event>
<event>
12    6  0.1510140E-007  0.1559936E+04  0.7818608E-02  0.8845546E-01
          2   -1    0    0  501    0  0.00000000000E+00  0.00000000000E+00  0.13039102022E+04  0.13039102022E+04  0.00000000000E+00 0. -1.
         -1   -1    0    0    0  501 -0.00000000000E+00 -0.00000000000E+00 -0.46655817356E+03  0.46655817356E+03  0.00000000000E+00 0.  1.
         24    2    1    2    0    0  0.27679272284E+03 -0.41035788890E+03  0.12991706192E+03  0.51787662152E+03  0.79435154325E+02 0.  0.
        254    2    1    2    0    0 -0.27679272284E+03  0.41035788890E+03  0.70743496667E+03  0.12525917542E+04  0.90747675574E+03 0.  0.
         23    2    4    4    0    0 -0.27727055968E+03  0.68094814565E+03  0.57995632125E+03  0.94153311537E+03  0.97805584953E+02 0.  0.
         23    2    4    4    0    0  0.47783684031E+00 -0.27059025675E+03  0.12747864542E+03  0.31105863883E+03  0.85366014173E+02 0.  0.
          2    1    3    3  502    0  0.12670783665E+03 -0.23585903812E+03  0.39715619489E+02  0.27066897156E+03  0.00000000000E+00 0. -1.
         -1    1    3    3    0  502  0.15008488618E+03 -0.17449885078E+03  0.90201442429E+02  0.24720764996E+03  0.00000000000E+00 0.  1.
         11    1    5    5    0    0 -0.10541152306E+03  0.15890404700E+03  0.17538456855E+03  0.25907881471E+03  0.00000000000E+00 0.  1.
        -11    1    5    5    0    0 -0.17185903662E+03  0.52204409865E+03  0.40457175270E+03  0.68245430066E+03  0.00000000000E+00 0. -1.
          3    1    6    6  503    0 -0.30314434284E+02 -0.16809198624E+03  0.10853804912E+03  0.20237190732E+03  0.00000000000E+00 0. -1.
         -3    1    6    6    0  503  0.30792271124E+02 -0.10249827051E+03  0.18940596300E+02  0.10868673151E+03  0.00000000000E+00 0.  1.
<mgrwt>
<rscale>  0 0.15599358E+04</rscale>
<asrwt>0</asrwt>
<pdfrwt beam="1">  1        2 0.20060157E+00 0.15599358E+04</pdfrwt>
<pdfrwt beam="2">  1       -1 0.71778181E-01 0.15599358E+04</pdfrwt>
<totfact> 0.35327153E+01</totfact>
</mgrwt>
</event>
<event>
12    6  0.1510140E-007  0.1918145E+04  0.7818608E-02  0.8645877E-01
         -1   -1    0    0    0  501 -0.00000000000E+00  0.00000000000E+00  0.33625831149E+03  0.33625831149E+03  0.00000000000E+00 0.  1.
          2   -1    0    0  501    0  0.00000000000E+00 -0.00000000000E+00 -0.27354553930E+04  0.27354553930E+04  0.00000000000E+00 0. -1.
         24    2    1    2    0    0 -0.69472859723E+03  0.22156529382E+03 -0.70583194040E+03  0.10183099132E+04  0.83769611957E+02 0.  0.
        254    2    1    2    0    0  0.69472859723E+03 -0.22156529382E+03 -0.16933651411E+04  0.20534037914E+04  0.90401472660E+03 0.  0.
         23    2    4    4    0    0 -0.19998055955E+03 -0.18048344713E+02 -0.49065988386E+03  0.53783810835E+03  0.90580032096E+02 0.  0.
         23    2    4    4    0    0  0.89470915679E+03 -0.20351694911E+03 -0.12027052573E+04  0.15155656830E+04  0.92280983042E+02 0.  0.
          4    1    3    3  502    0 -0.65578697205E+03  0.22085732854E+03 -0.64433476117E+03  0.94551668242E+03  0.00000000000E+00 0. -1.
         -3    1    3    3    0  502 -0.38941625187E+02  0.70796528121E+00 -0.61497179235E+02  0.72793230735E+02  0.00000000000E+00 0.  1.
         11    1    5    5    0    0 -0.31702032021E+02  0.11287962553E+02 -0.25249923051E+02  0.42071315013E+02  0.00000000000E+00 0.  1.
        -11    1    5    5    0    0 -0.16827852753E+03 -0.29336307266E+02 -0.46540996081E+03  0.49576679334E+03  0.00000000000E+00 0. -1.
          1    1    6    6  503    0  0.46231727501E+03 -0.58009280712E+02 -0.60139054926E+03  0.76077127454E+03  0.00000000000E+00 0. -1.
         -1    1    6    6    0  503  0.43239188178E+03 -0.14550766840E+03 -0.60131470801E+03  0.75479440847E+03  0.00000000000E+00 0.  1.
<mgrwt>
<rscale>  0 0.19181445E+04</rscale>
<asrwt>0</asrwt>
<pdfrwt beam="1">  1        2 0.42083930E+00 0.19181445E+04</pdfrwt>
<pdfrwt beam="2">  1       -1 0.51732047E-01 0.19181445E+04</pdfrwt>
<totfact> 0.10141948E+01</totfact>
</mgrwt>
</event>
<event>
12    6  0.1510140E-007  0.2013969E+04  0.7818608E-02  0.8600117E-01
         -1   -1    0    0    0  501 -0.00000000000E+00  0.00000000000E+00  0.37012259210E+03  0.37012259210E+03  0.00000000000E+00 0.  1.
          2   -1    0    0  501    0  0.00000000000E+00 -0.00000000000E+00 -0.27396816097E+04  0.27396816097E+04  0.00000000000E+00 0. -1.
         24    2    1    2    0    0 -0.42383882678E+03 -0.60607517667E+03 -0.49583108276E+03  0.89396323431E+03  0.79720328667E+02 0.  0.
        254    2    1    2    0    0  0.42383882678E+03  0.60607517667E+03 -0.18737279349E+04  0.22158409675E+04  0.92310798318E+03 0.  0.
         23    2    4    4    0    0  0.19217873860E+03  0.82390172855E+03 -0.13160143198E+04  0.15671351093E+04  0.90950727893E+02 0.  0.
         23    2    4    4    0    0  0.23166008818E+03 -0.21782655187E+03 -0.55771361505E+03  0.64870585824E+03  0.93059179850E+02 0.  0.
          2    1    3    3  502    0 -0.33186381157E+02 -0.30280323379E+02 -0.51704630355E+02  0.68495274862E+02  0.00000000000E+00 0. -1.
         -1    1    3    3    0  502 -0.39065244562E+03 -0.57579485329E+03 -0.44412645241E+03  0.82546795945E+03  0.00000000000E+00 0.  1.
         11    1    5    5    0    0  0.76559274328E+02  0.29334968810E+03 -0.55259376150E+03  0.63029772905E+03  0.00000000000E+00 0.  1.
        -11    1    5    5    0    0  0.11561946427E+03  0.53055204045E+03 -0.76342055832E+03  0.93683738024E+03  0.00000000000E+00 0. -1.
          2    1    6    6  503    0  0.12296512893E+03 -0.13592245090E+03 -0.40253315802E+03  0.44229885699E+03  0.00000000000E+00 0. -1.
         -2    1    6    6    0  503  0.10869495925E+03 -0.81904100973E+02 -0.15518045703E+03  0.20640700125E+03  0.00000000000E+00 0.  1.
<mgrwt>
<rscale>  0 0.20139693E+04</rscale>
<asrwt>0</asrwt>
<pdfrwt beam="1">  1        2 0.42148946E+00 0.20139693E+04</pdfrwt>
<pdfrwt beam="2">  1       -1 0.56941939E-01 0.20139693E+04</pdfrwt>
<totfact> 0.83028214E+00</totfact>
</mgrwt>
</event>
<event>
12    6  0.1510140E-007  0.2054881E+04  0.7818608E-02  0.8581383E-01
         -1   -1    0    0    0  501 -0.00000000000E+00  0.00000000000E+00  0.65822304743E+03  0.65822304743E+03  0.00000000000E+00 0.  1.
          2   -1    0    0  501    0  0.00000000000E+00 -0.00000000000E+00 -0.16037629457E+04  0.16037629457E+04  0.00000000000E+00 0. -1.
         24    2    1    2    0    0 -0.62608418759E+03  0.40434011844E+03  0.16388924360E+02  0.74979279788E+03  0.80301317358E+02 0.  0.
        254    2    1    2    0    0  0.62608418759E+03 -0.40434011844E+03 -0.96192882267E+03  0.15121931953E+04  0.89774654480E+03 0.  0.
         23    2    4    4    0    0 -0.12452533616E+03 -0.81073610046E+02  0.72939567261E+02  0.19038461878E+03  0.94056541529E+02 0.  0.
         23    2    4    4    0    0  0.75060952375E+03 -0.32326650839E+03 -0.10348683899E+04  0.13218085765E+04  0.91156107333E+02 0.  0.
          2    1    3    3  502    0 -0.57439884479E+03  0.36270659935E+03 -0.71666742425E+01  0.67936843563E+03  0.00000000000E+00 0. -1.
         -1    1    3    3    0  502 -0.51685342808E+02  0.41633519087E+02  0.23555598602E+02  0.70424362250E+02  0.00000000000E+00 0.  1.
         11    1    5    5    0    0  0.14238402591E+02  0.13107139785E+01  0.36226648079E+01  0.14750382361E+02  0.00000000000E+00 0. -1.
        -11    1    5    5    0    0 -0.13876373875E+03 -0.82384324024E+02  0.69316902453E+02  0.17563423642E+03  0.00000000000E+00 0.  1.
          1    1    6    6  503    0  0.46387656401E+03 -0.24739588475E+03 -0.66353075461E+03  0.84655729443E+03  0.00000000000E+00 0. -1.
         -1    1    6    6    0  503  0.28673295974E+03 -0.75870623645E+02 -0.37133763532E+03  0.47525128210E+03  0.00000000000E+00 0.  1.
<mgrwt>
<rscale>  0 0.20548808E+04</rscale>
<asrwt>0</asrwt>
<pdfrwt beam="1">  1        2 0.24673276E+00 0.20548808E+04</pdfrwt>
<pdfrwt beam="2">  1       -1 0.10126509E+00 0.20548808E+04</pdfrwt>
<totfact> 0.10826947E+01</totfact>
</mgrwt>
</event>
<event>
12    6  0.1510140E-007  0.1493950E+04  0.7818608E-02  0.8888486E-01
          2   -1    0    0  501    0  0.00000000000E+00  0.00000000000E+00  0.18462033548E+04  0.18462033548E+04  0.00000000000E+00 0. -1.
         -1   -1    0    0    0  501 -0.00000000000E+00 -0.00000000000E+00 -0.30222665757E+03  0.30222665757E+03  0.00000000000E+00 0.  1.
         24    2    1    2    0    0  0.28928003156E+03 -0.36564800375E+03  0.43914458619E+03  0.64542849852E+03  0.79677975732E+02 0.  0.
        254    2    1    2    0    0 -0.28928003156E+03  0.36564800375E+03  0.11048321111E+04  0.15030015139E+04  0.90607845011E+03 0.  0.
         23    2    4    4    0    0 -0.12474394164E+03  0.47730329617E+03  0.11721015072E+04  0.12749212820E+04  0.90679900852E+02 0.  0.
         23    2    4    4    0    0 -0.16453608992E+03 -0.11165529242E+03 -0.67269396137E+02  0.22808023194E+03  0.89198606116E+02 0.  0.
          2    1    3    3  502    0  0.18668620301E+03 -0.18423738558E+03  0.21287239606E+03  0.33780143523E+03  0.00000000000E+00 0. -1.
         -1    1    3    3    0  502  0.10259382855E+03 -0.18141061817E+03  0.22627219013E+03  0.30762706329E+03  0.00000000000E+00 0.  1.
         11    1    5    5    0    0 -0.11498255069E+03  0.44158230381E+03  0.11310967852E+04  0.12196703880E+04  0.00000000000E+00 0. -1.
        -11    1    5    5    0    0 -0.97613909544E+01  0.35720992363E+02  0.41004722047E+02  0.55250893919E+02  0.00000000000E+00 0.  1.
          3    1    6    6  503    0 -0.14523718253E+03 -0.12149888997E+03 -0.76894925201E+02  0.20437379718E+03  0.00000000000E+00 0. -1.
         -3    1    6    6    0  503 -0.19298907394E+02  0.98435975468E+01  0.96255290646E+01  0.23706434760E+02  0.00000000000E+00 0.  1.
<mgrwt>
<rscale>  0 0.14939503E+04</rscale>
<asrwt>0</asrwt>
<pdfrwt beam="1">  1        2 0.28403128E+00 0.14939503E+04</pdfrwt>
<pdfrwt beam="2">  1       -1 0.46496410E-01 0.14939503E+04</pdfrwt>
<totfact> 0.41257500E+01</totfact>
</mgrwt>
</event>
<event>
12    6  0.1510140E-007  0.1587239E+04  0.7818608E-02  0.8828426E-01
         -1   -1    0    0    0  501 -0.00000000000E+00  0.00000000000E+00  0.41592417777E+03  0.41592417777E+03  0.00000000000E+00 0.  1.
          2   -1    0    0  501    0  0.00000000000E+00 -0.00000000000E+00 -0.15142950929E+04  0.15142950929E+04  0.00000000000E+00 0. -1.
         24    2    1    2    0    0  0.41563884411E+02  0.11840818870E+03 -0.10028165921E+04  0.10141897009E+04  0.84803163139E+02 0.  0.
        254    2    1    2    0    0 -0.41563884411E+02 -0.11840818870E+03 -0.95554323044E+02  0.91602956973E+03  0.90234776463E+03 0.  0.
         23    2    4    4    0    0 -0.10357034257E+03 -0.42441188393E+03  0.18821827388E+03  0.48483579987E+03  0.93740978928E+02 0.  0.
         23    2    4    4    0    0  0.62006458160E+02  0.30600369522E+03 -0.28377259693E+03  0.43119376987E+03  0.88983807856E+02 0.  0.
          4    1    3    3  502    0  0.14503607265E+01  0.10458005969E+03 -0.81228362906E+03  0.81898949107E+03  0.00000000000E+00 0. -1.
         -3    1    3    3    0  502  0.40113523684E+02  0.13828129009E+02 -0.19053296300E+03  0.19520020984E+03  0.00000000000E+00 0.  1.
         11    1    5    5    0    0 -0.97641285877E+02 -0.42812921991E+03  0.18155971458E+03  0.47517615639E+03  0.00000000000E+00 0.  1.
        -11    1    5    5    0    0 -0.59290566943E+01  0.37173359790E+01  0.66585593043E+01  0.96596434756E+01  0.00000000000E+00 0. -1.
          3    1    6    6  503    0  0.22995826537E+02  0.96865801311E+02 -0.14951043710E+03  0.17962506034E+03  0.00000000000E+00 0. -1.
         -3    1    6    6    0  503  0.39010631624E+02  0.20913789391E+03 -0.13426215983E+03  0.25156870953E+03  0.00000000000E+00 0.  1.
<mgrwt>
<rscale>  0 0.15872390E+04</rscale>
<asrwt>0</asrwt>
<pdfrwt beam="1">  1        2 0.23296848E+00 0.15872390E+04</pdfrwt>
<pdfrwt beam="2">  1       -1 0.63988335E-01 0.15872390E+04</pdfrwt>
<totfact> 0.33752932E+01</totfact>
</mgrwt>
</event>
<event>
12    6  0.1510140E-007  0.1488764E+04  0.7818608E-02  0.8891959E-01
         -1   -1    0    0    0  501 -0.00000000000E+00  0.00000000000E+00  0.48593408864E+03  0.48593408864E+03  0.00000000000E+00 0.  1.
          2   -1    0    0  501    0  0.00000000000E+00 -0.00000000000E+00 -0.11402877073E+04  0.11402877073E+04  0.00000000000E+00 0. -1.
         24    2    1    2    0    0 -0.37379711552E+03 -0.21810026940E+03 -0.12540797583E+02  0.44008722817E+03  0.78914420192E+02 0.  0.
        254    2    1    2    0    0  0.37379711552E+03  0.21810026940E+03 -0.64181282111E+03  0.11861345678E+04  0.89872103821E+03 0.  0.
         23    2    4    4    0    0 -0.15914783097E+03 -0.21203467061E+03 -0.31477566912E+03  0.42177679641E+03  0.92332066378E+02 0.  0.
         23    2    4    4    0    0  0.53294494649E+03  0.43013494001E+03 -0.32703715199E+03  0.76435777139E+03  0.90791636734E+02 0.  0.
          4    1    3    3  502    0 -0.35850536435E+03 -0.22465114358E+03 -0.95513033381E+01  0.42318490046E+03  0.00000000000E+00 0. -1.
         -3    1    3    3    0  502 -0.15291751167E+02  0.65508741812E+01 -0.29894942448E+01  0.16902327714E+02  0.00000000000E+00 0.  1.
         11    1    5    5    0    0 -0.15082226837E+03 -0.13287153907E+03 -0.23124689352E+03  0.30639407353E+03  0.00000000000E+00 0.  1.
        -11    1    5    5    0    0 -0.83255626031E+01 -0.79163131538E+02 -0.83528775596E+02  0.11538272288E+03  0.00000000000E+00 0. -1.
          4    1    6    6  503    0  0.53505170601E+02  0.12357244022E+02 -0.27682147320E+02  0.61496390472E+02  0.00000000000E+00 0. -1.
         -4    1    6    6    0  503  0.47943977589E+03  0.41777769598E+03 -0.29935500467E+03  0.70286138092E+03  0.00000000000E+00 0.  1.
<mgrwt>
<rscale>  0 0.14887641E+04</rscale>
<asrwt>0</asrwt>
<pdfrwt beam="1">  1        2 0.17542888E+00 0.14887641E+04</pdfrwt>
<pdfrwt beam="2">  1       -1 0.74759091E-01 0.14887641E+04</pdfrwt>
<totfact> 0.40858448E+01</totfact>
</mgrwt>
</event>
<event>
12    6  0.1510140E-007  0.1995072E+04  0.7818608E-02  0.8608928E-01
         -1   -1    0    0    0  501 -0.00000000000E+00  0.00000000000E+00  0.38798527425E+03  0.38798527425E+03  0.00000000000E+00 0.  1.
          2   -1    0    0  501    0  0.00000000000E+00 -0.00000000000E+00 -0.25647305988E+04  0.25647305988E+04  0.00000000000E+00 0. -1.
         24    2    1    2    0    0 -0.10051403002E+03 -0.22197587213E+03 -0.19813392928E+04  0.19978074796E+04  0.78440896632E+02 0.  0.
        254    2    1    2    0    0  0.10051403002E+03  0.22197587213E+03 -0.19540603180E+03  0.95490839351E+03  0.90238027721E+03 0.  0.
         23    2    4    4    0    0  0.21477646597E+03  0.40902883354E+02  0.31398191006E+03  0.39506792972E+03  0.98448225227E+02 0.  0.
         23    2    4    4    0    0 -0.11426243594E+03  0.18107298877E+03 -0.50938794186E+03  0.55984046379E+03  0.90010766335E+02 0.  0.
          4    1    3    3  502    0  0.41923040499E+01 -0.48468517677E+02 -0.55753296745E+03  0.55965148299E+03  0.00000000000E+00 0. -1.
         -3    1    3    3    0  502 -0.10470633407E+03 -0.17350735445E+03 -0.14238063253E+04  0.14381559966E+04  0.00000000000E+00 0.  1.
         11    1    5    5    0    0  0.21775438619E+03  0.41042174813E+02  0.31948538848E+03  0.38880888142E+03  0.00000000000E+00 0. -1.
        -11    1    5    5    0    0 -0.29779202280E+01 -0.13929145859E+00 -0.55034784158E+01  0.62590483037E+01  0.00000000000E+00 0.  1.
          1    1    6    6  503    0 -0.61220397311E+02  0.12386979119E+03 -0.41494277604E+03  0.43734330863E+03  0.00000000000E+00 0. -1.
         -1    1    6    6    0  503 -0.53042038633E+02  0.57203197581E+02 -0.94445165819E+02  0.12249715516E+03  0.00000000000E+00 0.  1.
<mgrwt>
<rscale>  0 0.19950716E+04</rscale>
<asrwt>0</asrwt>
<pdfrwt beam="1">  1        2 0.39457392E+00 0.19950716E+04</pdfrwt>
<pdfrwt beam="2">  1       -1 0.59690045E-01 0.19950716E+04</pdfrwt>
<totfact> 0.96157300E+00</totfact>
</mgrwt>
</event>
<event>
12    6  0.1510140E-007  0.2968911E+04  0.7818608E-02  0.8252665E-01
          2   -1    0    0  501    0  0.00000000000E+00  0.00000000000E+00  0.18868195599E+04  0.18868195599E+04  0.00000000000E+00 0. -1.
         -1   -1    0    0    0  501 -0.00000000000E+00 -0.00000000000E+00 -0.11678958984E+04  0.11678958984E+04  0.00000000000E+00 0.  1.
         24    2    1    2    0    0  0.36311454928E+03 -0.12605713868E+04  0.63822487072E+03  0.14609389205E+04  0.78224974106E+02 0.  0.
        254    2    1    2    0    0 -0.36311454928E+03  0.12605713868E+04  0.80698790754E+02  0.15937765378E+04  0.90150926814E+03 0.  0.
         23    2    4    4    0    0 -0.11730886892E+03  0.12901580773E+04  0.18219760504E+03  0.13115140474E+04  0.92757177641E+02 0.  0.
         23    2    4    4    0    0 -0.24580568036E+03 -0.29586690488E+02 -0.10149881429E+03  0.28226249046E+03  0.89857105838E+02 0.  0.
          4    1    3    3  502    0  0.22924966942E+03 -0.72746955982E+03  0.33339470802E+03  0.83241780539E+03  0.00000000000E+00 0. -1.
         -3    1    3    3    0  502  0.13386487986E+03 -0.53310182698E+03  0.30483016270E+03  0.62852111506E+03  0.00000000000E+00 0.  1.
         11    1    5    5    0    0  0.81447784733E+01  0.28131440873E+03  0.57936378018E+02  0.28733387874E+03  0.00000000000E+00 0. -1.
        -11    1    5    5    0    0 -0.12545364740E+03  0.10088436686E+04  0.12426122702E+03  0.10241801686E+04  0.00000000000E+00 0.  1.
          4    1    6    6  503    0 -0.18178239137E+03 -0.19440939139E+02 -0.11509252859E+03  0.21603027117E+03  0.00000000000E+00 0. -1.
         -4    1    6    6    0  503 -0.64023288991E+02 -0.10145751349E+02  0.13593714300E+02  0.66232219290E+02  0.00000000000E+00 0.  1.
<mgrwt>
<rscale>  0 0.29689115E+04</rscale>
<asrwt>0</asrwt>
<pdfrwt beam="1">  1        2 0.29027993E+00 0.29689115E+04</pdfrwt>
<pdfrwt beam="2">  1       -1 0.17967629E+00 0.29689115E+04</pdfrwt>
<totfact> 0.15777734E+00</totfact>
</mgrwt>
</event>
<event>
12    6  0.1510140E-007  0.1910928E+04  0.7818608E-02  0.8649436E-01
          2   -1    0    0  501    0  0.00000000000E+00  0.00000000000E+00  0.23640442328E+04  0.23640442328E+04  0.00000000000E+00 0. -1.
         -1   -1    0    0    0  501 -0.00000000000E+00 -0.00000000000E+00 -0.38616494300E+03  0.38616494300E+03  0.00000000000E+00 0.  1.
         24    2    1    2    0    0 -0.33142460488E+03  0.53584609372E+03  0.13257499882E+04  0.14700400336E+04  0.80195788287E+02 0.  0.
        254    2    1    2    0    0  0.33142460488E+03 -0.53584609372E+03  0.65212930158E+03  0.12801691421E+04  0.90365209101E+03 0.  0.
         23    2    4    4    0    0  0.50944249595E+03 -0.58253122768E+03  0.23266146910E+03  0.81321027347E+03  0.91133428416E+02 0.  0.
         23    2    4    4    0    0 -0.17801789108E+03  0.46685133957E+02  0.41946783248E+03  0.46695886865E+03  0.90705298893E+02 0.  0.
          4    1    3    3  502    0 -0.28313039463E+03  0.49920639946E+03  0.11790293717E+04  0.13112894833E+04  0.00000000000E+00 0. -1.
         -3    1    3    3    0  502 -0.48294210245E+02  0.36639694270E+02  0.14672061649E+03  0.15875055037E+03  0.00000000000E+00 0.  1.
         11    1    5    5    0    0  0.32117674496E+02 -0.39760300729E+02 -0.72753380506E+01  0.51627096304E+02  0.00000000000E+00 0.  1.
        -11    1    5    5    0    0  0.47732482146E+03 -0.54277092695E+03  0.23993680715E+03  0.76158317717E+03  0.00000000000E+00 0. -1.
          4    1    6    6  503    0 -0.17629699034E+03  0.19628803082E+02  0.37576061042E+03  0.41552611838E+03  0.00000000000E+00 0. -1.
         -4    1    6    6    0  503 -0.17209007348E+01  0.27056330875E+02  0.43707222063E+02  0.51432750269E+02  0.00000000000E+00 0.  1.
<mgrwt>
<rscale>  0 0.19109275E+04</rscale>
<asrwt>0</asrwt>
<pdfrwt beam="1">  1        2 0.36369910E+00 0.19109275E+04</pdfrwt>
<pdfrwt beam="2">  1       -1 0.59409993E-01 0.19109275E+04</pdfrwt>
<totfact> 0.12760472E+01</totfact>
</mgrwt>
</event>
<event>
12    6  0.1510140E-007  0.2685774E+04  0.7818608E-02  0.8339636E-01
         -1   -1    0    0    0  501 -0.00000000000E+00  0.00000000000E+00  0.67752131581E+03  0.67752131581E+03  0.00000000000E+00 0.  1.
          2   -1    0    0  501    0  0.00000000000E+00 -0.00000000000E+00 -0.26616803826E+04  0.26616803826E+04  0.00000000000E+00 0. -1.
         24    2    1    2    0    0  0.38897022384E+03  0.11099421776E+04 -0.11109179161E+04  0.16197837500E+04  0.79317765122E+02 0.  0.
        254    2    1    2    0    0 -0.38897022384E+03 -0.11099421776E+04 -0.87324115069E+03  0.17194179484E+04  0.90032133229E+03 0.  0.
         23    2    4    4    0    0 -0.13344137976E+03 -0.11777375183E+04 -0.79032633755E+03  0.14275323330E+04  0.91436197657E+02 0.  0.
         23    2    4    4    0    0 -0.25552884408E+03  0.67795340657E+02 -0.82914813140E+02  0.29188561539E+03  0.91821282169E+02 0.  0.
          2    1    3    3  502    0  0.29463803862E+03  0.90521568083E+03 -0.86607558699E+03  0.12869786032E+04  0.00000000000E+00 0. -1.
         -1    1    3    3    0  502  0.94332185221E+02  0.20472649677E+03 -0.24484232914E+03  0.33280514687E+03  0.00000000000E+00 0.  1.
         11    1    5    5    0    0 -0.12394330453E+03 -0.70323776092E+03 -0.48483184751E+03  0.86311483100E+03  0.00000000000E+00 0. -1.
        -11    1    5    5    0    0 -0.94980752329E+01 -0.47449975733E+03 -0.30549449004E+03  0.56441750202E+03  0.00000000000E+00 0.  1.
          2    1    6    6  503    0 -0.36698992392E+02  0.40288839891E+02  0.44086443835E+01  0.54675797274E+02  0.00000000000E+00 0. -1.
         -2    1    6    6    0  503 -0.21882985169E+03  0.27506500766E+02 -0.87323457524E+02  0.23720981811E+03  0.00000000000E+00 0.  1.
<mgrwt>
<rscale>  0 0.26857738E+04</rscale>
<asrwt>0</asrwt>
<pdfrwt beam="1">  1        2 0.40948930E+00 0.26857738E+04</pdfrwt>
<pdfrwt beam="2">  1       -1 0.10423405E+00 0.26857738E+04</pdfrwt>
<totfact> 0.24193718E+00</totfact>
</mgrwt>
</event>
<event>
12    6  0.1510140E-007  0.1326007E+04  0.7818608E-02  0.9009192E-01
          2   -1    0    0  501    0  0.00000000000E+00  0.00000000000E+00  0.15116110569E+04  0.15116110569E+04  0.00000000000E+00 0. -1.
         -1   -1    0    0    0  501 -0.00000000000E+00 -0.00000000000E+00 -0.29079797867E+03  0.29079797867E+03  0.00000000000E+00 0.  1.
         24    2    1    2    0    0 -0.19729182500E+03  0.10086283967E+02 -0.64778456084E+02  0.22299319884E+03  0.80646890946E+02 0.  0.
        254    2    1    2    0    0  0.19729182500E+03 -0.10086283967E+02  0.12855915343E+04  0.15794158368E+04  0.89598158180E+03 0.  0.
         23    2    4    4    0    0 -0.10357765745E+02 -0.40732475590E+03  0.85244937879E+03  0.94926863930E+03  0.91762007840E+02 0.  0.
         23    2    4    4    0    0  0.20764959075E+03  0.39723847193E+03  0.43314215555E+03  0.63014719747E+03  0.92501932075E+02 0.  0.
          2    1    3    3  502    0 -0.99204673570E+02 -0.19360099600E+01  0.90551425830E+01  0.99635892127E+02  0.00000000000E+00 0. -1.
         -1    1    3    3    0  502 -0.98087151431E+02  0.12022293927E+02 -0.73833598667E+02  0.12335730671E+03  0.00000000000E+00 0.  1.
         11    1    5    5    0    0 -0.34228102319E+02 -0.35949134843E+03  0.77681803760E+03  0.85665153717E+03  0.00000000000E+00 0. -1.
        -11    1    5    5    0    0  0.23870336574E+02 -0.47833407466E+02  0.75631341188E+02  0.92617102135E+02  0.00000000000E+00 0.  1.
          2    1    6    6  503    0  0.21678782115E+03  0.38539135875E+03  0.41299783887E+03  0.60505427336E+03  0.00000000000E+00 0. -1.
         -2    1    6    6    0  503 -0.91382304046E+01  0.11847113183E+02  0.20144316679E+02  0.25092924106E+02  0.00000000000E+00 0.  1.
<mgrwt>
<rscale>  0 0.13260067E+04</rscale>
<asrwt>0</asrwt>
<pdfrwt beam="1">  1        2 0.23255554E+00 0.13260067E+04</pdfrwt>
<pdfrwt beam="2">  1       -1 0.44738152E-01 0.13260067E+04</pdfrwt>
<totfact> 0.69001456E+01</totfact>
</mgrwt>
</event>
<event>
12    6  0.1510140E-007  0.1373741E+04  0.7818608E-02  0.8973048E-01
          2   -1    0    0  501    0  0.00000000000E+00  0.00000000000E+00  0.97827524790E+03  0.97827524790E+03  0.00000000000E+00 0. -1.
         -1   -1    0    0    0  501 -0.00000000000E+00 -0.00000000000E+00 -0.48226856838E+03  0.48226856838E+03  0.00000000000E+00 0.  1.
         24    2    1    2    0    0  0.29877128050E+03  0.22962691149E+03  0.57506540420E+02  0.39044621331E+03  0.84548487647E+02 0.  0.
        254    2    1    2    0    0 -0.29877128050E+03 -0.22962691149E+03  0.43850013909E+03  0.10700976030E+04  0.90046305385E+03 0.  0.
         23    2    4    4    0    0  0.31051591231E+03 -0.13767646244E+02  0.14930648493E+03  0.35615765392E+03  0.89141281797E+02 0.  0.
         23    2    4    4    0    0 -0.60928719282E+03 -0.21585926525E+03  0.28919365416E+03  0.71393994905E+03  0.90835981366E+02 0.  0.
          4    1    3    3  502    0  0.45681104731E+02  0.62287795473E+02 -0.14541548751E+02  0.78600187241E+02  0.00000000000E+00 0. -1.
         -3    1    3    3    0  502  0.25309017577E+03  0.16733911602E+03  0.72048089171E+02  0.31184602607E+03  0.00000000000E+00 0.  1.
         11    1    5    5    0    0  0.98192122292E+02  0.33219440852E+02  0.29013766276E+02  0.10764303398E+03  0.00000000000E+00 0. -1.
        -11    1    5    5    0    0  0.21232379002E+03 -0.46987087096E+02  0.12029271866E+03  0.24851461994E+03  0.00000000000E+00 0.  1.
          4    1    6    6  503    0 -0.46578356093E+02  0.18849254804E+01  0.46659401575E+01  0.46849409793E+02  0.00000000000E+00 0. -1.
         -4    1    6    6    0  503 -0.56270883672E+03 -0.21774419073E+03  0.28452771401E+03  0.66709053925E+03  0.00000000000E+00 0.  1.
<mgrwt>
<rscale>  0 0.13737415E+04</rscale>
<asrwt>0</asrwt>
<pdfrwt beam="1">  1        2 0.15050388E+00 0.13737415E+04</pdfrwt>
<pdfrwt beam="2">  1       -1 0.74195165E-01 0.13737415E+04</pdfrwt>
<totfact> 0.52946315E+01</totfact>
</mgrwt>
</event>
<event>
12    6  0.1510140E-007  0.1821075E+04  0.7818608E-02  0.8695171E-01
          2   -1    0    0  501    0  0.00000000000E+00  0.00000000000E+00  0.10349410524E+04  0.10349410524E+04  0.00000000000E+00 0. -1.
         -1   -1    0    0    0  501 -0.00000000000E+00 -0.00000000000E+00 -0.80108808804E+03  0.80108808804E+03  0.00000000000E+00 0.  1.
         24    2    1    2    0    0  0.33425119908E+03  0.31940833440E+03 -0.42039970854E+03  0.62981679791E+03  0.78662162617E+02 0.  0.
        254    2    1    2    0    0 -0.33425119908E+03 -0.31940833440E+03  0.65425267292E+03  0.12062123426E+04  0.90175168818E+03 0.  0.
         23    2    4    4    0    0 -0.41677072383E+03  0.78889490667E+02  0.65930733747E+03  0.78930321554E+03  0.91607930052E+02 0.  0.
         23    2    4    4    0    0  0.82519524748E+02 -0.39829782506E+03 -0.50546645414E+01  0.41690912702E+03  0.91307399154E+02 0.  0.
          4    1    3    3  502    0  0.72722324403E+01  0.36447099591E+01  0.29482411560E+01  0.86522483359E+01  0.00000000000E+00 0. -1.
         -3    1    3    3    0  502  0.32697896664E+03  0.31576362444E+03 -0.42334794969E+03  0.62116454958E+03  0.00000000000E+00 0.  1.
         11    1    5    5    0    0 -0.34198497697E+03  0.85150242964E+02  0.48497799135E+03  0.59950641401E+03  0.00000000000E+00 0. -1.
        -11    1    5    5    0    0 -0.74785746857E+02 -0.62607522974E+01  0.17432934612E+03  0.18979680153E+03  0.00000000000E+00 0.  1.
          3    1    6    6  503    0  0.84314889644E+02 -0.30348739777E+03  0.28621210715E+02  0.31627958347E+03  0.00000000000E+00 0. -1.
         -3    1    6    6    0  503 -0.17953648963E+01 -0.94810427297E+02 -0.33675875257E+02  0.10062954354E+03  0.00000000000E+00 0.  1.
<mgrwt>
<rscale>  0 0.18210755E+04</rscale>
<asrwt>0</asrwt>
<pdfrwt beam="1">  1        2 0.15922170E+00 0.18210755E+04</pdfrwt>
<pdfrwt beam="2">  1       -1 0.12324432E+00 0.18210755E+04</pdfrwt>
<totfact> 0.14913213E+01</totfact>
</mgrwt>
</event>
<event>
12    6  0.1510140E-007  0.2050865E+04  0.7818608E-02  0.8583202E-01
         -1   -1    0    0    0  501 -0.00000000000E+00  0.00000000000E+00  0.59595633974E+03  0.59595633974E+03  0.00000000000E+00 0.  1.
          2   -1    0    0  501    0  0.00000000000E+00 -0.00000000000E+00 -0.17644111709E+04  0.17644111709E+04  0.00000000000E+00 0. -1.
         24    2    1    2    0    0 -0.48796607107E+03  0.65246384403E+03 -0.53565612938E+03  0.97834909933E+03  0.80121887959E+02 0.  0.
        254    2    1    2    0    0  0.48796607107E+03 -0.65246384403E+03 -0.63279870182E+03  0.13820184113E+04  0.91963076177E+03 0.  0.
         23    2    4    4    0    0  0.82069713733E+02 -0.66240353825E+02  0.22385127930E+03  0.26378742372E+03  0.91384830703E+02 0.  0.
         23    2    4    4    0    0  0.40589635734E+03 -0.58622349021E+03 -0.85664998112E+03  0.11182309876E+04  0.90451744883E+02 0.  0.
          4    1    3    3  502    0 -0.99167671572E+02  0.13725494399E+03 -0.15161239997E+03  0.22728718961E+03  0.00000000000E+00 0. -1.
         -3    1    3    3    0  502 -0.38879839950E+03  0.51520890004E+03 -0.38404372941E+03  0.75106190972E+03  0.00000000000E+00 0.  1.
         11    1    5    5    0    0  0.11709609335E+02 -0.15114675143E+02 -0.43201851657E+01  0.19601845712E+02  0.00000000000E+00 0.  1.
        -11    1    5    5    0    0  0.70360104398E+02 -0.51125678681E+02  0.22817146447E+03  0.24418557801E+03  0.00000000000E+00 0. -1.
          1    1    6    6  503    0  0.36750789262E+03 -0.55089819622E+03 -0.82213481600E+03  0.10556782320E+04  0.00000000000E+00 0. -1.
         -1    1    6    6    0  503  0.38388464719E+02 -0.35325293988E+02 -0.34515165123E+02  0.62552755673E+02  0.00000000000E+00 0.  1.
<mgrwt>
<rscale>  0 0.20508652E+04</rscale>
<asrwt>0</asrwt>
<pdfrwt beam="1">  1        2 0.27144787E+00 0.20508652E+04</pdfrwt>
<pdfrwt beam="2">  1       -1 0.91685592E-01 0.20508652E+04</pdfrwt>
<totfact> 0.11030022E+01</totfact>
</mgrwt>
</event>
<event>
12    6  0.1510140E-007  0.1700191E+04  0.7818608E-02  0.8761255E-01
          2   -1    0    0  501    0  0.00000000000E+00  0.00000000000E+00  0.91802263460E+03  0.91802263460E+03  0.00000000000E+00 0. -1.
         -1   -1    0    0    0  501 -0.00000000000E+00 -0.00000000000E+00 -0.78719452660E+03  0.78719452660E+03  0.00000000000E+00 0.  1.
         24    2    1    2    0    0 -0.58963060072E+03 -0.64826084141E+01 -0.66135636795E+02  0.59848274802E+03  0.78111508160E+02 0.  0.
        254    2    1    2    0    0  0.58963060072E+03  0.64826084141E+01  0.19696374479E+03  0.11067344132E+04  0.91562004950E+03 0.  0.
         23    2    4    4    0    0  0.16095895055E+03  0.16738969117E+03 -0.32243139161E+03  0.40857468393E+03  0.95100881083E+02 0.  0.
         23    2    4    4    0    0  0.42867165017E+03 -0.16090708276E+03  0.51939513640E+03  0.69815972925E+03  0.89471933550E+02 0.  0.
          2    1    3    3  502    0 -0.43743134203E+03  0.53084542895E+01 -0.15821484248E+02  0.43774956087E+03  0.00000000000E+00 0. -1.
         -1    1    3    3    0  502 -0.15219925869E+03 -0.11791062704E+02 -0.50314152547E+02  0.16073318715E+03  0.00000000000E+00 0.  1.
         11    1    5    5    0    0  0.13773043800E+03  0.81654945383E+02 -0.23132387432E+03  0.28133243412E+03  0.00000000000E+00 0. -1.
        -11    1    5    5    0    0  0.23228512551E+02  0.85734745791E+02 -0.91107517284E+02  0.12724224981E+03  0.00000000000E+00 0.  1.
          3    1    6    6  503    0  0.42699660497E+03 -0.16456485994E+03  0.49772662592E+03  0.67612091221E+03  0.00000000000E+00 0. -1.
         -3    1    6    6    0  503  0.16750452062E+01  0.36577771768E+01  0.21668510477E+02  0.22038817042E+02  0.00000000000E+00 0.  1.
<mgrwt>
<rscale>  0 0.17001910E+04</rscale>
<asrwt>0</asrwt>
<pdfrwt beam="1">  1        2 0.14123425E+00 0.17001910E+04</pdfrwt>
<pdfrwt beam="2">  1       -1 0.12110685E+00 0.17001910E+04</pdfrwt>
<totfact> 0.18743002E+01</totfact>
</mgrwt>
</event>
<event>
12    6  0.1510140E-007  0.3902688E+04  0.7818608E-02  0.8024470E-01
         -1   -1    0    0    0  501 -0.00000000000E+00  0.00000000000E+00  0.24532558925E+04  0.24532558925E+04  0.00000000000E+00 0.  1.
          2   -1    0    0  501    0  0.00000000000E+00 -0.00000000000E+00 -0.15521186344E+04  0.15521186344E+04  0.00000000000E+00 0. -1.
         24    2    1    2    0    0  0.14482549705E+04  0.27274177244E+03 -0.71392412745E+03  0.16410713022E+04  0.10768855628E+03 0.  0.
        254    2    1    2    0    0 -0.14482549705E+04 -0.27274177244E+03  0.16150613855E+04  0.23643032247E+04  0.89981994037E+03 0.  0.
         23    2    4    4    0    0 -0.21351258652E+03 -0.29158313057E+03  0.62239795933E+02  0.37841971771E+03  0.93377427218E+02 0.  0.
         23    2    4    4    0    0 -0.12347423840E+04  0.18841358135E+02  0.15528215896E+04  0.19858835070E+04  0.86802433699E+02 0.  0.
          4    1    3    3  502    0  0.12407583617E+04  0.27158505453E+03 -0.61168636417E+03  0.14097517378E+04  0.00000000000E+00 0. -1.
         -3    1    3    3    0  502  0.20749660879E+03  0.11567179069E+01 -0.10223776328E+03  0.23131956445E+03  0.00000000000E+00 0.  1.
         11    1    5    5    0    0 -0.16547013549E+03 -0.25655039358E+03  0.20893991555E+02  0.30599841351E+03  0.00000000000E+00 0. -1.
        -11    1    5    5    0    0 -0.48042451032E+02 -0.35032736989E+02  0.41345804378E+02  0.72421304198E+02  0.00000000000E+00 0.  1.
          3    1    6    6  503    0 -0.98725941411E+03 -0.12078731251E+02  0.12037905380E+04  0.15569003519E+04  0.00000000000E+00 0. -1.
         -3    1    6    6    0  503 -0.24748296986E+03  0.30920089386E+02  0.34903105163E+03  0.42898315503E+03  0.00000000000E+00 0.  1.
<mgrwt>
<rscale>  0 0.39026884E+04</rscale>
<asrwt>0</asrwt>
<pdfrwt beam="1">  1        2 0.23878748E+00 0.39026884E+04</pdfrwt>
<pdfrwt beam="2">  1       -1 0.37742398E+00 0.39026884E+04</pdfrwt>
<totfact> 0.10932330E-01</totfact>
</mgrwt>
</event>
<event>
12    6  0.1510140E-007  0.1555545E+04  0.7818608E-02  0.8848334E-01
          2   -1    0    0  501    0  0.00000000000E+00  0.00000000000E+00  0.22023486350E+04  0.22023486350E+04  0.00000000000E+00 0. -1.
         -1   -1    0    0    0  501 -0.00000000000E+00 -0.00000000000E+00 -0.27467485715E+03  0.27467485715E+03  0.00000000000E+00 0.  1.
         24    2    1    2    0    0  0.77230815661E+02 -0.40439945413E+03  0.15930838778E+03  0.44857565106E+03  0.79608007856E+02 0.  0.
        254    2    1    2    0    0 -0.77230815661E+02  0.40439945413E+03  0.17683653901E+04  0.20284478411E+04  0.90442300602E+03 0.  0.
         23    2    4    4    0    0  0.20485030849E+03  0.47914200533E+03  0.15846458626E+04  0.16706711658E+04  0.92189610108E+02 0.  0.
         23    2    4    4    0    0 -0.28208112415E+03 -0.74742551195E+02  0.18371952742E+03  0.35777667524E+03  0.95368102799E+02 0.  0.
          4    1    3    3  502    0  0.23385634961E+02 -0.69358071338E+02 -0.11660018412E+01  0.73203753610E+02  0.00000000000E+00 0. -1.
         -3    1    3    3    0  502  0.53845180700E+02 -0.33504138280E+03  0.16047438963E+03  0.37537189745E+03  0.00000000000E+00 0.  1.
         11    1    5    5    0    0  0.81711700614E+02  0.92565652125E+02  0.37146376009E+03  0.39144671033E+03  0.00000000000E+00 0.  1.
        -11    1    5    5    0    0  0.12313860787E+03  0.38657635320E+03  0.12131821026E+04  0.12792244555E+04  0.00000000000E+00 0. -1.
          3    1    6    6  503    0 -0.24937415026E+03 -0.96657670053E+02  0.16418898734E+03  0.31382828994E+03  0.00000000000E+00 0. -1.
         -3    1    6    6    0  503 -0.32706973883E+02  0.21915118858E+02  0.19530540079E+02  0.43948385305E+02  0.00000000000E+00 0.  1.
<mgrwt>
<rscale>  0 0.15555447E+04</rscale>
<asrwt>0</asrwt>
<pdfrwt beam="1">  1        2 0.33882285E+00 0.15555447E+04</pdfrwt>
<pdfrwt beam="2">  1       -1 0.42257672E-01 0.15555447E+04</pdfrwt>
<totfact> 0.31085609E+01</totfact>
</mgrwt>
</event>
<event>
12    6  0.1510140E-007  0.1178412E+04  0.7818608E-02  0.9131965E-01
          2   -1    0    0  501    0  0.00000000000E+00  0.00000000000E+00  0.50503484430E+03  0.50503484430E+03  0.00000000000E+00 0. -1.
         -1   -1    0    0    0  501 -0.00000000000E+00 -0.00000000000E+00 -0.68740514318E+03  0.68740514318E+03  0.00000000000E+00 0.  1.
         24    2    1    2    0    0  0.15714580383E+03 -0.33743741665E+02  0.10832404590E+03  0.20963054157E+03  0.79858758280E+02 0.  0.
        254    2    1    2    0    0 -0.15714580383E+03  0.33743741665E+02 -0.29069434478E+03  0.98280944591E+03  0.92497446511E+03 0.  0.
         23    2    4    4    0    0  0.70116779313E+02  0.41810546185E+03 -0.29825001568E+03  0.52701255384E+03  0.95187289517E+02 0.  0.
         23    2    4    4    0    0 -0.22726258314E+03 -0.38436172018E+03  0.75556708955E+01  0.45579689207E+03  0.91167455916E+02 0.  0.
          2    1    3    3  502    0  0.14766008468E+03 -0.35572574101E+01  0.92194405372E+02  0.17411479853E+03  0.00000000000E+00 0. -1.
         -1    1    3    3    0  502  0.94857191549E+01 -0.30186484255E+02  0.16129640531E+02  0.35515743034E+02  0.00000000000E+00 0.  1.
         11    1    5    5    0    0  0.36194166802E+02  0.61427777283E+02 -0.81410929868E+02  0.10821797002E+03  0.00000000000E+00 0. -1.
        -11    1    5    5    0    0  0.33922612511E+02  0.35667768456E+03 -0.21683908581E+03  0.41879458382E+03  0.00000000000E+00 0.  1.
          1    1    6    6  503    0 -0.66889369518E+00 -0.40842792991E+01  0.12430409061E+02  0.13101290990E+02  0.00000000000E+00 0. -1.
         -1    1    6    6    0  503 -0.22659368945E+03 -0.38027744088E+03 -0.48747381657E+01  0.44269560108E+03  0.00000000000E+00 0.  1.
<mgrwt>
<rscale>  0 0.11784117E+04</rscale>
<asrwt>0</asrwt>
<pdfrwt beam="1">  1        2 0.77697668E-01 0.11784117E+04</pdfrwt>
<pdfrwt beam="2">  1       -1 0.10575464E+00 0.11784117E+04</pdfrwt>
<totfact> 0.57612079E+01</totfact>
</mgrwt>
</event>
<event>
12    6  0.1510140E-007  0.2741325E+04  0.7818608E-02  0.8321720E-01
         -1   -1    0    0    0  501 -0.00000000000E+00  0.00000000000E+00  0.96778410344E+03  0.96778410344E+03  0.00000000000E+00 0.  1.
          2   -1    0    0  501    0  0.00000000000E+00 -0.00000000000E+00 -0.19412543865E+04  0.19412543865E+04  0.00000000000E+00 0. -1.
         24    2    1    2    0    0  0.11545474009E+04 -0.23375309668E+03 -0.89299573748E+02  0.11840207754E+04  0.79439106352E+02 0.  0.
        254    2    1    2    0    0 -0.11545474009E+04  0.23375309668E+03 -0.88417070928E+03  0.17250177145E+04  0.89794658039E+03 0.  0.
         23    2    4    4    0    0 -0.51694058244E+03 -0.25400985728E+03 -0.85853428624E+02  0.58913179031E+03  0.89201355255E+02 0.  0.
         23    2    4    4    0    0 -0.63760681842E+03  0.48776295395E+03 -0.79831728066E+03  0.11358859242E+04  0.92039111758E+02 0.  0.
          2    1    3    3  502    0  0.34037729586E+02 -0.71663904415E+01  0.10889987890E+02  0.36448813748E+02  0.00000000000E+00 0. -1.
         -1    1    3    3    0  502  0.11205096713E+04 -0.22658670624E+03 -0.10018956164E+03  0.11475719616E+04  0.00000000000E+00 0.  1.
         11    1    5    5    0    0 -0.26050595532E+03 -0.90095898121E+02 -0.11760340114E+02  0.27589659153E+03  0.00000000000E+00 0. -1.
        -11    1    5    5    0    0 -0.25643462711E+03 -0.16391395916E+03 -0.74093088510E+02  0.31323519878E+03  0.00000000000E+00 0.  1.
          2    1    6    6  503    0 -0.27716919924E+03  0.23016263569E+03 -0.41960322872E+03  0.55305015454E+03  0.00000000000E+00 0. -1.
         -2    1    6    6    0  503 -0.36043761918E+03  0.25760031826E+03 -0.37871405193E+03  0.58283576968E+03  0.00000000000E+00 0.  1.
<mgrwt>
<rscale>  0 0.27413246E+04</rscale>
<asrwt>0</asrwt>
<pdfrwt beam="1">  1        2 0.29865452E+00 0.27413246E+04</pdfrwt>
<pdfrwt beam="2">  1       -1 0.14888986E+00 0.27413246E+04</pdfrwt>
<totfact> 0.25507281E+00</totfact>
</mgrwt>
</event>
<event>
12    6  0.1510140E-007  0.1419245E+04  0.7818608E-02  0.8940004E-01
         -1   -1    0    0    0  501 -0.00000000000E+00  0.00000000000E+00  0.44653582918E+03  0.44653582918E+03  0.00000000000E+00 0.  1.
          2   -1    0    0  501    0  0.00000000000E+00 -0.00000000000E+00 -0.11277132788E+04  0.11277132788E+04  0.00000000000E+00 0. -1.
         24    2    1    2    0    0  0.26614845923E+03 -0.30024031640E+02 -0.56354773634E+03  0.62907302497E+03  0.80064816137E+02 0.  0.
        254    2    1    2    0    0 -0.26614845923E+03  0.30024031640E+02 -0.11762971326E+03  0.94517608300E+03  0.89876839820E+03 0.  0.
         23    2    4    4    0    0 -0.28986083356E+03  0.15016149256E+03  0.32953133093E+03  0.47277128810E+03  0.91400306895E+02 0.  0.
         23    2    4    4    0    0  0.23712374334E+02 -0.12013746092E+03 -0.44716104419E+03  0.47240479490E+03  0.90653210572E+02 0.  0.
          2    1    3    3  502    0  0.25388225256E+03 -0.38170419313E+02 -0.55624856089E+03  0.61263826240E+03  0.00000000000E+00 0. -1.
         -1    1    3    3    0  502  0.12266206672E+02  0.81463876726E+01 -0.72991754541E+01  0.16434762564E+02  0.00000000000E+00 0.  1.
         11    1    5    5    0    0 -0.22492952719E+03  0.82309934298E+02  0.27290907010E+03  0.36310821807E+03  0.00000000000E+00 0. -1.
        -11    1    5    5    0    0 -0.64931306372E+02  0.67851558264E+02  0.56622260830E+02  0.10966307003E+03  0.00000000000E+00 0.  1.
          1    1    6    6  503    0  0.42536344870E+02 -0.12344812710E+03 -0.41431422466E+03  0.43440195381E+03  0.00000000000E+00 0. -1.
         -1    1    6    6    0  503 -0.18823970536E+02  0.33106661805E+01 -0.32846819531E+02  0.38002841086E+02  0.00000000000E+00 0.  1.
<mgrwt>
<rscale>  0 0.14192454E+04</rscale>
<asrwt>0</asrwt>
<pdfrwt beam="1">  1        2 0.17349435E+00 0.14192454E+04</pdfrwt>
<pdfrwt beam="2">  1       -1 0.68697821E-01 0.14192454E+04</pdfrwt>
<totfact> 0.49795157E+01</totfact>
</mgrwt>
</event>
<event>
12    6  0.1510140E-007  0.1113530E+04  0.7818608E-02  0.9192104E-01
          2   -1    0    0  501    0  0.00000000000E+00  0.00000000000E+00  0.49377040959E+03  0.49377040959E+03  0.00000000000E+00 0. -1.
         -1   -1    0    0    0  501 -0.00000000000E+00 -0.00000000000E+00 -0.62779675022E+03  0.62779675022E+03  0.00000000000E+00 0.  1.
         24    2    1    2    0    0 -0.11297881690E+03 -0.12985470659E+03  0.36494434871E+02  0.18801027309E+03  0.66253763042E+02 0.  0.
        254    2    1    2    0    0  0.11297881690E+03  0.12985470659E+03 -0.17052077550E+03  0.93355688672E+03  0.90156789427E+03 0.  0.
         23    2    4    4    0    0  0.28939827278E+03 -0.10014558660E+02  0.28567291615E+03  0.41677360089E+03  0.90772064535E+02 0.  0.
         23    2    4    4    0    0 -0.17641945588E+03  0.13986926525E+03 -0.45619369165E+03  0.51678328583E+03  0.90912289774E+02 0.  0.
          4    1    3    3  502    0 -0.28929234088E+02 -0.82148214747E+02  0.25454887753E+02  0.90736878288E+02  0.00000000000E+00 0. -1.
         -3    1    3    3    0  502 -0.84049582810E+02 -0.47706491845E+02  0.11039547119E+02  0.97273394797E+02  0.00000000000E+00 0.  1.
         11    1    5    5    0    0  0.60043870208E+02 -0.22615298821E+02  0.11097536205E+03  0.12818833439E+03  0.00000000000E+00 0. -1.
        -11    1    5    5    0    0  0.22935440257E+03  0.12600740161E+02  0.17469755410E+03  0.28858526650E+03  0.00000000000E+00 0.  1.
          2    1    6    6  503    0 -0.11894678568E+03  0.14150993573E+03 -0.33422623658E+03  0.38194315932E+03  0.00000000000E+00 0. -1.
         -2    1    6    6    0  503 -0.57472670204E+02 -0.16406704746E+01 -0.12196745508E+03  0.13484012651E+03  0.00000000000E+00 0.  1.
<mgrwt>
<rscale>  0 0.11135303E+04</rscale>
<asrwt>0</asrwt>
<pdfrwt beam="1">  1        2 0.75964679E-01 0.11135303E+04</pdfrwt>
<pdfrwt beam="2">  1       -1 0.96584115E-01 0.11135303E+04</pdfrwt>
<totfact> 0.73175996E+01</totfact>
</mgrwt>
</event>
<event>
12    6  0.1510140E-007  0.1155261E+04  0.7818608E-02  0.9152943E-01
          2   -1    0    0  501    0  0.00000000000E+00  0.00000000000E+00  0.18101275914E+04  0.18101275914E+04  0.00000000000E+00 0. -1.
         -1   -1    0    0    0  501 -0.00000000000E+00 -0.00000000000E+00 -0.18432803917E+03  0.18432803917E+03  0.00000000000E+00 0.  1.
         24    2    1    2    0    0  0.13767003424E+03  0.55997377201E+02  0.61402202241E+03  0.63728396478E+03  0.83779849450E+02 0.  0.
        254    2    1    2    0    0 -0.13767003424E+03 -0.55997377201E+02  0.10117775298E+04  0.13571716658E+04  0.89226252639E+03 0.  0.
         23    2    4    4    0    0  0.27931437971E+03 -0.69519044399E+01  0.84954861707E+03  0.89948521152E+03  0.96311688201E+02 0.  0.
         23    2    4    4    0    0 -0.41698441396E+03 -0.49045472761E+02  0.16222891273E+03  0.45768645426E+03  0.82928947957E+02 0.  0.
          2    1    3    3  502    0  0.89764660067E+02  0.53302600113E+02  0.53293931400E+03  0.54306829569E+03  0.00000000000E+00 0. -1.
         -1    1    3    3    0  502  0.47905374174E+02  0.26947770883E+01  0.81082708412E+02  0.94215669088E+02  0.00000000000E+00 0.  1.
         11    1    5    5    0    0  0.12812142464E+02  0.17498738891E+02  0.12965782982E+03  0.13145915598E+03  0.00000000000E+00 0. -1.
        -11    1    5    5    0    0  0.26650223725E+03 -0.24450643330E+02  0.71989078725E+03  0.76802605554E+03  0.00000000000E+00 0.  1.
          4    1    6    6  503    0 -0.41816826788E+03 -0.46284381131E+02  0.16649539442E+03  0.45246840836E+03  0.00000000000E+00 0.  1.
         -4    1    6    6    0  503  0.11838539265E+01 -0.27610916303E+01 -0.42664816837E+01  0.52180459051E+01  0.00000000000E+00 0. -1.
<mgrwt>
<rscale>  0 0.11552615E+04</rscale>
<asrwt>0</asrwt>
<pdfrwt beam="1">  1        2 0.27848116E+00 0.11552615E+04</pdfrwt>
<pdfrwt beam="2">  1       -1 0.28358161E-01 0.11552615E+04</pdfrwt>
<totfact> 0.10817654E+02</totfact>
</mgrwt>
</event>
<event>
12    6  0.1510140E-007  0.2044859E+04  0.7818608E-02  0.8585930E-01
          2   -1    0    0  501    0  0.00000000000E+00  0.00000000000E+00  0.20724922769E+04  0.20724922769E+04  0.00000000000E+00 0. -1.
         -1   -1    0    0    0  501 -0.00000000000E+00 -0.00000000000E+00 -0.50439841514E+03  0.50439841514E+03  0.00000000000E+00 0.  1.
         24    2    1    2    0    0 -0.22281004352E+02 -0.49059210928E+03  0.14710395480E+04  0.15530569980E+04  0.82774552005E+02 0.  0.
        254    2    1    2    0    0  0.22281004352E+02  0.49059210928E+03  0.97054313729E+02  0.10238336940E+04  0.89310628276E+03 0.  0.
         23    2    4    4    0    0  0.16889729929E+03  0.74725268615E+02  0.42187409508E+03  0.46864740801E+03  0.86847437834E+02 0.  0.
         23    2    4    4    0    0 -0.14661629494E+03  0.41586684066E+03 -0.32481978135E+03  0.55518628599E+03  0.91007443044E+02 0.  0.
          4    1    3    3  502    0 -0.32347930522E+02 -0.43991066377E+03  0.12344546256E+04  0.13108951153E+04  0.00000000000E+00 0. -1.
         -3    1    3    3    0  502  0.10066926171E+02 -0.50681445504E+02  0.23658492245E+03  0.24216188274E+03  0.00000000000E+00 0.  1.
         11    1    5    5    0    0  0.86756237488E+02 -0.68851446838E+01  0.20723947982E+03  0.22477155505E+03  0.00000000000E+00 0. -1.
        -11    1    5    5    0    0  0.82141061804E+02  0.81610413298E+02  0.21463461526E+03  0.24387585296E+03  0.00000000000E+00 0.  1.
          4    1    6    6  503    0 -0.13828663420E+03  0.26883299910E+03 -0.20410429861E+03  0.36476422428E+03  0.00000000000E+00 0. -1.
         -4    1    6    6    0  503 -0.83296607429E+01  0.14703384156E+03 -0.12071548274E+03  0.19042206171E+03  0.00000000000E+00 0.  1.
<mgrwt>
<rscale>  0 0.20448587E+04</rscale>
<asrwt>0</asrwt>
<pdfrwt beam="1">  1        2 0.31884496E+00 0.20448587E+04</pdfrwt>
<pdfrwt beam="2">  1       -1 0.77599757E-01 0.20448587E+04</pdfrwt>
<totfact> 0.10675594E+01</totfact>
</mgrwt>
</event>
<event>
12    6  0.1510140E-007  0.1456106E+04  0.7818608E-02  0.8914178E-01
          2   -1    0    0  501    0  0.00000000000E+00  0.00000000000E+00  0.84679595261E+03  0.84679595261E+03  0.00000000000E+00 0. -1.
         -1   -1    0    0    0  501 -0.00000000000E+00 -0.00000000000E+00 -0.62596116785E+03  0.62596116785E+03  0.00000000000E+00 0.  1.
         24    2    1    2    0    0  0.11172685262E+02  0.39086574208E+03  0.28777481795E+03  0.49220002767E+03  0.80905278954E+02 0.  0.
        254    2    1    2    0    0 -0.11172685262E+02 -0.39086574208E+03 -0.66940033183E+02  0.98055709280E+03  0.89672202324E+03 0.  0.
         23    2    4    4    0    0  0.68331614273E+02  0.13469611257E+03  0.28602236251E+03  0.33614111618E+03  0.91486643161E+02 0.  0.
         23    2    4    4    0    0 -0.79504299535E+02 -0.52556185465E+03 -0.35296239570E+03  0.64441597662E+03  0.90295633529E+02 0.  0.
          4    1    3    3  502    0 -0.29215777727E+02  0.20522627764E+03  0.17485450119E+03  0.27119270508E+03  0.00000000000E+00 0. -1.
         -3    1    3    3    0  502  0.40388462989E+02  0.18563946444E+03  0.11292031675E+03  0.22100732258E+03  0.00000000000E+00 0.  1.
         11    1    5    5    0    0  0.42156471595E+02  0.95749917844E+01  0.40026850378E+02  0.58915170510E+02  0.00000000000E+00 0.  1.
        -11    1    5    5    0    0  0.26175142679E+02  0.12512112079E+03  0.24599551213E+03  0.27722594567E+03  0.00000000000E+00 0. -1.
          4    1    6    6  503    0 -0.28320549568E+02 -0.41800164660E+03 -0.29136382487E+03  0.51031393135E+03  0.00000000000E+00 0. -1.
         -4    1    6    6    0  503 -0.51183749967E+02 -0.10756020806E+03 -0.61598570830E+02  0.13410204527E+03  0.00000000000E+00 0.  1.
<mgrwt>
<rscale>  0 0.14561063E+04</rscale>
<asrwt>0</asrwt>
<pdfrwt beam="1">  1        2 0.13027630E+00 0.14561063E+04</pdfrwt>
<pdfrwt beam="2">  1       -1 0.96301717E-01 0.14561063E+04</pdfrwt>
<totfact> 0.36670388E+01</totfact>
</mgrwt>
</event>
<event>
12    6  0.1510140E-007  0.1766361E+04  0.7818608E-02  0.8724396E-01
         -1   -1    0    0    0  501 -0.00000000000E+00  0.00000000000E+00  0.57096471223E+03  0.57096471223E+03  0.00000000000E+00 0.  1.
          2   -1    0    0  501    0  0.00000000000E+00 -0.00000000000E+00 -0.13661227374E+04  0.13661227374E+04  0.00000000000E+00 0. -1.
         24    2    1    2    0    0 -0.60548529424E+03 -0.15927141445E+03 -0.48224802933E+03  0.79381896598E+03  0.74870314288E+02 0.  0.
        254    2    1    2    0    0  0.60548529424E+03  0.15927141445E+03 -0.31290999587E+03  0.11432684837E+04  0.90397474258E+03 0.  0.
         23    2    4    4    0    0  0.19586404562E+03  0.13665116118E+03  0.30442680710E+03  0.39754841136E+03  0.91284140339E+02 0.  0.
         23    2    4    4    0    0  0.40962124862E+03  0.22620253266E+02 -0.61733680297E+03  0.74572007230E+03  0.81807424830E+02 0.  0.
          2    1    3    3  502    0 -0.17993243984E+03 -0.35407173857E+02 -0.10198016342E+03  0.20983161011E+03  0.00000000000E+00 0. -1.
         -1    1    3    3    0  502 -0.42555285440E+03 -0.12386424059E+03 -0.38026786590E+03  0.58398735588E+03  0.00000000000E+00 0.  1.
         11    1    5    5    0    0  0.59198440849E+02  0.11341620342E+01  0.44230301747E+02  0.73905759688E+02  0.00000000000E+00 0.  1.
        -11    1    5    5    0    0  0.13666560477E+03  0.13551699915E+03  0.26019650535E+03  0.32364265168E+03  0.00000000000E+00 0. -1.
          4    1    6    6  503    0  0.26744230723E+03 -0.12560920651E+02 -0.44721947949E+03  0.52123740010E+03  0.00000000000E+00 0. -1.
         -4    1    6    6    0  503  0.14217894140E+03  0.35181173918E+02 -0.17011732347E+03  0.22448267221E+03  0.00000000000E+00 0.  1.
<mgrwt>
<rscale>  0 0.17663611E+04</rscale>
<asrwt>0</asrwt>
<pdfrwt beam="1">  1        2 0.21017273E+00 0.17663611E+04</pdfrwt>
<pdfrwt beam="2">  1       -1 0.87840726E-01 0.17663611E+04</pdfrwt>
<totfact> 0.20808446E+01</totfact>
</mgrwt>
</event>
<event>
12    6  0.1510140E-007  0.2266069E+04  0.7818608E-02  0.8491421E-01
          2   -1    0    0  501    0  0.00000000000E+00  0.00000000000E+00  0.14219454722E+04  0.14219454722E+04  0.00000000000E+00 0. -1.
         -1   -1    0    0    0  501 -0.00000000000E+00 -0.00000000000E+00 -0.90282418464E+03  0.90282418464E+03  0.00000000000E+00 0.  1.
         24    2    1    2    0    0  0.52390328259E+03 -0.71442723218E+03 -0.13287584007E+03  0.89946948195E+03  0.80674906291E+02 0.  0.
        254    2    1    2    0    0 -0.52390328259E+03  0.71442723218E+03  0.65199712763E+03  0.14253001749E+04  0.90636604885E+03 0.  0.
         23    2    4    4    0    0 -0.71921486024E+03  0.75059743988E+03  0.48313426152E+03  0.11496627498E+04  0.87402469495E+02 0.  0.
         23    2    4    4    0    0  0.19531157765E+03 -0.36170207706E+02  0.16886286611E+03  0.27563742509E+03  0.89478635827E+02 0.  0.
          2    1    3    3  502    0  0.72013952764E+02 -0.57326425064E+02 -0.17157017899E+02  0.93630612870E+02  0.00000000000E+00 0. -1.
         -1    1    3    3    0  502  0.45188932983E+03 -0.65710080711E+03 -0.11571882217E+03  0.80583886908E+03  0.00000000000E+00 0.  1.
         11    1    5    5    0    0 -0.43748559732E+03  0.51404938264E+03  0.29863775728E+03  0.73812256823E+03  0.00000000000E+00 0.  1.
        -11    1    5    5    0    0 -0.28172926292E+03  0.23654805724E+03  0.18449650424E+03  0.41154018157E+03  0.00000000000E+00 0. -1.
          2    1    6    6  503    0  0.56112502523E+02  0.21895221835E+02  0.81486177404E+02  0.10133119355E+03  0.00000000000E+00 0. -1.
         -2    1    6    6    0  503  0.13919907513E+03 -0.58065429541E+02  0.87376688709E+02  0.17430623154E+03  0.00000000000E+00 0.  1.
<mgrwt>
<rscale>  0 0.22660686E+04</rscale>
<asrwt>0</asrwt>
<pdfrwt beam="1">  1        2 0.21876084E+00 0.22660686E+04</pdfrwt>
<pdfrwt beam="2">  1       -1 0.13889603E+00 0.22660686E+04</pdfrwt>
<totfact> 0.62317896E+00</totfact>
</mgrwt>
</event>
<event>
12    6  0.1510140E-007  0.2950945E+04  0.7818608E-02  0.8257879E-01
         -1   -1    0    0    0  501 -0.00000000000E+00  0.00000000000E+00  0.14784378122E+04  0.14784378122E+04  0.00000000000E+00 0.  1.
          2   -1    0    0  501    0  0.00000000000E+00 -0.00000000000E+00 -0.14725132154E+04  0.14725132154E+04  0.00000000000E+00 0. -1.
         24    2    1    2    0    0  0.10517417812E+04 -0.71381274846E+03  0.42739375236E+03  0.13435184507E+04  0.81774039854E+02 0.  0.
        254    2    1    2    0    0 -0.10517417812E+04  0.71381274846E+03 -0.42146915552E+03  0.16074325769E+04  0.88910844439E+03 0.  0.
         23    2    4    4    0    0  0.63950594013E+02 -0.10497484143E+03  0.16829178287E+02  0.15294753224E+03  0.89444567009E+02 0.  0.
         23    2    4    4    0    0 -0.11156923752E+04  0.81878758989E+03 -0.43829833381E+03  0.14544850446E+04  0.90767406660E+02 0.  0.
          4    1    3    3  502    0  0.16667704196E+03 -0.13753736106E+03  0.48522499301E+02  0.22147730119E+03  0.00000000000E+00 0. -1.
         -3    1    3    3    0  502  0.88506473928E+03 -0.57627538740E+03  0.37887125306E+03  0.11220411495E+04  0.00000000000E+00 0.  1.
         11    1    5    5    0    0 -0.12778138871E+02 -0.10225584122E+01  0.19942516327E+02  0.23707180687E+02  0.00000000000E+00 0. -1.
        -11    1    5    5    0    0  0.76728732883E+02 -0.10395228302E+03 -0.31133380401E+01  0.12924035155E+03  0.00000000000E+00 0.  1.
          1    1    6    6  503    0 -0.87728978509E+02  0.96877891883E+02 -0.37791044931E+02  0.13605095620E+03  0.00000000000E+00 0. -1.
         -1    1    6    6    0  503 -0.10279633967E+04  0.72190969801E+03 -0.40050728887E+03  0.13184340884E+04  0.00000000000E+00 0.  1.
<mgrwt>
<rscale>  0 0.29509451E+04</rscale>
<asrwt>0</asrwt>
<pdfrwt beam="1">  1        2 0.22654049E+00 0.29509451E+04</pdfrwt>
<pdfrwt beam="2">  1       -1 0.22745197E+00 0.29509451E+04</pdfrwt>
<totfact> 0.12637790E+00</totfact>
</mgrwt>
</event>
<event>
12    6  0.1510140E-007  0.1561192E+04  0.7818608E-02  0.8844750E-01
         -1   -1    0    0    0  501 -0.00000000000E+00  0.00000000000E+00  0.22786963419E+03  0.22786963419E+03  0.00000000000E+00 0.  1.
          2   -1    0    0  501    0  0.00000000000E+00 -0.00000000000E+00 -0.26740293087E+04  0.26740293087E+04  0.00000000000E+00 0. -1.
         24    2    1    2    0    0 -0.21327898375E+03 -0.10420883828E+03  0.34952267942E+02  0.25216902932E+03  0.77589634821E+02 0.  0.
        254    2    1    2    0    0  0.21327898375E+03  0.10420883828E+03 -0.24811119425E+04  0.26497299136E+04  0.89933571987E+03 0.  0.
         23    2    4    4    0    0  0.37988180998E+03 -0.28779650264E+03 -0.11191183786E+04  0.12197544905E+04  0.90763734055E+02 0.  0.
         23    2    4    4    0    0 -0.16660282623E+03  0.39200534092E+03 -0.13619935639E+04  0.14299754231E+04  0.91534438652E+02 0.  0.
          2    1    3    3  502    0 -0.85368573224E+02 -0.16269378191E+01  0.18647007938E+02  0.87396516670E+02  0.00000000000E+00 0. -1.
         -3    1    3    3    0  502 -0.12791041052E+03 -0.10258190046E+03  0.16305260004E+02  0.16477251265E+03  0.00000000000E+00 0.  1.
         11    1    5    5    0    0  0.18709786064E+02 -0.21105372604E+01 -0.95252619957E+02  0.97095685129E+02  0.00000000000E+00 0. -1.
        -11    1    5    5    0    0  0.36117202391E+03 -0.28568596538E+03 -0.10238657586E+04  0.11226588054E+04  0.00000000000E+00 0.  1.
          3    1    6    6  503    0 -0.12238054513E+02  0.92705807691E+02 -0.21243702175E+03  0.23210692572E+03  0.00000000000E+00 0. -1.
         -3    1    6    6    0  503 -0.15436477172E+03  0.29929953323E+03 -0.11495565421E+04  0.11978684973E+04  0.00000000000E+00 0.  1.
<mgrwt>
<rscale>  0 0.15611920E+04</rscale>
<asrwt>0</asrwt>
<pdfrwt beam="1">  1        2 0.41138912E+00 0.15611920E+04</pdfrwt>
<pdfrwt beam="2">  1       -1 0.35056867E-01 0.15611920E+04</pdfrwt>
<totfact> 0.23401260E+01</totfact>
</mgrwt>
</event>
<event>
12    6  0.1510140E-007  0.1443484E+04  0.7818608E-02  0.8922931E-01
          2   -1    0    0  501    0  0.00000000000E+00  0.00000000000E+00  0.14570833024E+04  0.14570833024E+04  0.00000000000E+00 0. -1.
         -1   -1    0    0    0  501 -0.00000000000E+00 -0.00000000000E+00 -0.35750277413E+03  0.35750277413E+03  0.00000000000E+00 0.  1.
         24    2    1    2    0    0 -0.42909973005E+03  0.53531302455E+01  0.25484095356E+03  0.50552211012E+03  0.80333416951E+02 0.  0.
        254    2    1    2    0    0  0.42909973005E+03 -0.53531302455E+01  0.84473957468E+03  0.13090639664E+04  0.90327641655E+03 0.  0.
         23    2    4    4    0    0  0.38706431146E+03  0.11337116565E+02  0.10264664037E+04  0.11008768439E+04  0.91374154682E+02 0.  0.
         23    2    4    4    0    0  0.42035418592E+02 -0.16690246810E+02 -0.18172682899E+03  0.20818712248E+03  0.90948869342E+02 0.  0.
          2    1    3    3  502    0 -0.13541243133E+03  0.83210842108E+01  0.12472562541E+03  0.18428849295E+03  0.00000000000E+00 0. -1.
         -3    1    3    3    0  502 -0.29368729872E+03 -0.29679539652E+01  0.13011532815E+03  0.32123361717E+03  0.00000000000E+00 0.  1.
         11    1    5    5    0    0  0.28334731045E+02 -0.47668836634E+01  0.16631678030E+03  0.16878048339E+03  0.00000000000E+00 0. -1.
        -11    1    5    5    0    0  0.35872958041E+03  0.16104000228E+02  0.86014962338E+03  0.93209636051E+03  0.00000000000E+00 0.  1.
          1    1    6    6  503    0  0.50706105726E+01  0.35465499665E+02 -0.47320296124E+02  0.59352533082E+02  0.00000000000E+00 0. -1.
         -1    1    6    6    0  503  0.36964808019E+02 -0.52155746475E+02 -0.13440653287E+03  0.14883458939E+03  0.00000000000E+00 0.  1.
<mgrwt>
<rscale>  0 0.14434837E+04</rscale>
<asrwt>0</asrwt>
<pdfrwt beam="1">  1        2 0.22416666E+00 0.14434837E+04</pdfrwt>
<pdfrwt beam="2">  1       -1 0.55000428E-01 0.14434837E+04</pdfrwt>
<totfact> 0.49588446E+01</totfact>
</mgrwt>
</event>
<event>
12    6  0.1510140E-007  0.3519723E+04  0.7818608E-02  0.8109132E-01
         -1   -1    0    0    0  501 -0.00000000000E+00  0.00000000000E+00  0.12194126041E+04  0.12194126041E+04  0.00000000000E+00 0.  1.
          2   -1    0    0  501    0  0.00000000000E+00 -0.00000000000E+00 -0.25398395116E+04  0.25398395116E+04  0.00000000000E+00 0. -1.
         24    2    1    2    0    0 -0.13248574547E+04 -0.52579773889E+03  0.25741624284E+03  0.14507763433E+04  0.82330666354E+02 0.  0.
        254    2    1    2    0    0  0.13248574547E+04  0.52579773889E+03 -0.15778431503E+04  0.23084757725E+04  0.89875516566E+03 0.  0.
         23    2    4    4    0    0  0.35831273434E+03 -0.75427053630E+02 -0.90994729480E+03  0.98551417387E+03  0.95691439458E+02 0.  0.
         23    2    4    4    0    0  0.96654472035E+03  0.60122479252E+03 -0.66789585550E+03  0.13229615986E+04  0.91992228242E+02 0.  0.
          2    1    3    3  502    0 -0.54756953567E+03 -0.19958181687E+03  0.14285206069E+03  0.60006000471E+03  0.00000000000E+00 0. -1.
         -1    1    3    3    0  502 -0.77728791902E+03 -0.32621592202E+03  0.11456418214E+03  0.85071633854E+03  0.00000000000E+00 0.  1.
         11    1    5    5    0    0  0.13493171328E+03  0.49737602274E+01 -0.41819195334E+03  0.43944944576E+03  0.00000000000E+00 0. -1.
        -11    1    5    5    0    0  0.22338102105E+03 -0.80400813857E+02 -0.49175534146E+03  0.54606472811E+03  0.00000000000E+00 0.  1.
          4    1    6    6  503    0  0.54123128933E+03  0.28271247065E+03 -0.35415011931E+03  0.70588947904E+03  0.00000000000E+00 0. -1.
         -4    1    6    6    0  503  0.42531343102E+03  0.31851232187E+03 -0.31374573618E+03  0.61707211958E+03  0.00000000000E+00 0.  1.
<mgrwt>
<rscale>  0 0.35197229E+04</rscale>
<asrwt>0</asrwt>
<pdfrwt beam="1">  1        2 0.39074454E+00 0.35197229E+04</pdfrwt>
<pdfrwt beam="2">  1       -1 0.18760194E+00 0.35197229E+04</pdfrwt>
<totfact> 0.56511870E-01</totfact>
</mgrwt>
</event>
<event>
12    6  0.1510140E-007  0.1577668E+04  0.7818608E-02  0.8834386E-01
          2   -1    0    0  501    0  0.00000000000E+00  0.00000000000E+00  0.17785206730E+04  0.17785206730E+04  0.00000000000E+00 0. -1.
         -1   -1    0    0    0  501 -0.00000000000E+00 -0.00000000000E+00 -0.34987448736E+03  0.34987448736E+03  0.00000000000E+00 0.  1.
         24    2    1    2    0    0 -0.39076450495E+02 -0.52134830739E+03  0.61407326170E+03  0.81047793847E+03  0.80358517923E+02 0.  0.
        254    2    1    2    0    0  0.39076450495E+02  0.52134830739E+03  0.81457292395E+03  0.13179172219E+04  0.89445275379E+03 0.  0.
         23    2    4    4    0    0 -0.19403403612E+03 -0.18593468099E+03  0.22978321072E+03  0.36673175821E+03  0.97318784346E+02 0.  0.
         23    2    4    4    0    0  0.23311048661E+03  0.70728298837E+03  0.58478971323E+03  0.95118546370E+03  0.90471282951E+02 0.  0.
          4    1    3    3  502    0 -0.59963504896E+01 -0.19684818376E+03  0.29101956201E+03  0.35139372382E+03  0.00000000000E+00 0. -1.
         -3    1    3    3    0  502 -0.33080100006E+02 -0.32450012363E+03  0.32305369970E+03  0.45908421465E+03  0.00000000000E+00 0.  1.
         11    1    5    5    0    0 -0.99843973061E+02 -0.57424531072E+02  0.14829614235E+03  0.18777151425E+03  0.00000000000E+00 0. -1.
        -11    1    5    5    0    0 -0.94190063056E+02 -0.12851014991E+03  0.81487068371E+02  0.17896024397E+03  0.00000000000E+00 0.  1.
          2    1    6    6  503    0  0.11809232872E+03  0.23340583728E+03  0.18137789293E+03  0.31831120468E+03  0.00000000000E+00 0. -1.
         -2    1    6    6    0  503  0.11501815789E+03  0.47387715109E+03  0.40341182030E+03  0.63287425902E+03  0.00000000000E+00 0.  1.
<mgrwt>
<rscale>  0 0.15776679E+04</rscale>
<asrwt>0</asrwt>
<pdfrwt beam="1">  1        2 0.27361856E+00 0.15776679E+04</pdfrwt>
<pdfrwt beam="2">  1       -1 0.53826845E-01 0.15776679E+04</pdfrwt>
<totfact> 0.33808785E+01</totfact>
</mgrwt>
</event>
<event>
12    6  0.1510140E-007  0.3147036E+04  0.7818608E-02  0.8202947E-01
         -1   -1    0    0    0  501 -0.00000000000E+00  0.00000000000E+00  0.78455506140E+03  0.78455506140E+03  0.00000000000E+00 0.  1.
          2   -1    0    0  501    0  0.00000000000E+00 -0.00000000000E+00 -0.31558767002E+04  0.31558767002E+04  0.00000000000E+00 0. -1.
         24    2    1    2    0    0 -0.12819352193E+04 -0.40924274380E+03 -0.17750492372E+04  0.22289186940E+04  0.80257211490E+02 0.  0.
        254    2    1    2    0    0  0.12819352193E+04  0.40924274380E+03 -0.59627240159E+03  0.17115130676E+04  0.87344070989E+03 0.  0.
         23    2    4    4    0    0  0.12371620967E+04  0.19496646972E+03 -0.71674732619E+03  0.14455467003E+04  0.85419875714E+02 0.  0.
         23    2    4    4    0    0  0.44773122613E+02  0.21427627408E+03  0.12047492460E+03  0.26596636732E+03  0.91131481630E+02 0.  0.
          4    1    3    3  502    0 -0.10951868370E+04 -0.37750709571E+03 -0.15392258740E+04  0.19264376726E+04  0.00000000000E+00 0. -1.
         -3    1    3    3    0  502 -0.18674838232E+03 -0.31735648087E+02 -0.23582336321E+03  0.30248102138E+03  0.00000000000E+00 0.  1.
         11    1    5    5    0    0  0.16957089853E+02  0.12742114208E+02 -0.76513498583E+01  0.22548781019E+02  0.00000000000E+00 0. -1.
        -11    1    5    5    0    0  0.12202050069E+04  0.18222435551E+03 -0.70909597633E+03  0.14229979193E+04  0.00000000000E+00 0.  1.
          1    1    6    6  503    0  0.23599126246E+02  0.33665463014E+01  0.21197313790E+02  0.31899506351E+02  0.00000000000E+00 0. -1.
         -1    1    6    6    0  503  0.21173996367E+02  0.21090972778E+03  0.99277610813E+02  0.23406686097E+03  0.00000000000E+00 0.  1.
<mgrwt>
<rscale>  0 0.31470361E+04</rscale>
<asrwt>0</asrwt>
<pdfrwt beam="1">  1        2 0.48551950E+00 0.31470361E+04</pdfrwt>
<pdfrwt beam="2">  1       -1 0.12070078E+00 0.31470361E+04</pdfrwt>
<totfact> 0.81146472E-01</totfact>
</mgrwt>
</event>
<event>
12    6  0.1510140E-007  0.1769346E+04  0.7818608E-02  0.8722773E-01
          2   -1    0    0  501    0  0.00000000000E+00  0.00000000000E+00  0.40128563343E+03  0.40128563343E+03  0.00000000000E+00 0. -1.
         -1   -1    0    0    0  501 -0.00000000000E+00 -0.00000000000E+00 -0.19503474459E+04  0.19503474459E+04  0.00000000000E+00 0.  1.
         24    2    1    2    0    0 -0.40266925191E+03 -0.44823931582E+03 -0.24088548098E+03  0.65370160989E+03  0.78987145413E+02 0.  0.
        254    2    1    2    0    0  0.40266925191E+03  0.44823931582E+03 -0.13081763315E+04  0.16979314694E+04  0.89921351747E+03 0.  0.
         23    2    4    4    0    0  0.37152971130E+03  0.12845747451E+02 -0.78556635107E+02  0.38974164426E+03  0.86764420937E+02 0.  0.
         23    2    4    4    0    0  0.31139540608E+02  0.43539356837E+03 -0.12296196964E+04  0.13081898252E+04  0.94121148741E+02 0.  0.
          2    1    3    3  502    0 -0.23742552667E+03 -0.30717544443E+03 -0.12755315201E+03  0.40865320378E+03  0.00000000000E+00 0. -1.
         -1    1    3    3    0  502 -0.16524372524E+03 -0.14106387139E+03 -0.11333232898E+03  0.24504840610E+03  0.00000000000E+00 0.  1.
         11    1    5    5    0    0  0.13126165292E+03  0.36147360314E+02 -0.56276176607E+02  0.14732026757E+03  0.00000000000E+00 0. -1.
        -11    1    5    5    0    0  0.24026805839E+03 -0.23301612863E+02 -0.22280458500E+02  0.24242137669E+03  0.00000000000E+00 0.  1.
          2    1    6    6  503    0 -0.44326080168E+01  0.24172742506E+02 -0.26059372327E+02  0.35819832218E+02  0.00000000000E+00 0. -1.
         -2    1    6    6    0  503  0.35572148625E+02  0.41122082586E+03 -0.12035603241E+04  0.12723699930E+04  0.00000000000E+00 0.  1.
<mgrwt>
<rscale>  0 0.17693461E+04</rscale>
<asrwt>0</asrwt>
<pdfrwt beam="1">  1        2 0.61736253E-01 0.17693461E+04</pdfrwt>
<pdfrwt beam="2">  1       -1 0.30005345E+00 0.17693461E+04</pdfrwt>
<totfact> 0.28328276E+00</totfact>
</mgrwt>
</event>
<event>
12    6  0.1510140E-007  0.1875887E+04  0.7818608E-02  0.8666953E-01
          2   -1    0    0  501    0  0.00000000000E+00  0.00000000000E+00  0.68207676766E+03  0.68207676766E+03  0.00000000000E+00 0. -1.
         -1   -1    0    0    0  501 -0.00000000000E+00 -0.00000000000E+00 -0.12897935231E+04  0.12897935231E+04  0.00000000000E+00 0.  1.
         24    2    1    2    0    0  0.46910567543E+03  0.46963238247E+03  0.63161061355E+02  0.67143976992E+03  0.78913468869E+02 0.  0.
        254    2    1    2    0    0 -0.46910567543E+03 -0.46963238247E+03 -0.67087781683E+03  0.13004305209E+04  0.89466629819E+03 0.  0.
         23    2    4    4    0    0  0.90855827486E+02 -0.42078243078E+03 -0.57161625210E+03  0.72139360536E+03  0.91383580274E+02 0.  0.
         23    2    4    4    0    0 -0.55996150292E+03 -0.48849951681E+02 -0.99261564722E+02  0.57903691551E+03  0.97404767656E+02 0.  0.
          2    1    3    3  502    0  0.21267584175E+03  0.26840278671E+03  0.36636752399E+02  0.34440284726E+03  0.00000000000E+00 0. -1.
         -1    1    3    3    0  502  0.25642983369E+03  0.20122959575E+03  0.26524308956E+02  0.32703692265E+03  0.00000000000E+00 0.  1.
         11    1    5    5    0    0  0.53575745893E+02 -0.37976018303E+03 -0.48120431550E+03  0.61534197843E+03  0.00000000000E+00 0.  1.
        -11    1    5    5    0    0  0.37280081593E+02 -0.41022247754E+02 -0.90411936605E+02  0.10605162693E+03  0.00000000000E+00 0. -1.
          3    1    6    6  503    0 -0.16990275326E+03 -0.37627777691E+02  0.84480197680E+01  0.17422446515E+03  0.00000000000E+00 0. -1.
         -3    1    6    6    0  503 -0.39005874966E+03 -0.11222173990E+02 -0.10770958449E+03  0.40481245036E+03  0.00000000000E+00 0.  1.
<mgrwt>
<rscale>  0 0.18758872E+04</rscale>
<asrwt>0</asrwt>
<pdfrwt beam="1">  1        2 0.10493489E+00 0.18758872E+04</pdfrwt>
<pdfrwt beam="2">  1       -1 0.19842977E+00 0.18758872E+04</pdfrwt>
<totfact> 0.69990615E+00</totfact>
</mgrwt>
</event>
<event>
12    6  0.1510140E-007  0.1555635E+04  0.7818608E-02  0.8848277E-01
          2   -1    0    0  501    0  0.00000000000E+00  0.00000000000E+00  0.14357424043E+04  0.14357424043E+04  0.00000000000E+00 0. -1.
         -1   -1    0    0    0  501 -0.00000000000E+00 -0.00000000000E+00 -0.42138466279E+03  0.42138466279E+03  0.00000000000E+00 0.  1.
         24    2    1    2    0    0 -0.36055912512E+03  0.23809477475E+03  0.13946407364E+02  0.43932797054E+03  0.78246782361E+02 0.  0.
        254    2    1    2    0    0  0.36055912512E+03 -0.23809477475E+03  0.10004113342E+04  0.14177990966E+04  0.90699472779E+03 0.  0.
         23    2    4    4    0    0  0.24197586297E+03  0.10169812475E+03 -0.68905330592E+02  0.28593445720E+03  0.90087415273E+02 0.  0.
         23    2    4    4    0    0  0.11858326216E+03 -0.33979289950E+03  0.10693166648E+04  0.11318646394E+04  0.90322908103E+02 0.  0.
          2    1    3    3  502    0 -0.24331355785E+03  0.18151532667E+03  0.41135465854E+02  0.30633548244E+03  0.00000000000E+00 0. -1.
         -3    1    3    3    0  502 -0.11724556727E+03  0.56579448070E+02 -0.27189058490E+02  0.13299248810E+03  0.00000000000E+00 0.  1.
         11    1    5    5    0    0  0.96039655678E+02  0.86319283932E+02 -0.16822055874E+02  0.13022141070E+03  0.00000000000E+00 0. -1.
        -11    1    5    5    0    0  0.14593620729E+03  0.15378840822E+02 -0.52083274718E+02  0.15571304649E+03  0.00000000000E+00 0.  1.
          3    1    6    6  503    0  0.83223759321E+02 -0.14102463920E+03  0.38470352509E+03  0.41810398849E+03  0.00000000000E+00 0. -1.
         -3    1    6    6    0  503  0.35359502836E+02 -0.19876826030E+03  0.68461313968E+03  0.71376065090E+03  0.00000000000E+00 0.  1.
<mgrwt>
<rscale>  0 0.15556347E+04</rscale>
<asrwt>0</asrwt>
<pdfrwt beam="1">  1        2 0.22088344E+00 0.15556347E+04</pdfrwt>
<pdfrwt beam="2">  1       -1 0.64828410E-01 0.15556347E+04</pdfrwt>
<totfact> 0.36520913E+01</totfact>
</mgrwt>
</event>
<event>
12    6  0.1510140E-007  0.1767896E+04  0.7818608E-02  0.8723561E-01
          2   -1    0    0  501    0  0.00000000000E+00  0.00000000000E+00  0.10920053175E+04  0.10920053175E+04  0.00000000000E+00 0. -1.
         -1   -1    0    0    0  501 -0.00000000000E+00 -0.00000000000E+00 -0.71553114243E+03  0.71553114243E+03  0.00000000000E+00 0.  1.
         24    2    1    2    0    0 -0.50581175419E+02 -0.55733782970E+03  0.53699963977E+03  0.77970176078E+03  0.79889366802E+02 0.  0.
        254    2    1    2    0    0  0.50581175419E+02  0.55733782970E+03 -0.16052546475E+03  0.10278346991E+04  0.84704889595E+03 0.  0.
         23    2    4    4    0    0  0.21125393378E+03  0.50748598355E+03  0.22365636212E+03  0.59869084930E+03  0.78983015129E+02 0.  0.
         23    2    4    4    0    0 -0.16067275837E+03  0.49851846151E+02 -0.38418182688E+03  0.42914384981E+03  0.90927585916E+02 0.  0.
          4    1    3    3  502    0 -0.32554964076E+02 -0.53753108635E+03  0.51090699402E+03  0.74231088569E+03  0.00000000000E+00 0. -1.
         -3    1    3    3    0  502 -0.18026211343E+02 -0.19806743348E+02  0.26092645748E+02  0.37390875084E+02  0.00000000000E+00 0.  1.
         11    1    5    5    0    0  0.38853524140E+02  0.12492151717E+03  0.88097801642E+02  0.15772192126E+03  0.00000000000E+00 0.  1.
        -11    1    5    5    0    0  0.17240040965E+03  0.38256446637E+03  0.13555856048E+03  0.44096892804E+03  0.00000000000E+00 0. -1.
          4    1    6    6  503    0 -0.15193078573E+03  0.57044832814E+02 -0.27453864050E+03  0.31891776641E+03  0.00000000000E+00 0. -1.
         -4    1    6    6    0  503 -0.87419726340E+01 -0.71929866631E+01 -0.10964318638E+03  0.11022608340E+03  0.00000000000E+00 0.  1.
<mgrwt>
<rscale>  0 0.17678957E+04</rscale>
<asrwt>0</asrwt>
<pdfrwt beam="1">  1        2 0.16800082E+00 0.17678957E+04</pdfrwt>
<pdfrwt beam="2">  1       -1 0.11008171E+00 0.17678957E+04</pdfrwt>
<totfact> 0.18125695E+01</totfact>
</mgrwt>
</event>
<event>
12    6  0.1510140E-007  0.2149176E+04  0.7818608E-02  0.8539885E-01
          2   -1    0    0  501    0  0.00000000000E+00  0.00000000000E+00  0.11569171172E+04  0.11569171172E+04  0.00000000000E+00 0. -1.
         -1   -1    0    0    0  501 -0.00000000000E+00 -0.00000000000E+00 -0.99811800551E+03  0.99811800551E+03  0.00000000000E+00 0.  1.
         24    2    1    2    0    0 -0.62798672697E+03  0.43024285643E+03  0.51669673414E+03  0.92305511022E+03  0.74692547590E+02 0.  0.
        254    2    1    2    0    0  0.62798672697E+03 -0.43024285643E+03 -0.35789762241E+03  0.12319800125E+04  0.90011543615E+03 0.  0.
         23    2    4    4    0    0 -0.89069855859E+02 -0.43692754546E+03 -0.11106300945E+03  0.46821769170E+03  0.89742384352E+02 0.  0.
         23    2    4    4    0    0  0.71705658283E+03  0.66846890255E+01 -0.24683461296E+03  0.76376232083E+03  0.90502643770E+02 0.  0.
          4    1    3    3  502    0 -0.46098127608E+03  0.33762760682E+03  0.41891645584E+03  0.70851050434E+03  0.00000000000E+00 0. -1.
         -3    1    3    3    0  502 -0.16700545089E+03  0.92615249611E+02  0.97780278300E+02  0.21454460588E+03  0.00000000000E+00 0.  1.
         11    1    5    5    0    0 -0.86380348281E+02 -0.19933243941E+03 -0.52767447540E+02  0.22356070650E+03  0.00000000000E+00 0. -1.
        -11    1    5    5    0    0 -0.26895075773E+01 -0.23759510604E+03 -0.58295561913E+02  0.24465698520E+03  0.00000000000E+00 0.  1.
          4    1    6    6  503    0  0.39317228655E+03 -0.39316438993E+02 -0.12076344285E+03  0.41317555399E+03  0.00000000000E+00 0. -1.
         -4    1    6    6    0  503  0.32388429627E+03  0.46001128018E+02 -0.12607117011E+03  0.35058676684E+03  0.00000000000E+00 0.  1.
<mgrwt>
<rscale>  0 0.21491764E+04</rscale>
<asrwt>0</asrwt>
<pdfrwt beam="1">  1        2 0.17798725E+00 0.21491764E+04</pdfrwt>
<pdfrwt beam="2">  1       -1 0.15355662E+00 0.21491764E+04</pdfrwt>
<totfact> 0.68894586E+00</totfact>
</mgrwt>
</event>
<event>
12    6  0.1510140E-007  0.1066294E+04  0.7818608E-02  0.9238682E-01
          2   -1    0    0  501    0  0.00000000000E+00  0.00000000000E+00  0.22925903914E+03  0.22925903914E+03  0.00000000000E+00 0. -1.
         -1   -1    0    0    0  501 -0.00000000000E+00 -0.00000000000E+00 -0.12398441814E+04  0.12398441814E+04  0.00000000000E+00 0.  1.
         24    2    1    2    0    0 -0.49721217069E+02 -0.11831156450E+03 -0.14661038804E+03  0.21226019318E+03  0.84201888377E+02 0.  0.
        254    2    1    2    0    0  0.49721217069E+02  0.11831156450E+03 -0.86397475422E+03  0.12568430274E+04  0.90373236845E+03 0.  0.
         23    2    4    4    0    0 -0.22752189280E+03 -0.17550743894E+02 -0.90028959283E+03  0.93327420052E+03  0.91679562021E+02 0.  0.
         23    2    4    4    0    0  0.27724310987E+03  0.13586230839E+03  0.36314838603E+02  0.32356882685E+03  0.89753603792E+02 0.  0.
          4    1    3    3  502    0  0.43797482209E+01 -0.78404391546E+01  0.97885957726E+01  0.13284249614E+02  0.00000000000E+00 0. -1.
         -3    1    3    3    0  502 -0.54100965290E+02 -0.11047112534E+03 -0.15639898381E+03  0.19897594356E+03  0.00000000000E+00 0.  1.
         11    1    5    5    0    0 -0.66400507063E+02 -0.14954377417E+02 -0.44789470034E+03  0.45303677923E+03  0.00000000000E+00 0.  1.
        -11    1    5    5    0    0 -0.16112138574E+03 -0.25963664763E+01 -0.45239489248E+03  0.48023742129E+03  0.00000000000E+00 0. -1.
          2    1    6    6  503    0  0.26855584600E+03  0.11473764332E+03  0.15154354489E+02  0.29243225485E+03  0.00000000000E+00 0. -1.
         -2    1    6    6    0  503  0.86872638687E+01  0.21124665072E+02  0.21160484115E+02  0.31136572000E+02  0.00000000000E+00 0.  1.
<mgrwt>
<rscale>  0 0.10662936E+04</rscale>
<asrwt>0</asrwt>
<pdfrwt beam="1">  1        2 0.35270621E-01 0.10662936E+04</pdfrwt>
<pdfrwt beam="2">  1       -1 0.19074526E+00 0.10662936E+04</pdfrwt>
<totfact> 0.29577591E+01</totfact>
</mgrwt>
</event>
<event>
12    6  0.1510140E-007  0.1768930E+04  0.7818608E-02  0.8722999E-01
         -1   -1    0    0    0  501 -0.00000000000E+00  0.00000000000E+00  0.11463023859E+04  0.11463023859E+04  0.00000000000E+00 0.  1.
          2   -1    0    0  501    0  0.00000000000E+00 -0.00000000000E+00 -0.68243643427E+03  0.68243643427E+03  0.00000000000E+00 0. -1.
         24    2    1    2    0    0  0.26856035009E+03 -0.40424620371E+03 -0.27225872869E+03  0.56112446647E+03  0.72084649275E+02 0.  0.
        254    2    1    2    0    0 -0.26856035009E+03  0.40424620371E+03  0.73612468036E+03  0.12676143537E+04  0.91072880153E+03 0.  0.
         23    2    4    4    0    0 -0.33575528420E+03  0.93403186291E+02 -0.94769484198E+02  0.37310920341E+03  0.93666730768E+02 0.  0.
         23    2    4    4    0    0  0.67194934110E+02  0.31084301742E+03  0.83089416455E+03  0.89450515034E+03  0.92821391069E+02 0.  0.
          4    1    3    3  502    0  0.16400095732E+03 -0.20253118459E+03 -0.11527469222E+03  0.28496218943E+03  0.00000000000E+00 0. -1.
         -3    1    3    3    0  502  0.10455939277E+03 -0.20171501912E+03 -0.15698403647E+03  0.27616227704E+03  0.00000000000E+00 0.  1.
         11    1    5    5    0    0 -0.55580722791E+02 -0.11748347434E+02  0.65053415088E+01  0.57180065421E+02  0.00000000000E+00 0. -1.
        -11    1    5    5    0    0 -0.28017456141E+03  0.10515153373E+03 -0.10127482571E+03  0.31592913799E+03  0.00000000000E+00 0.  1.
          1    1    6    6  503    0 -0.42822802177E+01  0.48804969613E+02  0.22873735536E+03  0.23392528875E+03  0.00000000000E+00 0. -1.
         -1    1    6    6    0  503  0.71477214328E+02  0.26203804781E+03  0.60215680920E+03  0.66057986158E+03  0.00000000000E+00 0.  1.
<mgrwt>
<rscale>  0 0.17689302E+04</rscale>
<asrwt>0</asrwt>
<pdfrwt beam="1">  1        2 0.10499022E+00 0.17689302E+04</pdfrwt>
<pdfrwt beam="2">  1       -1 0.17635421E+00 0.17689302E+04</pdfrwt>
<totfact> 0.10110117E+01</totfact>
</mgrwt>
</event>
<event>
12    6  0.1510140E-007  0.1597972E+04  0.7818608E-02  0.8821795E-01
          2   -1    0    0  501    0  0.00000000000E+00  0.00000000000E+00  0.86822004580E+03  0.86822004580E+03  0.00000000000E+00 0. -1.
         -1   -1    0    0    0  501 -0.00000000000E+00 -0.00000000000E+00 -0.73527288804E+03  0.73527288804E+03  0.00000000000E+00 0.  1.
         24    2    1    2    0    0 -0.50273571334E+02 -0.49151162238E+03  0.27004730025E+03  0.56903958305E+03  0.82276338056E+02 0.  0.
        254    2    1    2    0    0  0.50273571334E+02  0.49151162238E+03 -0.13710014249E+03  0.10344533508E+04  0.89843540612E+03 0.  0.
         23    2    4    4    0    0 -0.20296648095E+03  0.46427427908E+03  0.24203974392E+03  0.56877723025E+03  0.90433961653E+02 0.  0.
         23    2    4    4    0    0  0.25324005228E+03  0.27237343300E+02 -0.37913988640E+03  0.46567612053E+03  0.90745792330E+02 0.  0.
          4    1    3    3  502    0  0.13887765713E+02 -0.20432715265E+03  0.13481463223E+03  0.24518858132E+03  0.00000000000E+00 0. -1.
         -3    1    3    3    0  502 -0.64161337047E+02 -0.28718446972E+03  0.13523266802E+03  0.32385100173E+03  0.00000000000E+00 0.  1.
         11    1    5    5    0    0 -0.49336653322E+02  0.46703558162E+02  0.49035934176E+02  0.83784548376E+02  0.00000000000E+00 0. -1.
        -11    1    5    5    0    0 -0.15362982762E+03  0.41757072091E+03  0.19300380974E+03  0.48499268188E+03  0.00000000000E+00 0.  1.
          1    1    6    6  503    0  0.17299541350E+02 -0.98304549571E+00  0.10246489733E+01  0.17357719173E+02  0.00000000000E+00 0. -1.
         -1    1    6    6    0  503  0.23594051093E+03  0.28220388796E+02 -0.38016453537E+03  0.44831840136E+03  0.00000000000E+00 0.  1.
<mgrwt>
<rscale>  0 0.15979720E+04</rscale>
<asrwt>0</asrwt>
<pdfrwt beam="1">  1        2 0.13357231E+00 0.15979720E+04</pdfrwt>
<pdfrwt beam="2">  1       -1 0.11311891E+00 0.15979720E+04</pdfrwt>
<totfact> 0.24103436E+01</totfact>
</mgrwt>
</event>
<event>
12    6  0.1510140E-007  0.1827490E+04  0.7818608E-02  0.8691816E-01
          2   -1    0    0  501    0  0.00000000000E+00  0.00000000000E+00  0.21279319096E+04  0.21279319096E+04  0.00000000000E+00 0. -1.
         -1   -1    0    0    0  501 -0.00000000000E+00 -0.00000000000E+00 -0.39236684401E+03  0.39236684401E+03  0.00000000000E+00 0.  1.
         24    2    1    2    0    0  0.14429879883E+03 -0.31323664725E+03 -0.16386513398E+03  0.38987338884E+03  0.78804420322E+02 0.  0.
        254    2    1    2    0    0 -0.14429879883E+03  0.31323664725E+03  0.18994301996E+04  0.21304253648E+04  0.90107591873E+03 0.  0.
         23    2    4    4    0    0  0.13217154590E+03 -0.26671627505E+03  0.71023853031E+03  0.77555606540E+03  0.91877917494E+02 0.  0.
         23    2    4    4    0    0 -0.27647034473E+03  0.57995292230E+03  0.11891916693E+04  0.13548692994E+04  0.93342104936E+02 0.  0.
          2    1    3    3  502    0  0.11190431500E+03 -0.23291160136E+03 -0.83060160158E+02  0.27142103818E+03  0.00000000000E+00 0. -1.
         -1    1    3    3    0  502  0.32394483828E+02 -0.80325045896E+02 -0.80804973826E+02  0.11845235065E+03  0.00000000000E+00 0.  1.
         11    1    5    5    0    0  0.11322722483E+03 -0.25401161545E+03  0.69373286328E+03  0.74740055581E+03  0.00000000000E+00 0.  1.
        -11    1    5    5    0    0  0.18944321071E+02 -0.12704659597E+02  0.16505667026E+02  0.28155509590E+02  0.00000000000E+00 0. -1.
          4    1    6    6  503    0 -0.58276653276E+02  0.82291563352E+02  0.13102441281E+03  0.16533440800E+03  0.00000000000E+00 0. -1.
         -4    1    6    6    0  503 -0.21819369146E+03  0.49766135895E+03  0.10581672565E+04  0.11895348914E+04  0.00000000000E+00 0.  1.
<mgrwt>
<rscale>  0 0.18274900E+04</rscale>
<asrwt>0</asrwt>
<pdfrwt beam="1">  1        2 0.32737413E+00 0.18274900E+04</pdfrwt>
<pdfrwt beam="2">  1       -1 0.60364131E-01 0.18274900E+04</pdfrwt>
<totfact> 0.16922504E+01</totfact>
</mgrwt>
</event>
<event>
12    6  0.1510140E-007  0.2238550E+04  0.7818608E-02  0.8502552E-01
         -1   -1    0    0    0  501 -0.00000000000E+00  0.00000000000E+00  0.27446655287E+04  0.27446655287E+04  0.00000000000E+00 0.  1.
          2   -1    0    0  501    0  0.00000000000E+00 -0.00000000000E+00 -0.45644031106E+03  0.45644031106E+03  0.00000000000E+00 0. -1.
         24    2    1    2    0    0  0.41946583881E+03  0.82147771297E+03  0.79300175962E+03  0.12189093678E+04  0.78173098425E+02 0.  0.
        254    2    1    2    0    0 -0.41946583881E+03 -0.82147771297E+03  0.14952234581E+04  0.19821964720E+04  0.91795013002E+03 0.  0.
         23    2    4    4    0    0 -0.22794083057E+03 -0.99508229925E+03  0.12196500434E+04  0.15930680156E+04  0.90408348373E+02 0.  0.
         23    2    4    4    0    0 -0.19152500824E+03  0.17360458628E+03  0.27557341469E+03  0.38912845641E+03  0.93058409323E+02 0.  0.
          2    1    3    3  502    0  0.38110004362E+03  0.69861244057E+03  0.70308751705E+03  0.10618986025E+04  0.00000000000E+00 0. -1.
         -1    1    3    3    0  502  0.38365795197E+02  0.12286527241E+03  0.89914242571E+02  0.15701076531E+03  0.00000000000E+00 0.  1.
         11    1    5    5    0    0 -0.12572483766E+03 -0.64033505370E+03  0.71834389501E+03  0.97049145658E+03  0.00000000000E+00 0.  1.
        -11    1    5    5    0    0 -0.10221599291E+03 -0.35474724555E+03  0.50130614836E+03  0.62257655900E+03  0.00000000000E+00 0. -1.
          1    1    6    6  503    0  0.24212458626E+01  0.16714261575E+02 -0.69125603047E+00  0.16902863853E+02  0.00000000000E+00 0. -1.
         -1    1    6    6    0  503 -0.19394625411E+03  0.15689032470E+03  0.27626467073E+03  0.37222559256E+03  0.00000000000E+00 0.  1.
<mgrwt>
<rscale>  0 0.22385495E+04</rscale>
<asrwt>0</asrwt>
<pdfrwt beam="1">  1        2 0.70221588E-01 0.22385495E+04</pdfrwt>
<pdfrwt beam="2">  1       -1 0.42225622E+00 0.22385495E+04</pdfrwt>
<totfact> 0.35832526E-01</totfact>
</mgrwt>
</event>
<event>
12    6  0.1510140E-007  0.1095640E+04  0.7818608E-02  0.9209452E-01
         -1   -1    0    0    0  501 -0.00000000000E+00  0.00000000000E+00  0.30717488781E+03  0.30717488781E+03  0.00000000000E+00 0.  1.
          2   -1    0    0  501    0  0.00000000000E+00 -0.00000000000E+00 -0.97698911710E+03  0.97698911710E+03  0.00000000000E+00 0. -1.
         24    2    1    2    0    0 -0.38093342183E+02 -0.49609880516E+02  0.61879128502E+02  0.11926051579E+03  0.80509633706E+02 0.  0.
        254    2    1    2    0    0  0.38093342183E+02  0.49609880516E+02 -0.73169335780E+03  0.11649034891E+04  0.90427469618E+03 0.  0.
         23    2    4    4    0    0  0.28801669136E+03 -0.32235840921E+03 -0.28227741785E+03  0.52364627365E+03  0.87500404547E+02 0.  0.
         23    2    4    4    0    0 -0.24992334917E+03  0.37196828973E+03 -0.44941593995E+03  0.64125721546E+03  0.91728077890E+02 0.  0.
          2    1    3    3  502    0  0.97160827612E+01 -0.51191970597E+02  0.20438677456E+02  0.55971060862E+02  0.00000000000E+00 0. -1.
         -1    1    3    3    0  502 -0.47809424944E+02  0.15820900811E+01  0.41440451045E+02  0.63289454930E+02  0.00000000000E+00 0.  1.
         11    1    5    5    0    0  0.92135888179E+01 -0.50214018163E+02 -0.39952738926E+02  0.64827148531E+02  0.00000000000E+00 0. -1.
        -11    1    5    5    0    0  0.27880310254E+03 -0.27214439105E+03 -0.24232467892E+03  0.45881912512E+03  0.00000000000E+00 0.  1.
          3    1    6    6  503    0 -0.20674260718E+03  0.24983669578E+03 -0.35593921055E+03  0.48151178780E+03  0.00000000000E+00 0. -1.
         -3    1    6    6    0  503 -0.43180741990E+02  0.12213159395E+03 -0.93476729401E+02  0.15974542766E+03  0.00000000000E+00 0.  1.
<mgrwt>
<rscale>  0 0.10956396E+04</rscale>
<asrwt>0</asrwt>
<pdfrwt beam="1">  1        2 0.15030602E+00 0.10956396E+04</pdfrwt>
<pdfrwt beam="2">  1       -1 0.47257675E-01 0.10956396E+04</pdfrwt>
<totfact> 0.13183970E+02</totfact>
</mgrwt>
</event>
<event>
12    6  0.1510140E-007  0.1303180E+04  0.7818608E-02  0.9027047E-01
         -1   -1    0    0    0  501 -0.00000000000E+00  0.00000000000E+00  0.40399031093E+03  0.40399031093E+03  0.00000000000E+00 0.  1.
          2   -1    0    0  501    0  0.00000000000E+00 -0.00000000000E+00 -0.10509398616E+04  0.10509398616E+04  0.00000000000E+00 0. -1.
         24    2    1    2    0    0  0.31162987820E+03 -0.92688034063E+02 -0.27953027286E+03  0.43625321315E+03  0.80470117977E+02 0.  0.
        254    2    1    2    0    0 -0.31162987820E+03  0.92688034063E+02 -0.36741927783E+03  0.10186769594E+04  0.89274944371E+03 0.  0.
         23    2    4    4    0    0  0.16794974045E+03  0.79891165266E+02 -0.47491136924E+03  0.51832762325E+03  0.92374253934E+02 0.  0.
         23    2    4    4    0    0 -0.47957961865E+03  0.12796868798E+02  0.10749209141E+03  0.50034933614E+03  0.92922214697E+02 0.  0.
          2    1    3    3  502    0  0.15526419444E+02 -0.20466559376E+02 -0.52396104305E+01  0.26218376588E+02  0.00000000000E+00 0. -1.
         -1    1    3    3    0  502  0.29610345876E+03 -0.72221474688E+02 -0.27429066243E+03  0.41003483656E+03  0.00000000000E+00 0.  1.
         11    1    5    5    0    0  0.50827612349E+02  0.73524184925E+02 -0.23064031924E+03  0.24735441942E+03  0.00000000000E+00 0.  1.
        -11    1    5    5    0    0  0.11712212810E+03  0.63669803403E+01 -0.24427105000E+03  0.27097320384E+03  0.00000000000E+00 0. -1.
          2    1    6    6  503    0 -0.22052680893E+03  0.77022306212E+01  0.22071239987E+01  0.22067231184E+03  0.00000000000E+00 0. -1.
         -2    1    6    6    0  503 -0.25905280972E+03  0.50946381766E+01  0.10528496741E+03  0.27967702431E+03  0.00000000000E+00 0.  1.
<mgrwt>
<rscale>  0 0.13031800E+04</rscale>
<asrwt>0</asrwt>
<pdfrwt beam="1">  1        2 0.16168305E+00 0.13031800E+04</pdfrwt>
<pdfrwt beam="2">  1       -1 0.62152356E-01 0.13031800E+04</pdfrwt>
<totfact> 0.68610893E+01</totfact>
</mgrwt>
</event>
<event>
12    6  0.1510140E-007  0.1575005E+04  0.7818608E-02  0.8836052E-01
         -1   -1    0    0    0  501 -0.00000000000E+00  0.00000000000E+00  0.10074600326E+04  0.10074600326E+04  0.00000000000E+00 0.  1.
          2   -1    0    0  501    0  0.00000000000E+00 -0.00000000000E+00 -0.61556839577E+03  0.61556839577E+03  0.00000000000E+00 0. -1.
         24    2    1    2    0    0 -0.30671454501E+03  0.22855927529E+03 -0.24164552707E+03  0.45946647670E+03  0.80023296725E+02 0.  0.
        254    2    1    2    0    0  0.30671454501E+03 -0.22855927529E+03  0.63353716390E+03  0.11635619517E+04  0.89788302295E+03 0.  0.
         23    2    4    4    0    0  0.57290332637E+03 -0.30870012628E+03  0.30829774322E+03  0.72610102978E+03  0.93065663058E+02 0.  0.
         23    2    4    4    0    0 -0.26618878136E+03  0.80140850990E+02  0.32523942068E+03  0.43746092189E+03  0.91172112489E+02 0.  0.
          4    1    3    3  502    0 -0.23855514429E+03  0.21444262969E+03 -0.19030644443E+03  0.37297552344E+03  0.00000000000E+00 0. -1.
         -3    1    3    3    0  502 -0.68159400716E+02  0.14116645599E+02 -0.51339082644E+02  0.86490953259E+02  0.00000000000E+00 0.  1.
         11    1    5    5    0    0  0.50739623458E+03 -0.23661983067E+03  0.25717448057E+03  0.61609950218E+03  0.00000000000E+00 0.  1.
        -11    1    5    5    0    0  0.65507091793E+02 -0.72080295607E+02  0.51123262652E+02  0.11000152760E+03  0.00000000000E+00 0. -1.
          3    1    6    6  503    0 -0.55817756105E+01 -0.13460193882E+02  0.25659512786E+02  0.29508365503E+02  0.00000000000E+00 0. -1.
         -3    1    6    6    0  503 -0.26060700575E+03  0.93601044872E+02  0.29957990790E+03  0.40795255639E+03  0.00000000000E+00 0.  1.
<mgrwt>
<rscale>  0 0.15750055E+04</rscale>
<asrwt>0</asrwt>
<pdfrwt beam="1">  1        2 0.94702830E-01 0.15750055E+04</pdfrwt>
<pdfrwt beam="2">  1       -1 0.15499385E+00 0.15750055E+04</pdfrwt>
<totfact> 0.16842703E+01</totfact>
</mgrwt>
</event>
<event>
12    6  0.1510140E-007  0.1311236E+04  0.7818608E-02  0.9020702E-01
         -1   -1    0    0    0  501 -0.00000000000E+00  0.00000000000E+00  0.21694442699E+03  0.21694442699E+03  0.00000000000E+00 0.  1.
          2   -1    0    0  501    0  0.00000000000E+00 -0.00000000000E+00 -0.19813128218E+04  0.19813128218E+04  0.00000000000E+00 0. -1.
         24    2    1    2    0    0 -0.20121549946E+03  0.71470543649E+02 -0.37788421602E+02  0.23078487969E+03  0.78980884108E+02 0.  0.
        254    2    1    2    0    0  0.20121549946E+03 -0.71470543649E+02 -0.17265799732E+04  0.19674723692E+04  0.91884351416E+03 0.  0.
         23    2    4    4    0    0 -0.50014202545E+02 -0.89048127750E+02 -0.16914190023E+04  0.16969878656E+04  0.91861771158E+02 0.  0.
         23    2    4    4    0    0  0.25122970200E+03  0.17577584101E+02 -0.35160970900E+02  0.27048450354E+03  0.92196736129E+02 0.  0.
          2    1    3    3  502    0 -0.33559195509E+02  0.36551433247E+02  0.14552449920E+02  0.51710740415E+02  0.00000000000E+00 0. -1.
         -1    1    3    3    0  502 -0.16765630395E+03  0.34919110402E+02 -0.52340871522E+02  0.17907413927E+03  0.00000000000E+00 0.  1.
         11    1    5    5    0    0 -0.29616913744E+02 -0.58616393553E+02 -0.42545628760E+03  0.43049517515E+03  0.00000000000E+00 0.  1.
        -11    1    5    5    0    0 -0.20397288801E+02 -0.30431734198E+02 -0.12659627148E+04  0.12664926905E+04  0.00000000000E+00 0. -1.
          1    1    6    6  503    0  0.28412497334E+02  0.76430798273E+01  0.25943754366E+02  0.39227096051E+02  0.00000000000E+00 0. -1.
         -1    1    6    6    0  503  0.22281720467E+03  0.99345042741E+01 -0.61104725266E+02  0.23125740749E+03  0.00000000000E+00 0.  1.
<mgrwt>
<rscale>  0 0.13112357E+04</rscale>
<asrwt>0</asrwt>
<pdfrwt beam="1">  1        2 0.30481737E+00 0.13112357E+04</pdfrwt>
<pdfrwt beam="2">  1       -1 0.33376065E-01 0.13112357E+04</pdfrwt>
<totfact> 0.64550736E+01</totfact>
</mgrwt>
</event>
<event>
12    6  0.1705155E-007  0.2502778E+04  0.7818608E-02  0.8401996E-01
         -1   -1    0    0    0  501 -0.00000000000E+00  0.00000000000E+00  0.10712033668E+04  0.10712033668E+04  0.00000000000E+00 0.  1.
          2   -1    0    0  501    0  0.00000000000E+00 -0.00000000000E+00 -0.14618838128E+04  0.14618838128E+04  0.00000000000E+00 0. -1.
         24    2    1    2    0    0  0.49277644765E+03  0.16242309181E+02 -0.11443104795E+04  0.12485916326E+04  0.80263015729E+02 0.  0.
        254    2    1    2    0    0 -0.49277644765E+03 -0.16242309181E+02  0.75363003346E+03  0.12844955469E+04  0.91590291116E+03 0.  0.
         23    2    4    4    0    0 -0.16778958379E+03  0.23099687081E+03  0.80924290024E+03  0.86341186387E+03  0.95357623376E+02 0.  0.
         23    2    4    4    0    0 -0.32498686386E+03 -0.24723917999E+03 -0.55612866784E+02  0.42108368301E+03  0.86458101652E+02 0.  0.
          4    1    3    3  502    0  0.46195840367E+03  0.21105216737E+02 -0.10119967098E+04  0.11126492428E+04  0.00000000000E+00 0. -1.
         -3    1    3    3    0  502  0.30818043982E+02 -0.48629075565E+01 -0.13231376970E+03  0.13594238984E+03  0.00000000000E+00 0.  1.
         11    1    5    5    0    0 -0.15160559508E+03  0.22724384821E+03  0.79771051783E+03  0.84318805333E+03  0.00000000000E+00 0. -1.
        -11    1    5    5    0    0 -0.16183988706E+02  0.37530226036E+01  0.11532382406E+02  0.20223810548E+02  0.00000000000E+00 0.  1.
          4    1    6    6  503    0 -0.26076783531E+03 -0.23397916814E+03 -0.59618295203E+02  0.35538775468E+03  0.00000000000E+00 0. -1.
         -4    1    6    6    0  503 -0.64219028548E+02 -0.13260011855E+02  0.40054284194E+01  0.65695928328E+02  0.00000000000E+00 0.  1.
<mgrwt>
<rscale>  0 0.25027783E+04</rscale>
<asrwt>0</asrwt>
<pdfrwt beam="1">  1        2 0.22490520E+00 0.25027783E+04</pdfrwt>
<pdfrwt beam="2">  1       -1 0.16480052E+00 0.25027783E+04</pdfrwt>
<totfact> 0.36439508E+00</totfact>
</mgrwt>
</event>
<event>
12    6  0.1510140E-007  0.2045263E+04  0.7818608E-02  0.8585746E-01
         -1   -1    0    0    0  501 -0.00000000000E+00  0.00000000000E+00  0.76895443878E+03  0.76895443878E+03  0.00000000000E+00 0.  1.
          2   -1    0    0  501    0  0.00000000000E+00 -0.00000000000E+00 -0.13599966274E+04  0.13599966274E+04  0.00000000000E+00 0. -1.
         24    2    1    2    0    0  0.38573645152E+03  0.72837487200E+03  0.25681863598E+02  0.82846872204E+03  0.79864266617E+02 0.  0.
        254    2    1    2    0    0 -0.38573645152E+03 -0.72837487200E+03 -0.61672405224E+03  0.13004823442E+04  0.79472209400E+03 0.  0.
         23    2    4    4    0    0  0.19042301199E+03 -0.26052911763E+03 -0.39523392103E+03  0.52035044536E+03  0.10207051009E+03 0.  0.
         23    2    4    4    0    0 -0.57615946351E+03 -0.46784575437E+03 -0.22149013121E+03  0.78013189881E+03  0.93319472983E+02 0.  0.
          4    1    3    3  502    0  0.37197871707E+02  0.90090881122E+02 -0.21079935509E+02  0.99721673682E+02  0.00000000000E+00 0. -1.
         -3    1    3    3    0  502  0.34853857982E+03  0.63828399088E+03  0.46761799107E+02  0.72874704836E+03  0.00000000000E+00 0.  1.
         11    1    5    5    0    0  0.19803282032E+03 -0.25026951731E+03 -0.39467703202E+03  0.50756456616E+03  0.00000000000E+00 0. -1.
        -11    1    5    5    0    0 -0.76098083334E+01 -0.10259600322E+02 -0.55688901026E+00  0.12785879203E+02  0.00000000000E+00 0.  1.
          3    1    6    6  503    0 -0.23361578030E+03 -0.23968202738E+03 -0.72837429522E+02  0.34253335340E+03  0.00000000000E+00 0. -1.
         -3    1    6    6    0  503 -0.34254368321E+03 -0.22816372700E+03 -0.14865270168E+03  0.43759854540E+03  0.00000000000E+00 0.  1.
<mgrwt>
<rscale>  0 0.20452633E+04</rscale>
<asrwt>0</asrwt>
<pdfrwt beam="1">  1        2 0.20923025E+00 0.20452633E+04</pdfrwt>
<pdfrwt beam="2">  1       -1 0.11830068E+00 0.20452633E+04</pdfrwt>
<totfact> 0.10319589E+01</totfact>
</mgrwt>
</event>
<event>
12    6  0.1510140E-007  0.1413481E+04  0.7818608E-02  0.8944118E-01
         -1   -1    0    0    0  501 -0.00000000000E+00  0.00000000000E+00  0.13954278329E+03  0.13954278329E+03  0.00000000000E+00 0.  1.
          2   -1    0    0  501    0  0.00000000000E+00 -0.00000000000E+00 -0.35794207805E+04  0.35794207805E+04  0.00000000000E+00 0. -1.
         24    2    1    2    0    0 -0.18960361831E+03  0.21636328989E+03 -0.19625848463E+04  0.19852559487E+04  0.82093226889E+02 0.  0.
        254    2    1    2    0    0  0.18960361831E+03 -0.21636328989E+03 -0.14772931509E+04  0.17337076150E+04  0.86057215583E+03 0.  0.
         23    2    4    4    0    0 -0.24432361486E+03 -0.16942414080E+03 -0.11201117424E+04  0.11624774667E+04  0.91131645636E+02 0.  0.
         23    2    4    4    0    0  0.43392723317E+03 -0.46939149091E+02 -0.35718140850E+03  0.57123014833E+03  0.90714918186E+02 0.  0.
          4    1    3    3  502    0 -0.11511022048E+03  0.17913034030E+03 -0.15278923278E+04  0.15426577738E+04  0.00000000000E+00 0. -1.
         -1    1    3    3    0  502 -0.74493397833E+02  0.37232949591E+02 -0.43469251843E+03  0.44259817491E+03  0.00000000000E+00 0.  1.
         11    1    5    5    0    0  0.19672656203E+01 -0.16249914869E+02 -0.27291362396E+02  0.31823707023E+02  0.00000000000E+00 0. -1.
        -11    1    5    5    0    0 -0.24629088048E+03 -0.15317422593E+03 -0.10928203800E+04  0.11306537597E+04  0.00000000000E+00 0.  1.
          2    1    6    6  503    0  0.16262674549E+02 -0.96367734741E+01  0.21214125764E+01  0.19022154920E+02  0.00000000000E+00 0. -1.
         -2    1    6    6    0  503  0.41766455862E+03 -0.37302375616E+02 -0.35930282108E+03  0.55220799341E+03  0.00000000000E+00 0.  1.
<mgrwt>
<rscale>  0 0.14134813E+04</rscale>
<asrwt>0</asrwt>
<pdfrwt beam="1">  1        2 0.55068016E+00 0.14134813E+04</pdfrwt>
<pdfrwt beam="2">  1       -1 0.21468119E-01 0.14134813E+04</pdfrwt>
<totfact> 0.14625213E+01</totfact>
</mgrwt>
</event>
<event>
12    6  0.1510140E-007  0.2306935E+04  0.7818608E-02  0.8475192E-01
         -1   -1    0    0    0  501 -0.00000000000E+00  0.00000000000E+00  0.21659380299E+04  0.21659380299E+04  0.00000000000E+00 0.  1.
          2   -1    0    0  501    0  0.00000000000E+00 -0.00000000000E+00 -0.61427738756E+03  0.61427738756E+03  0.00000000000E+00 0. -1.
         24    2    1    2    0    0 -0.57627139671E+03 -0.34115082308E+03  0.15192526256E+04  0.16623818846E+04  0.83140742632E+02 0.  0.
        254    2    1    2    0    0  0.57627139671E+03  0.34115082308E+03  0.32408016790E+02  0.11178335329E+04  0.89444335818E+03 0.  0.
         23    2    4    4    0    0  0.44273923524E+03  0.62885479970E+03  0.98073410960E+02  0.78161882827E+03  0.99162539491E+02 0.  0.
         23    2    4    4    0    0  0.13353216148E+03 -0.28770397663E+03 -0.65665394170E+02  0.33621470465E+03  0.90133053383E+02 0.  0.
          4    1    3    3  502    0 -0.73411464579E+02 -0.60653124876E+02  0.15990546181E+03  0.18611233545E+03  0.00000000000E+00 0. -1.
         -3    1    3    3    0  502 -0.50285993213E+03 -0.28049769820E+03  0.13593471638E+04  0.14762695491E+04  0.00000000000E+00 0.  1.
         11    1    5    5    0    0  0.37867084621E+03  0.48950009665E+03  0.50016476460E+02  0.62088936399E+03  0.00000000000E+00 0.  1.
        -11    1    5    5    0    0  0.64068389021E+02  0.13935470305E+03  0.48056934500E+02  0.16072946428E+03  0.00000000000E+00 0. -1.
          2    1    6    6  503    0  0.10735573466E+01 -0.99988426050E+02 -0.19453965538E+02  0.10186900728E+03  0.00000000000E+00 0. -1.
         -2    1    6    6    0  503  0.13245860413E+03 -0.18771555058E+03 -0.46211428632E+02  0.23434569736E+03  0.00000000000E+00 0.  1.
<mgrwt>
<rscale>  0 0.23069346E+04</rscale>
<asrwt>0</asrwt>
<pdfrwt beam="1">  1        2 0.94504215E-01 0.23069346E+04</pdfrwt>
<pdfrwt beam="2">  1       -1 0.33322123E+00 0.23069346E+04</pdfrwt>
<totfact> 0.99997877E-01</totfact>
</mgrwt>
</event>
<event>
12    6  0.1510140E-007  0.2224150E+04  0.7818608E-02  0.8508443E-01
          2   -1    0    0  501    0  0.00000000000E+00  0.00000000000E+00  0.98590454124E+03  0.98590454124E+03  0.00000000000E+00 0. -1.
         -1   -1    0    0    0  501 -0.00000000000E+00 -0.00000000000E+00 -0.12543922163E+04  0.12543922163E+04  0.00000000000E+00 0.  1.
         24    2    1    2    0    0  0.46898175907E+02  0.13702557554E+03  0.79572651648E+03  0.81252602378E+03  0.77732895489E+02 0.  0.
        254    2    1    2    0    0 -0.46898175907E+02 -0.13702557554E+03 -0.10642141916E+04  0.14277707338E+04  0.94074543608E+03 0.  0.
         23    2    4    4    0    0 -0.41698044130E+03 -0.21857673144E+02 -0.19368330685E+03  0.47042366374E+03  0.97132660626E+02 0.  0.
         23    2    4    4    0    0  0.37008226539E+03 -0.11516790239E+03 -0.87053088473E+03  0.95734707006E+03  0.92004686780E+02 0.  0.
          2    1    3    3  502    0  0.41652426197E+02  0.23704872421E+02  0.17127325953E+03  0.17785211558E+03  0.00000000000E+00 0. -1.
         -1    1    3    3    0  502  0.52457497106E+01  0.11332070312E+03  0.62445325695E+03  0.63467390820E+03  0.00000000000E+00 0.  1.
         11    1    5    5    0    0 -0.20438722653E+03  0.37893990705E+02 -0.94375481707E+02  0.22829109586E+03  0.00000000000E+00 0. -1.
        -11    1    5    5    0    0 -0.21259321477E+03 -0.59751663850E+02 -0.99307825140E+02  0.24213256789E+03  0.00000000000E+00 0.  1.
          3    1    6    6  503    0  0.44738818038E+02 -0.48987711191E+02 -0.14255150440E+03  0.15723323152E+03  0.00000000000E+00 0. -1.
         -3    1    6    6    0  503  0.32534344735E+03 -0.66180191201E+02 -0.72797938032E+03  0.80011383853E+03  0.00000000000E+00 0.  1.
<mgrwt>
<rscale>  0 0.22241502E+04</rscale>
<asrwt>0</asrwt>
<pdfrwt beam="1">  1        2 0.15167762E+00 0.22241502E+04</pdfrwt>
<pdfrwt beam="2">  1       -1 0.19298342E+00 0.22241502E+04</pdfrwt>
<totfact> 0.45060562E+00</totfact>
</mgrwt>
</event>
<event>
12    6  0.1510140E-007  0.1651646E+04  0.7818608E-02  0.8789433E-01
         -1   -1    0    0    0  501 -0.00000000000E+00  0.00000000000E+00  0.46280997477E+03  0.46280997477E+03  0.00000000000E+00 0.  1.
          2   -1    0    0  501    0  0.00000000000E+00 -0.00000000000E+00 -0.14735711776E+04  0.14735711776E+04  0.00000000000E+00 0. -1.
         24    2    1    2    0    0 -0.43093540198E+03 -0.25322117212E+03 -0.18800321478E+02  0.50630502245E+03  0.78517774923E+02 0.  0.
        254    2    1    2    0    0  0.43093540198E+03  0.25322117212E+03 -0.99196088132E+03  0.14300761299E+04  0.90072474402E+03 0.  0.
         23    2    4    4    0    0 -0.12420272885E+02  0.25090089381E+03  0.69356290721E+02  0.27621659457E+03  0.91541194868E+02 0.  0.
         23    2    4    4    0    0  0.44335567487E+03  0.23202783085E+01 -0.10613171720E+04  0.11538595353E+04  0.91804408555E+02 0.  0.
          2    1    3    3  502    0 -0.71904475132E+02 -0.61661813156E+02  0.22253426424E+02  0.97301838283E+02  0.00000000000E+00 0. -1.
         -1    1    3    3    0  502 -0.35903092685E+03 -0.19155935897E+03 -0.41053747902E+02  0.40900318417E+03  0.00000000000E+00 0.  1.
         11    1    5    5    0    0 -0.48794055622E+02  0.15989046636E+03  0.60604991533E+02  0.17781672052E+03  0.00000000000E+00 0. -1.
        -11    1    5    5    0    0  0.36373782738E+02  0.91010427452E+02  0.87512991881E+01  0.98399874051E+02  0.00000000000E+00 0.  1.
          3    1    6    6  503    0  0.86557383153E+02 -0.42148639409E+01 -0.12735470440E+03  0.15404274209E+03  0.00000000000E+00 0. -1.
         -3    1    6    6    0  503  0.35679829171E+03  0.65351422494E+01 -0.93396246764E+03  0.99981679323E+03  0.00000000000E+00 0.  1.
<mgrwt>
<rscale>  0 0.16516458E+04</rscale>
<asrwt>0</asrwt>
<pdfrwt beam="1">  1        2 0.22670326E+00 0.16516458E+04</pdfrwt>
<pdfrwt beam="2">  1       -1 0.71201535E-01 0.16516458E+04</pdfrwt>
<totfact> 0.28488046E+01</totfact>
</mgrwt>
</event>
<event>
12    6  0.1510140E-007  0.1856830E+04  0.7818608E-02  0.8676648E-01
         -1   -1    0    0    0  501 -0.00000000000E+00  0.00000000000E+00  0.72317517918E+03  0.72317517918E+03  0.00000000000E+00 0.  1.
          2   -1    0    0  501    0  0.00000000000E+00 -0.00000000000E+00 -0.11919025916E+04  0.11919025916E+04  0.00000000000E+00 0. -1.
         24    2    1    2    0    0  0.24180198518E+03 -0.62581019216E+03 -0.40900935416E+03  0.78976955276E+03  0.79628500155E+02 0.  0.
        254    2    1    2    0    0 -0.24180198518E+03  0.62581019216E+03 -0.59718058246E+02  0.11253082180E+04  0.90146865856E+03 0.  0.
         23    2    4    4    0    0  0.22830031746E+03  0.59493001502E+03 -0.54970525731E+02  0.64553059374E+03  0.87322568881E+02 0.  0.
         23    2    4    4    0    0 -0.47010230264E+03  0.30880177142E+02 -0.47475325152E+01  0.47977762426E+03  0.90632606672E+02 0.  0.
          2    1    3    3  502    0  0.16581188367E+03 -0.49764241518E+03 -0.34349429586E+03  0.62700070610E+03  0.00000000000E+00 0. -1.
         -1    1    3    3    0  502  0.75990101504E+02 -0.12816777698E+03 -0.65515058298E+02  0.16276884667E+03  0.00000000000E+00 0.  1.
         11    1    5    5    0    0  0.11573063566E+03  0.32042594826E+03  0.13841215600E+02  0.34096619715E+03  0.00000000000E+00 0. -1.
        -11    1    5    5    0    0  0.11256968180E+03  0.27450406676E+03 -0.68811741331E+02  0.30456439659E+03  0.00000000000E+00 0.  1.
          3    1    6    6  503    0 -0.18381948426E+03  0.22479931917E+02 -0.44943680008E+02  0.19056464652E+03  0.00000000000E+00 0. -1.
         -3    1    6    6    0  503 -0.28628281838E+03  0.84002452254E+01  0.40196147493E+02  0.28921297774E+03  0.00000000000E+00 0.  1.
<mgrwt>
<rscale>  0 0.18568300E+04</rscale>
<asrwt>0</asrwt>
<pdfrwt beam="1">  1        2 0.18336963E+00 0.18568300E+04</pdfrwt>
<pdfrwt beam="2">  1       -1 0.11125772E+00 0.18568300E+04</pdfrwt>
<totfact> 0.15249172E+01</totfact>
</mgrwt>
</event>
<event>
12    6  0.1510140E-007  0.1073209E+04  0.7818608E-02  0.9231705E-01
          2   -1    0    0  501    0  0.00000000000E+00  0.00000000000E+00  0.17966205515E+04  0.17966205515E+04  0.00000000000E+00 0. -1.
         -1   -1    0    0    0  501 -0.00000000000E+00 -0.00000000000E+00 -0.16026993474E+03  0.16026993474E+03  0.00000000000E+00 0.  1.
         24    2    1    2    0    0 -0.11105537972E+03 -0.24703934402E+02  0.83620761461E+02  0.16199709264E+03  0.79416903348E+02 0.  0.
        254    2    1    2    0    0  0.11105537972E+03  0.24703934402E+02  0.15527298553E+04  0.17948933936E+04  0.89315659834E+03 0.  0.
         23    2    4    4    0    0  0.25922123338E+03  0.92090154465E+02  0.15789903788E+04  0.16053219952E+04  0.90398272051E+02 0.  0.
         23    2    4    4    0    0 -0.14816585366E+03 -0.67386220062E+02 -0.26260523485E+02  0.18957139841E+03  0.93561087833E+02 0.  0.
          2    1    3    3  502    0 -0.12068479057E+03 -0.13497567787E+02  0.63509807739E+02  0.13704195959E+03  0.00000000000E+00 0. -1.
         -1    1    3    3    0  502  0.96294108442E+01 -0.11206366615E+02  0.20110953722E+02  0.24955133050E+02  0.00000000000E+00 0.  1.
         11    1    5    5    0    0  0.26511703233E+02  0.22115774025E+02  0.85767722968E+02  0.92455828222E+02  0.00000000000E+00 0. -1.
        -11    1    5    5    0    0  0.23270953015E+03  0.69974380439E+02  0.14932226559E+04  0.15128661670E+04  0.00000000000E+00 0.  1.
          2    1    6    6  503    0 -0.12660666875E+03 -0.90742153237E+02 -0.25005805361E+02  0.15776145679E+03  0.00000000000E+00 0.  1.
         -2    1    6    6    0  503 -0.21559184910E+02  0.23355933175E+02 -0.12547181244E+01  0.31809941623E+02  0.00000000000E+00 0. -1.
<mgrwt>
<rscale>  0 0.10732088E+04</rscale>
<asrwt>0</asrwt>
<pdfrwt beam="1">  1        2 0.27640315E+00 0.10732088E+04</pdfrwt>
<pdfrwt beam="2">  1       -1 0.24656914E-01 0.10732088E+04</pdfrwt>
<totfact> 0.14091512E+02</totfact>
</mgrwt>
</event>
<event>
12    6  0.1510140E-007  0.1713247E+04  0.7818608E-02  0.8753845E-01
          2   -1    0    0  501    0  0.00000000000E+00  0.00000000000E+00  0.29179140500E+04  0.29179140500E+04  0.00000000000E+00 0. -1.
         -1   -1    0    0    0  501 -0.00000000000E+00 -0.00000000000E+00 -0.25148237757E+03  0.25148237757E+03  0.00000000000E+00 0.  1.
         24    2    1    2    0    0 -0.18537551814E+03  0.38360900651E+03  0.17722617922E+04  0.18245306067E+04  0.80499206024E+02 0.  0.
        254    2    1    2    0    0  0.18537551814E+03 -0.38360900651E+03  0.89416988022E+03  0.13448658208E+04  0.90972762338E+03 0.  0.
         23    2    4    4    0    0  0.34404193519E+03 -0.56568354395E+03  0.85167020069E+03  0.10825013052E+04  0.90023440892E+02 0.  0.
         23    2    4    4    0    0 -0.15866641705E+03  0.18207453744E+03  0.42499679521E+02  0.26236451564E+03  0.93288516048E+02 0.  0.
          4    1    3    3  502    0 -0.18847202213E+03  0.34659254422E+03  0.15646906868E+04  0.16136619969E+04  0.00000000000E+00 0. -1.
         -3    1    3    3    0  502  0.30965039849E+01  0.37016462285E+02  0.20757110538E+03  0.21086860981E+03  0.00000000000E+00 0.  1.
         11    1    5    5    0    0 -0.53378597238E+01 -0.99559619738E+01  0.97644979917E+01  0.14931823274E+02  0.00000000000E+00 0. -1.
        -11    1    5    5    0    0  0.34937979492E+03 -0.55572758197E+03  0.84190570270E+03  0.10675694819E+04  0.00000000000E+00 0.  1.
          2    1    6    6  503    0 -0.48018482762E+02  0.34408842014E+02  0.50431329481E+02  0.77672788599E+02  0.00000000000E+00 0. -1.
         -2    1    6    6    0  503 -0.11064793429E+03  0.14766569543E+03 -0.79316499597E+01  0.18469172705E+03  0.00000000000E+00 0.  1.
<mgrwt>
<rscale>  0 0.17132472E+04</rscale>
<asrwt>0</asrwt>
<pdfrwt beam="1">  1        2 0.44890983E+00 0.17132472E+04</pdfrwt>
<pdfrwt beam="2">  1       -1 0.38689599E-01 0.17132472E+04</pdfrwt>
<totfact> 0.13777999E+01</totfact>
</mgrwt>
</event>
<event>
12    6  0.1510140E-007  0.2327080E+04  0.7818608E-02  0.8467320E-01
         -1   -1    0    0    0  501 -0.00000000000E+00  0.00000000000E+00  0.65934071096E+03  0.65934071096E+03  0.00000000000E+00 0.  1.
          2   -1    0    0  501    0  0.00000000000E+00 -0.00000000000E+00 -0.20533015759E+04  0.20533015759E+04  0.00000000000E+00 0. -1.
         24    2    1    2    0    0 -0.59058942422E+03 -0.56144802862E+03 -0.12416269297E+04  0.14872217299E+04  0.78557523230E+02 0.  0.
        254    2    1    2    0    0  0.59058942422E+03  0.56144802862E+03 -0.15233393526E+03  0.12254205570E+04  0.90245784215E+03 0.  0.
         23    2    4    4    0    0  0.84365596254E+02  0.37312023901E+03 -0.45357547880E+03  0.60012943590E+03  0.89935300478E+02 0.  0.
         23    2    4    4    0    0  0.50622382797E+03  0.18832778960E+03  0.30124154353E+03  0.62529112110E+03  0.92263742825E+02 0.  0.
          2    1    3    3  502    0 -0.42073174486E+03 -0.42428119788E+03 -0.85286540339E+03  0.10413496686E+04  0.00000000000E+00 0. -1.
         -1    1    3    3    0  502 -0.16985767936E+03 -0.13716683074E+03 -0.38876152633E+03  0.44587206130E+03  0.00000000000E+00 0.  1.
         11    1    5    5    0    0  0.79324433202E+02  0.27174334684E+03 -0.38401622476E+03  0.47707994417E+03  0.00000000000E+00 0. -1.
        -11    1    5    5    0    0  0.50411630514E+01  0.10137689217E+03 -0.69559254044E+02  0.12304949173E+03  0.00000000000E+00 0.  1.
          4    1    6    6  503    0  0.26528186020E+03  0.11688236000E+03  0.11231932259E+03  0.31088837491E+03  0.00000000000E+00 0. -1.
         -4    1    6    6    0  503  0.24094196777E+03  0.71445429596E+02  0.18892222095E+03  0.31440274619E+03  0.00000000000E+00 0.  1.
<mgrwt>
<rscale>  0 0.23270800E+04</rscale>
<asrwt>0</asrwt>
<pdfrwt beam="1">  1        2 0.31589255E+00 0.23270800E+04</pdfrwt>
<pdfrwt beam="2">  1       -1 0.10143703E+00 0.23270800E+04</pdfrwt>
<totfact> 0.59240613E+00</totfact>
</mgrwt>
</event>
<event>
12    6  0.1510140E-007  0.2233315E+04  0.7818608E-02  0.8504688E-01
         -1   -1    0    0    0  501 -0.00000000000E+00  0.00000000000E+00  0.10354683967E+04  0.10354683967E+04  0.00000000000E+00 0.  1.
          2   -1    0    0  501    0  0.00000000000E+00 -0.00000000000E+00 -0.12042124064E+04  0.12042124064E+04  0.00000000000E+00 0. -1.
         24    2    1    2    0    0  0.61249401120E+03  0.61989448619E+03  0.27217548736E+03  0.91618585602E+03  0.76804551161E+02 0.  0.
        254    2    1    2    0    0 -0.61249401120E+03 -0.61989448619E+03 -0.44091949706E+03  0.13234949471E+04  0.89320254384E+03 0.  0.
         23    2    4    4    0    0 -0.72901906883E+03 -0.33869385051E+03 -0.56116944380E+03  0.98461261185E+03  0.91479635234E+02 0.  0.
         23    2    4    4    0    0  0.11652505762E+03 -0.28120063568E+03  0.12024994674E+03  0.33888233525E+03  0.87916442667E+02 0.  0.
          2    1    3    3  502    0  0.21669396635E+03  0.27019273657E+03  0.95796780742E+02  0.35935694393E+03  0.00000000000E+00 0. -1.
         -1    1    3    3    0  502  0.39580004485E+03  0.34970174963E+03  0.17637870662E+03  0.55682891210E+03  0.00000000000E+00 0.  1.
         11    1    5    5    0    0 -0.32798308896E+03 -0.20265807571E+03 -0.27089461276E+03  0.47119751009E+03  0.00000000000E+00 0.  1.
        -11    1    5    5    0    0 -0.40103597987E+03 -0.13603577480E+03 -0.29027483103E+03  0.51341510176E+03  0.00000000000E+00 0. -1.
          3    1    6    6  503    0  0.61328039295E+02 -0.22947475056E+03  0.68428803453E+02  0.24718877541E+03  0.00000000000E+00 0. -1.
         -3    1    6    6    0  503  0.55197018330E+02 -0.51725885125E+02  0.51821143288E+02  0.91693559840E+02  0.00000000000E+00 0.  1.
<mgrwt>
<rscale>  0 0.22333149E+04</rscale>
<asrwt>0</asrwt>
<pdfrwt beam="1">  1        2 0.18526345E+00 0.22333149E+04</pdfrwt>
<pdfrwt beam="2">  1       -1 0.15930283E+00 0.22333149E+04</pdfrwt>
<totfact> 0.57889352E+00</totfact>
</mgrwt>
</event>
<event>
12    6  0.1510140E-007  0.1888445E+04  0.7818608E-02  0.8660629E-01
          2   -1    0    0  501    0  0.00000000000E+00  0.00000000000E+00  0.17608201423E+04  0.17608201423E+04  0.00000000000E+00 0. -1.
         -1   -1    0    0    0  501 -0.00000000000E+00 -0.00000000000E+00 -0.50633017477E+03  0.50633017477E+03  0.00000000000E+00 0.  1.
         24    2    1    2    0    0  0.72544658199E+02  0.68335801050E+03  0.19037026862E+03  0.71742698130E+03  0.78865305315E+02 0.  0.
        254    2    1    2    0    0 -0.72544658199E+02 -0.68335801050E+03  0.10641196989E+04  0.15497233358E+04  0.89277700792E+03 0.  0.
         23    2    4    4    0    0 -0.47453626936E+02  0.19834318980E+03  0.32869148736E+03  0.39767869405E+03  0.92295082145E+02 0.  0.
         23    2    4    4    0    0 -0.25091031263E+02 -0.88170120030E+03  0.73542821157E+03  0.11520446417E+04  0.91244921638E+02 0.  0.
          2    1    3    3  502    0  0.57458654135E+02  0.38879429721E+03  0.71723840406E+02  0.39950821238E+03  0.00000000000E+00 0. -1.
         -1    1    3    3    0  502  0.15086004063E+02  0.29456371329E+03  0.11864642821E+03  0.31791876892E+03  0.00000000000E+00 0.  1.
         11    1    5    5    0    0 -0.44492239485E+02  0.50565628515E+02  0.56366186950E+02  0.87827041353E+02  0.00000000000E+00 0.  1.
        -11    1    5    5    0    0 -0.29613874511E+01  0.14777756128E+03  0.27232530041E+03  0.30985165270E+03  0.00000000000E+00 0. -1.
          1    1    6    6  503    0 -0.53886184134E+02 -0.35324207808E+03  0.30824440847E+03  0.47190920940E+03  0.00000000000E+00 0. -1.
         -1    1    6    6    0  503  0.28795152871E+02 -0.52845912222E+03  0.42718380310E+03  0.68013543233E+03  0.00000000000E+00 0.  1.
<mgrwt>
<rscale>  0 0.18884453E+04</rscale>
<asrwt>0</asrwt>
<pdfrwt beam="1">  1        2 0.27089540E+00 0.18884453E+04</pdfrwt>
<pdfrwt beam="2">  1       -1 0.77896951E-01 0.18884453E+04</pdfrwt>
<totfact> 0.15988615E+01</totfact>
</mgrwt>
</event>
<event>
12    6  0.1510140E-007  0.1669520E+04  0.7818608E-02  0.8778942E-01
          2   -1    0    0  501    0  0.00000000000E+00  0.00000000000E+00  0.15136353538E+04  0.15136353538E+04  0.00000000000E+00 0. -1.
         -1   -1    0    0    0  501 -0.00000000000E+00 -0.00000000000E+00 -0.46036457160E+03  0.46036457160E+03  0.00000000000E+00 0.  1.
         24    2    1    2    0    0  0.49976133024E+03  0.12363106463E+03  0.50130187319E+02  0.52335769021E+03  0.79650542221E+02 0.  0.
        254    2    1    2    0    0 -0.49976133024E+03 -0.12363106463E+03  0.10031405949E+04  0.14506422352E+04  0.91270247842E+03 0.  0.
         23    2    4    4    0    0 -0.28835603947E+03  0.38164589479E+03  0.54295431918E+03  0.72944877625E+03  0.92159264021E+02 0.  0.
         23    2    4    4    0    0 -0.21140529077E+03 -0.50527695942E+03  0.46018627575E+03  0.72119345899E+03  0.91387057112E+02 0.  0.
          4    1    3    3  502    0  0.24595753513E+02  0.25935188579E+02  0.81612189664E+00  0.35752638398E+02  0.00000000000E+00 0. -1.
         -3    1    3    3    0  502  0.47516557672E+03  0.97695876054E+02  0.49314065423E+02  0.48760505181E+03  0.00000000000E+00 0.  1.
         11    1    5    5    0    0 -0.40682150607E+02  0.11919801724E+03  0.12907661278E+03  0.18034405081E+03  0.00000000000E+00 0.  1.
        -11    1    5    5    0    0 -0.24767388886E+03  0.26244787755E+03  0.41387770640E+03  0.54910472544E+03  0.00000000000E+00 0. -1.
          4    1    6    6  503    0 -0.28936995736E+02 -0.17625320160E+03  0.13477487214E+03  0.22375613278E+03  0.00000000000E+00 0. -1.
         -4    1    6    6    0  503 -0.18246829503E+03 -0.32902375783E+03  0.32541140361E+03  0.49743732621E+03  0.00000000000E+00 0.  1.
<mgrwt>
<rscale>  0 0.16695198E+04</rscale>
<asrwt>0</asrwt>
<pdfrwt beam="1">  1        2 0.23286698E+00 0.16695198E+04</pdfrwt>
<pdfrwt beam="2">  1       -1 0.70825319E-01 0.16695198E+04</pdfrwt>
<totfact> 0.27296786E+01</totfact>
</mgrwt>
</event>
<event>
12    6  0.1510140E-007  0.1843983E+04  0.7818608E-02  0.8683253E-01
         -1   -1    0    0    0  501 -0.00000000000E+00  0.00000000000E+00  0.48818322541E+03  0.48818322541E+03  0.00000000000E+00 0.  1.
          2   -1    0    0  501    0  0.00000000000E+00 -0.00000000000E+00 -0.17412904266E+04  0.17412904266E+04  0.00000000000E+00 0. -1.
         24    2    1    2    0    0 -0.41127854241E+03 -0.13754116011E+03  0.18556894469E+03  0.47817448322E+03  0.78405312280E+02 0.  0.
        254    2    1    2    0    0  0.41127854241E+03  0.13754116011E+03 -0.14386761458E+04  0.17512991688E+04  0.89955106342E+03 0.  0.
         23    2    4    4    0    0  0.25587225894E+02  0.43558506490E+03 -0.97661761937E+03  0.10735379177E+04  0.91173633751E+02 0.  0.
         23    2    4    4    0    0  0.38569131652E+03 -0.29804390479E+03 -0.46205852648E+03  0.67776125101E+03  0.90963018049E+02 0.  0.
          2    1    3    3  502    0 -0.99289799637E+02 -0.23197630413E+02  0.10249988105E+02  0.10247759084E+03  0.00000000000E+00 0. -1.
         -1    1    3    3    0  502 -0.31198874278E+03 -0.11434352970E+03  0.17531895659E+03  0.37569689238E+03  0.00000000000E+00 0.  1.
         11    1    5    5    0    0 -0.19332996110E+02  0.32502278479E+03 -0.74274380059E+03  0.81097591128E+03  0.00000000000E+00 0.  1.
        -11    1    5    5    0    0  0.44920222003E+02  0.11056228011E+03 -0.23387381878E+03  0.26256200647E+03  0.00000000000E+00 0. -1.
          1    1    6    6  503    0  0.80532012791E+02 -0.91130748340E+02 -0.16097445962E+03  0.20174983278E+03  0.00000000000E+00 0. -1.
         -1    1    6    6    0  503  0.30515930373E+03 -0.20691315645E+03 -0.30108406686E+03  0.47601141823E+03  0.00000000000E+00 0.  1.
<mgrwt>
<rscale>  0 0.18439835E+04</rscale>
<asrwt>0</asrwt>
<pdfrwt beam="1">  1        2 0.26789084E+00 0.18439835E+04</pdfrwt>
<pdfrwt beam="2">  1       -1 0.75105111E-01 0.18439835E+04</pdfrwt>
<totfact> 0.17766938E+01</totfact>
</mgrwt>
</event>
<event>
12    6  0.1510140E-007  0.1835587E+04  0.7818608E-02  0.8687600E-01
         -1   -1    0    0    0  501 -0.00000000000E+00  0.00000000000E+00  0.27577651587E+03  0.27577651587E+03  0.00000000000E+00 0.  1.
          2   -1    0    0  501    0  0.00000000000E+00 -0.00000000000E+00 -0.30544491291E+04  0.30544491291E+04  0.00000000000E+00 0. -1.
         24    2    1    2    0    0 -0.23631602453E+03 -0.37562330608E+03 -0.20615175780E+04  0.21102631608E+04  0.80110871363E+02 0.  0.
        254    2    1    2    0    0  0.23631602453E+03  0.37562330608E+03 -0.71715503516E+03  0.12199624841E+04  0.88150949328E+03 0.  0.
         23    2    4    4    0    0  0.18931720880E+03  0.65301128087E+03 -0.55444485928E+03  0.88210887413E+03  0.91881583265E+02 0.  0.
         23    2    4    4    0    0  0.46998815736E+02 -0.27738797480E+03 -0.16271017588E+03  0.33785361001E+03  0.92290211940E+02 0.  0.
          4    1    3    3  502    0 -0.23024656506E+03 -0.33797429991E+03 -0.19495266545E+04  0.19919574003E+04  0.00000000000E+00 0. -1.
         -3    1    3    3    0  502 -0.60694594735E+01 -0.37649006163E+02 -0.11199092356E+03  0.11830576048E+03  0.00000000000E+00 0.  1.
         11    1    5    5    0    0  0.16222987281E+03  0.56855104637E+03 -0.43838684509E+03  0.73603794054E+03  0.00000000000E+00 0. -1.
        -11    1    5    5    0    0  0.27087335983E+02  0.84460234503E+02 -0.11605801419E+03  0.14607093360E+03  0.00000000000E+00 0.  1.
          2    1    6    6  503    0  0.54440609632E+02 -0.27585774596E+03 -0.16894093288E+03  0.32802791770E+03  0.00000000000E+00 0. -1.
         -2    1    6    6    0  503 -0.74417938965E+01 -0.15302288342E+01  0.62307570007E+01  0.98256923158E+01  0.00000000000E+00 0.  1.
<mgrwt>
<rscale>  0 0.18355875E+04</rscale>
<asrwt>0</asrwt>
<pdfrwt beam="1">  1        2 0.46991526E+00 0.18355875E+04</pdfrwt>
<pdfrwt beam="2">  1       -1 0.42427155E-01 0.18355875E+04</pdfrwt>
<totfact> 0.94584698E+00</totfact>
</mgrwt>
</event>
<event>
12    6  0.1510140E-007  0.1979832E+04  0.7818608E-02  0.8616108E-01
         -1   -1    0    0    0  501 -0.00000000000E+00  0.00000000000E+00  0.30695206466E+03  0.30695206466E+03  0.00000000000E+00 0.  1.
          2   -1    0    0  501    0  0.00000000000E+00 -0.00000000000E+00 -0.31924643713E+04  0.31924643713E+04  0.00000000000E+00 0. -1.
         24    2    1    2    0    0  0.33393674520E-01  0.51456450262E+03 -0.10330584269E+03  0.53102618720E+03  0.80870797531E+02 0.  0.
        254    2    1    2    0    0 -0.33393674520E-01 -0.51456450262E+03 -0.27822064640E+04  0.29683902488E+04  0.89771444925E+03 0.  0.
         23    2    4    4    0    0 -0.34018323212E+03  0.44262279467E+01 -0.58154690377E+03  0.68014979049E+03  0.93073698293E+02 0.  0.
         23    2    4    4    0    0  0.34014983844E+03 -0.51899073056E+03 -0.22006595602E+04  0.22882404583E+04  0.89936666709E+02 0.  0.
          4    1    3    3  502    0  0.20365809034E+02  0.73628184215E+02  0.49071225175E+01  0.76550346438E+02  0.00000000000E+00 0. -1.
         -3    1    3    3    0  502 -0.20332415359E+02  0.44093631840E+03 -0.10821296521E+03  0.45447584076E+03  0.00000000000E+00 0.  1.
         11    1    5    5    0    0 -0.23487922814E+03  0.42668934061E+02 -0.36124906443E+03  0.43300089642E+03  0.00000000000E+00 0. -1.
        -11    1    5    5    0    0 -0.10530400397E+03 -0.38242706114E+02 -0.22029783935E+03  0.24714889408E+03  0.00000000000E+00 0.  1.
          4    1    6    6  503    0  0.19266028535E+03 -0.37101097759E+03 -0.14567374963E+04  0.15155366258E+04  0.00000000000E+00 0. -1.
         -4    1    6    6    0  503  0.14748955309E+03 -0.14797975297E+03 -0.74392206390E+03  0.77270383247E+03  0.00000000000E+00 0.  1.
<mgrwt>
<rscale>  0 0.19798318E+04</rscale>
<asrwt>0</asrwt>
<pdfrwt beam="1">  1        2 0.49114839E+00 0.19798318E+04</pdfrwt>
<pdfrwt beam="2">  1       -1 0.47223392E-01 0.19798318E+04</pdfrwt>
<totfact> 0.62368298E+00</totfact>
</mgrwt>
</event>
<event>
12    6  0.1510140E-007  0.1323452E+04  0.7818608E-02  0.9011172E-01
         -3   -1    0    0    0  501 -0.00000000000E+00  0.00000000000E+00  0.55477491688E+03  0.55477491688E+03  0.00000000000E+00 0.  1.
          4   -1    0    0  501    0  0.00000000000E+00 -0.00000000000E+00 -0.78929529317E+03  0.78929529317E+03  0.00000000000E+00 0. -1.
         24    2    1    2    0    0 -0.24804823119E+02  0.33549126307E+03  0.79286518373E+02  0.35413359665E+03  0.77165960345E+02 0.  0.
        254    2    1    2    0    0  0.24804823119E+02 -0.33549126307E+03 -0.31380689466E+03  0.98993661340E+03  0.87654438825E+03 0.  0.
         23    2    4    4    0    0  0.14699157761E+03 -0.50610255503E+03  0.72653288554E+02  0.54061720662E+03  0.96136068455E+02 0.  0.
         23    2    4    4    0    0 -0.12218675450E+03  0.17061129196E+03 -0.38646018322E+03  0.44931940678E+03  0.92188069626E+02 0.  0.
          2    1    3    3  502    0 -0.22230533026E+02  0.28333630798E+02 -0.29879030074E+01  0.36137498491E+02  0.00000000000E+00 0. -1.
         -1    1    3    3    0  502 -0.25742900928E+01  0.30715763227E+03  0.82274421381E+02  0.31799609816E+03  0.00000000000E+00 0.  1.
         11    1    5    5    0    0  0.88587468197E+02 -0.16798204069E+03  0.13308935099E+00  0.18990977655E+03  0.00000000000E+00 0. -1.
        -11    1    5    5    0    0  0.58404109417E+02 -0.33812051434E+03  0.72520199203E+02  0.35070743007E+03  0.00000000000E+00 0.  1.
          1    1    6    6  503    0 -0.82060835978E+02  0.38286111958E+02 -0.16571792696E+03  0.18884448227E+03  0.00000000000E+00 0. -1.
         -1    1    6    6    0  503 -0.40125918517E+02  0.13232518000E+03 -0.22074225626E+03  0.26047492451E+03  0.00000000000E+00 0.  1.
<mgrwt>
<rscale>  0 0.13234519E+04</rscale>
<asrwt>0</asrwt>
<pdfrwt beam="1">  1        4 0.12143005E+00 0.13234519E+04</pdfrwt>
<pdfrwt beam="2">  1       -3 0.85349987E-01 0.13234519E+04</pdfrwt>
<totfact> 0.14458023E+00</totfact>
</mgrwt>
</event>
<event>
12    6  0.1510140E-007  0.1287713E+04  0.7818608E-02  0.9039366E-01
         -1   -1    0    0    0  501 -0.00000000000E+00  0.00000000000E+00  0.57956013777E+03  0.57956013777E+03  0.00000000000E+00 0.  1.
          2   -1    0    0  501    0  0.00000000000E+00 -0.00000000000E+00 -0.71528593160E+03  0.71528593160E+03  0.00000000000E+00 0. -1.
         24    2    1    2    0    0 -0.13136797096E+03  0.50498396196E+01  0.26029273689E+03  0.30143129333E+03  0.76324773465E+02 0.  0.
        254    2    1    2    0    0  0.13136797096E+03 -0.50498396196E+01 -0.39601853072E+03  0.99341477605E+03  0.90153158343E+03 0.  0.
         23    2    4    4    0    0 -0.32544074072E+03  0.12612949624E+03  0.11693748112E+02  0.36078030128E+03  0.90583422917E+02 0.  0.
         23    2    4    4    0    0  0.45680871167E+03 -0.13117933586E+03 -0.40771227883E+03  0.63263447477E+03  0.90082512937E+02 0.  0.
          4    1    3    3  502    0 -0.25675653680E+02  0.27834353084E+02  0.35124795407E+02  0.51650185439E+02  0.00000000000E+00 0. -1.
         -3    1    3    3    0  502 -0.10569231728E+03 -0.22784513464E+02  0.22516794148E+03  0.24978110789E+03  0.00000000000E+00 0.  1.
         11    1    5    5    0    0 -0.26842610762E+03  0.11931858693E+03 -0.21359783451E+02  0.29452629897E+03  0.00000000000E+00 0. -1.
        -11    1    5    5    0    0 -0.57014633097E+02  0.68109093117E+01  0.33053531563E+02  0.66254002307E+02  0.00000000000E+00 0.  1.
          1    1    6    6  503    0  0.34189879890E+03 -0.12497994907E+03 -0.27033200497E+03  0.45342493234E+03  0.00000000000E+00 0. -1.
         -1    1    6    6    0  503  0.11490991278E+03 -0.61993867925E+01 -0.13738027386E+03  0.17920954243E+03  0.00000000000E+00 0.  1.
<mgrwt>
<rscale>  0 0.12877130E+04</rscale>
<asrwt>0</asrwt>
<pdfrwt beam="1">  1        2 0.11004399E+00 0.12877130E+04</pdfrwt>
<pdfrwt beam="2">  1       -1 0.89163098E-01 0.12877130E+04</pdfrwt>
<totfact> 0.55100545E+01</totfact>
</mgrwt>
</event>
<event>
12    6  0.1510140E-007  0.1109045E+04  0.7818608E-02  0.9196421E-01
          2   -1    0    0  501    0  0.00000000000E+00  0.00000000000E+00  0.16680296678E+04  0.16680296678E+04  0.00000000000E+00 0. -1.
         -1   -1    0    0    0  501 -0.00000000000E+00 -0.00000000000E+00 -0.18434626344E+03  0.18434626344E+03  0.00000000000E+00 0.  1.
         24    2    1    2    0    0  0.90361214402E+02  0.52689341152E+02  0.48457224566E+03  0.50226286876E+03  0.80724298273E+02 0.  0.
        254    2    1    2    0    0 -0.90361214402E+02 -0.52689341152E+02  0.99911115870E+03  0.13501130625E+04  0.90202043120E+03 0.  0.
         23    2    4    4    0    0  0.20384395878E+03  0.15143513202E+03 -0.15543167054E+02  0.27020347921E+03  0.91013028688E+02 0.  0.
         23    2    4    4    0    0 -0.29420517318E+03 -0.20412447317E+03  0.10146543258E+04  0.10799095833E+04  0.91966422106E+02 0.  0.
          4    1    3    3  502    0  0.92087950404E+02  0.44990116688E+02  0.48356659586E+03  0.49430856136E+03  0.00000000000E+00 0. -1.
         -3    1    3    3    0  502 -0.17267360029E+01  0.76992244644E+01  0.10056497999E+01  0.79543073926E+01  0.00000000000E+00 0.  1.
         11    1    5    5    0    0  0.51349008604E+02  0.43825838374E+02  0.36094162176E+02  0.76552030260E+02  0.00000000000E+00 0. -1.
        -11    1    5    5    0    0  0.15249495018E+03  0.10760929365E+03 -0.51637329229E+02  0.19365144895E+03  0.00000000000E+00 0.  1.
          1    1    6    6  503    0 -0.78066131751E+02 -0.10772920658E+03  0.36305014345E+03  0.38665916456E+03  0.00000000000E+00 0. -1.
         -1    1    6    6    0  503 -0.21613904143E+03 -0.96395266597E+02  0.65160418230E+03  0.69325041872E+03  0.00000000000E+00 0.  1.
<mgrwt>
<rscale>  0 0.11090447E+04</rscale>
<asrwt>0</asrwt>
<pdfrwt beam="1">  1        2 0.25661994E+00 0.11090447E+04</pdfrwt>
<pdfrwt beam="2">  1       -1 0.28360965E-01 0.11090447E+04</pdfrwt>
<totfact> 0.13003647E+02</totfact>
</mgrwt>
</event>
<event>
12    6  0.1510140E-007  0.3354532E+04  0.7818608E-02  0.8149157E-01
          2   -1    0    0  501    0  0.00000000000E+00  0.00000000000E+00  0.20098593964E+04  0.20098593964E+04  0.00000000000E+00 0. -1.
         -1   -1    0    0    0  501 -0.00000000000E+00 -0.00000000000E+00 -0.13997105354E+04  0.13997105354E+04  0.00000000000E+00 0.  1.
         24    2    1    2    0    0  0.22785568435E+03 -0.25288315040E+03 -0.12595029378E+04  0.13072238071E+04  0.81353124500E+02 0.  0.
        254    2    1    2    0    0 -0.22785568435E+03  0.25288315040E+03  0.18696517989E+04  0.21023461247E+04  0.89910693369E+03 0.  0.
         23    2    4    4    0    0 -0.34517211061E+03  0.42776307760E+03  0.62684792916E+03  0.83872441149E+03  0.91625736796E+02 0.  0.
         23    2    4    4    0    0  0.11731642626E+03 -0.17487992720E+03  0.12428038697E+04  0.12636217132E+04  0.88499958290E+02 0.  0.
          2    1    3    3  502    0  0.97842481422E+00 -0.68561941366E+01 -0.42557642924E+01  0.81287294744E+01  0.00000000000E+00 0. -1.
         -1    1    3    3    0  502  0.22687725953E+03 -0.24602695626E+03 -0.12552471735E+04  0.12990950776E+04  0.00000000000E+00 0.  1.
         11    1    5    5    0    0 -0.27286833276E+03  0.34985674220E+03  0.55445310211E+03  0.71012330587E+03  0.00000000000E+00 0.  1.
        -11    1    5    5    0    0 -0.72303777845E+02  0.77906335392E+02  0.72394827042E+02  0.12860110562E+03  0.00000000000E+00 0. -1.
          3    1    6    6  503    0  0.10726855241E+03 -0.18113196766E+03  0.10760425513E+04  0.10964410173E+04  0.00000000000E+00 0.  1.
         -3    1    6    6    0  503  0.10047873854E+02  0.62520404602E+01  0.16676131836E+03  0.16718069589E+03  0.00000000000E+00 0. -1.
<mgrwt>
<rscale>  0 0.33545321E+04</rscale>
<asrwt>0</asrwt>
<pdfrwt beam="1">  1        2 0.30920914E+00 0.33545321E+04</pdfrwt>
<pdfrwt beam="2">  1       -1 0.21534008E+00 0.33545321E+04</pdfrwt>
<totfact> 0.73808204E-01</totfact>
</mgrwt>
</event>
<event>
12    6  0.1510140E-007  0.1501158E+04  0.7818608E-02  0.8883683E-01
         -1   -1    0    0    0  501 -0.00000000000E+00  0.00000000000E+00  0.28755816083E+03  0.28755816083E+03  0.00000000000E+00 0.  1.
          2   -1    0    0  501    0  0.00000000000E+00 -0.00000000000E+00 -0.19591481164E+04  0.19591481164E+04  0.00000000000E+00 0. -1.
         24    2    1    2    0    0 -0.12009706638E+03  0.19375141452E+03  0.10881048365E+03  0.26500687036E+03  0.80162360275E+02 0.  0.
        254    2    1    2    0    0  0.12009706638E+03 -0.19375141452E+03 -0.17804004392E+04  0.19816994069E+04  0.83984754523E+03 0.  0.
         23    2    4    4    0    0 -0.69636569066E+02 -0.36085197578E+03 -0.31809828332E+03  0.49487667053E+03  0.93021508284E+02 0.  0.
         23    2    4    4    0    0  0.18973363544E+03  0.16710056126E+03 -0.14623021559E+04  0.14868227363E+04  0.91612249011E+02 0.  0.
          2    1    3    3  502    0 -0.80518360654E+02  0.79949544973E+02  0.19745370094E+02  0.11517385026E+03  0.00000000000E+00 0. -1.
         -1    1    3    3    0  502 -0.39578705725E+02  0.11380186955E+03  0.89065113559E+02  0.14983302010E+03  0.00000000000E+00 0.  1.
         11    1    5    5    0    0  0.20448031137E+01 -0.11599575569E+03 -0.55007532500E+02  0.12839402319E+03  0.00000000000E+00 0. -1.
        -11    1    5    5    0    0 -0.71681372180E+02 -0.24485622009E+03 -0.26309075082E+03  0.36648264734E+03  0.00000000000E+00 0.  1.
          1    1    6    6  503    0  0.95661832018E+02  0.12480147295E+03 -0.10554632487E+04  0.10671125822E+04  0.00000000000E+00 0. -1.
         -1    1    6    6    0  503  0.94071803427E+02  0.42299088315E+02 -0.40683890721E+03  0.41971015414E+03  0.00000000000E+00 0.  1.
<mgrwt>
<rscale>  0 0.15011583E+04</rscale>
<asrwt>0</asrwt>
<pdfrwt beam="1">  1        2 0.30140741E+00 0.15011583E+04</pdfrwt>
<pdfrwt beam="2">  1       -1 0.44239716E-01 0.15011583E+04</pdfrwt>
<totfact> 0.39181243E+01</totfact>
</mgrwt>
</event>
<event>
12    6  0.1510140E-007  0.2173606E+04  0.7818608E-02  0.8529495E-01
          2   -1    0    0  501    0  0.00000000000E+00  0.00000000000E+00  0.70395019720E+03  0.70395019720E+03  0.00000000000E+00 0. -1.
         -1   -1    0    0    0  501 -0.00000000000E+00 -0.00000000000E+00 -0.16778758828E+04  0.16778758828E+04  0.00000000000E+00 0.  1.
         24    2    1    2    0    0 -0.61746610511E+03 -0.39035069745E+03  0.16555725397E+03  0.75636126420E+03  0.10504808273E+03 0.  0.
        254    2    1    2    0    0  0.61746610511E+03  0.39035069745E+03 -0.11394829396E+04  0.16254648158E+04  0.90004246561E+03 0.  0.
         23    2    4    4    0    0  0.21926694084E+03 -0.16104294985E+03 -0.81801548110E+03  0.86679425487E+03  0.90388770975E+02 0.  0.
         23    2    4    4    0    0  0.39819916426E+03  0.55139364729E+03 -0.32146745851E+03  0.75867056097E+03  0.98194523756E+02 0.  0.
          4    1    3    3  502    0 -0.46102574449E+03 -0.27644244111E+03  0.75200965603E+02  0.54278941180E+03  0.00000000000E+00 0. -1.
         -3    1    3    3    0  502 -0.15644036061E+03 -0.11390825634E+03  0.90356288365E+02  0.21357185240E+03  0.00000000000E+00 0.  1.
         11    1    5    5    0    0  0.10257371094E+03 -0.11758909245E+03 -0.36452536824E+03  0.39651898432E+03  0.00000000000E+00 0. -1.
        -11    1    5    5    0    0  0.11669322991E+03 -0.43453857400E+02 -0.45349011286E+03  0.47027527055E+03  0.00000000000E+00 0.  1.
          1    1    6    6  503    0  0.26780009874E+03  0.44288574008E+03 -0.24227788471E+03  0.57145712443E+03  0.00000000000E+00 0. -1.
         -1    1    6    6    0  503  0.13039906553E+03  0.10850790722E+03 -0.79189573802E+02  0.18721343653E+03  0.00000000000E+00 0.  1.
<mgrwt>
<rscale>  0 0.21736063E+04</rscale>
<asrwt>0</asrwt>
<pdfrwt beam="1">  1        2 0.10830003E+00 0.21736063E+04</pdfrwt>
<pdfrwt beam="2">  1       -1 0.25813475E+00 0.21736063E+04</pdfrwt>
<totfact> 0.26241768E+00</totfact>
</mgrwt>
</event>
<event>
12    6  0.1510140E-007  0.1297228E+04  0.7818608E-02  0.9031767E-01
         -1   -1    0    0    0  501 -0.00000000000E+00  0.00000000000E+00  0.29299095828E+03  0.29299095828E+03  0.00000000000E+00 0.  1.
          2   -1    0    0  501    0  0.00000000000E+00 -0.00000000000E+00 -0.14358801601E+04  0.14358801601E+04  0.00000000000E+00 0. -1.
         24    2    1    2    0    0  0.52066379943E+01  0.61927969998E+02  0.12407598150E+03  0.16023109060E+03  0.80105996426E+02 0.  0.
        254    2    1    2    0    0 -0.52066379943E+01 -0.61927969998E+02 -0.12669651833E+04  0.15686400278E+04  0.92280473475E+03 0.  0.
         23    2    4    4    0    0 -0.12932136215E+03 -0.13790816364E+03  0.68605601551E+02  0.22216101397E+03  0.94372195349E+02 0.  0.
         23    2    4    4    0    0  0.12411472415E+03  0.75980193646E+02 -0.13355707848E+04  0.13464790138E+04  0.89883027847E+02 0.  0.
          4    1    3    3  502    0 -0.13716625413E+02 -0.15940051868E+02  0.21641058852E+02  0.30175594352E+02  0.00000000000E+00 0. -1.
         -3    1    3    3    0  502  0.18923263407E+02  0.77868021866E+02  0.10243492264E+03  0.13005549625E+03  0.00000000000E+00 0.  1.
         11    1    5    5    0    0  0.15159175376E+02 -0.11555921891E+02  0.97089238652E+01  0.21391660325E+02  0.00000000000E+00 0.  1.
        -11    1    5    5    0    0 -0.14448053752E+03 -0.12635224175E+03  0.58896677686E+02  0.20076935364E+03  0.00000000000E+00 0. -1.
          2    1    6    6  503    0  0.13144401389E+03  0.81248186056E+02 -0.11073682772E+04  0.11180980716E+04  0.00000000000E+00 0. -1.
         -2    1    6    6    0  503 -0.73292897410E+01 -0.52679924101E+01 -0.22820250769E+03  0.22838094217E+03  0.00000000000E+00 0.  1.
<mgrwt>
<rscale>  0 0.12972277E+04</rscale>
<asrwt>0</asrwt>
<pdfrwt beam="1">  1        2 0.22090464E+00 0.12972277E+04</pdfrwt>
<pdfrwt beam="2">  1       -1 0.45075532E-01 0.12972277E+04</pdfrwt>
<totfact> 0.75263215E+01</totfact>
</mgrwt>
</event>
<event>
12    6  0.1510140E-007  0.2576368E+04  0.7818608E-02  0.8376273E-01
         -1   -1    0    0    0  501 -0.00000000000E+00  0.00000000000E+00  0.13049590574E+04  0.13049590574E+04  0.00000000000E+00 0.  1.
          2   -1    0    0  501    0  0.00000000000E+00 -0.00000000000E+00 -0.12716244610E+04  0.12716244610E+04  0.00000000000E+00 0. -1.
         24    2    1    2    0    0 -0.15958076163E+03  0.99636906775E+03 -0.49399971310E+03  0.11263090826E+04  0.79492731053E+02 0.  0.
        254    2    1    2    0    0  0.15958076163E+03 -0.99636906775E+03  0.52733430950E+03  0.14502744358E+04  0.89833018786E+03 0.  0.
         23    2    4    4    0    0  0.26661094723E+02 -0.10358558864E+04  0.66722367777E+03  0.12359045492E+04  0.92543974845E+02 0.  0.
         23    2    4    4    0    0  0.13291966691E+03  0.39486818607E+02 -0.13988936827E+03  0.21436988657E+03  0.84608310567E+02 0.  0.
          4    1    3    3  502    0 -0.58639894313E+02  0.40960772741E+03 -0.15998692891E+03  0.44363605014E+03  0.00000000000E+00 0. -1.
         -3    1    3    3    0  502 -0.10094086732E+03  0.58676134034E+03 -0.33401278419E+03  0.68267303244E+03  0.00000000000E+00 0.  1.
         11    1    5    5    0    0  0.41118540460E+02 -0.34492623542E+03  0.18859603976E+03  0.39526359365E+03  0.00000000000E+00 0.  1.
        -11    1    5    5    0    0 -0.14457445737E+02 -0.69092965094E+03  0.47862763801E+03  0.84064095555E+03  0.00000000000E+00 0. -1.
          4    1    6    6  503    0  0.51921792701E+02  0.41216182788E+02 -0.10917748001E+03  0.12772771204E+03  0.00000000000E+00 0.  1.
         -4    1    6    6    0  503  0.80997874209E+02 -0.17293641808E+01 -0.30711888259E+02  0.86642174530E+02  0.00000000000E+00 0. -1.
<mgrwt>
<rscale>  0 0.25763679E+04</rscale>
<asrwt>0</asrwt>
<pdfrwt beam="1">  1        2 0.19563453E+00 0.25763679E+04</pdfrwt>
<pdfrwt beam="2">  1       -1 0.20076293E+00 0.25763679E+04</pdfrwt>
<totfact> 0.25792586E+00</totfact>
</mgrwt>
</event>
<event>
12    6  0.1510140E-007  0.1616276E+04  0.7818608E-02  0.8810611E-01
         -1   -1    0    0    0  501 -0.00000000000E+00  0.00000000000E+00  0.58960172832E+03  0.58960172832E+03  0.00000000000E+00 0.  1.
          2   -1    0    0  501    0  0.00000000000E+00 -0.00000000000E+00 -0.11076752631E+04  0.11076752631E+04  0.00000000000E+00 0. -1.
         24    2    1    2    0    0 -0.31471067923E+03 -0.91708886150E+02 -0.62630040840E+03  0.71212036344E+03  0.86080654302E+02 0.  0.
        254    2    1    2    0    0  0.31471067923E+03  0.91708886150E+02  0.10822687366E+03  0.98515662795E+03  0.92269561286E+03 0.  0.
         23    2    4    4    0    0  0.55255349354E+03  0.12690976706E+03  0.31653189829E+03  0.65430094513E+03  0.80596724295E+02 0.  0.
         23    2    4    4    0    0 -0.23784281431E+03 -0.35200880913E+02 -0.20830502462E+03  0.33085568281E+03  0.90918607708E+02 0.  0.
          4    1    3    3  502    0 -0.25093916684E+03 -0.91648200687E+02 -0.55812618494E+03  0.61876869383E+03  0.00000000000E+00 0. -1.
         -3    1    3    3    0  502 -0.63771512394E+02 -0.60685463556E-01 -0.68174223457E+02  0.93351669614E+02  0.00000000000E+00 0.  1.
         11    1    5    5    0    0  0.73640984307E+02  0.42711478818E+02  0.63076165045E+02  0.10595219483E+03  0.00000000000E+00 0. -1.
        -11    1    5    5    0    0  0.47891250924E+03  0.84198288245E+02  0.25345573324E+03  0.54834875030E+03  0.00000000000E+00 0.  1.
          3    1    6    6  503    0  0.50333098982E+01 -0.64367749764E+00  0.39700396070E+01  0.64428055793E+01  0.00000000000E+00 0. -1.
         -3    1    6    6    0  503 -0.24287612421E+03 -0.34557203415E+02 -0.21227506423E+03  0.32441287723E+03  0.00000000000E+00 0.  1.
<mgrwt>
<rscale>  0 0.16162763E+04</rscale>
<asrwt>0</asrwt>
<pdfrwt beam="1">  1        2 0.17041158E+00 0.16162763E+04</pdfrwt>
<pdfrwt beam="2">  1       -1 0.90707959E-01 0.16162763E+04</pdfrwt>
<totfact> 0.27951176E+01</totfact>
</mgrwt>
</event>
<event>
12    6  0.1510140E-007  0.2504659E+04  0.7818608E-02  0.8401327E-01
         -1   -1    0    0    0  501 -0.00000000000E+00  0.00000000000E+00  0.94401737591E+03  0.94401737591E+03  0.00000000000E+00 0.  1.
          2   -1    0    0  501    0  0.00000000000E+00 -0.00000000000E+00 -0.16613355501E+04  0.16613355501E+04  0.00000000000E+00 0. -1.
         24    2    1    2    0    0  0.78417150228E+03 -0.52282367837E+03  0.24149826809E+03  0.97634114889E+03  0.81554165197E+02 0.  0.
        254    2    1    2    0    0 -0.78417150228E+03  0.52282367837E+03 -0.95881644225E+03  0.16290117771E+04  0.91982653601E+03 0.  0.
         23    2    4    4    0    0 -0.53472801580E+03  0.77700484768E+03 -0.72978437979E+03  0.11960889972E+04  0.91504448773E+02 0.  0.
         23    2    4    4    0    0 -0.24944348648E+03 -0.25418116931E+03 -0.22903206246E+03  0.43292277985E+03  0.90201595879E+02 0.  0.
          2    1    3    3  502    0  0.13000565508E+03 -0.10516019001E+03  0.71246390927E+02  0.18175858752E+03  0.00000000000E+00 0. -1.
         -1    1    3    3    0  502  0.65416584720E+03 -0.41766348836E+03  0.17025187716E+03  0.79458256137E+03  0.00000000000E+00 0.  1.
         11    1    5    5    0    0 -0.51213460111E+03  0.75432599279E+03 -0.72236371019E+03  0.11632277863E+04  0.00000000000E+00 0. -1.
        -11    1    5    5    0    0 -0.22593414692E+02  0.22678854889E+02 -0.74206695984E+01  0.32861210930E+02  0.00000000000E+00 0.  1.
          1    1    6    6  503    0 -0.21031006399E+03 -0.18215337711E+03 -0.13849795934E+03  0.31079231095E+03  0.00000000000E+00 0. -1.
         -1    1    6    6    0  503 -0.39133422498E+02 -0.72027792200E+02 -0.90534103120E+02  0.12213046890E+03  0.00000000000E+00 0.  1.
<mgrwt>
<rscale>  0 0.25046594E+04</rscale>
<asrwt>0</asrwt>
<pdfrwt beam="1">  1        2 0.25559008E+00 0.25046594E+04</pdfrwt>
<pdfrwt beam="2">  1       -1 0.14523344E+00 0.25046594E+04</pdfrwt>
<totfact> 0.39801145E+00</totfact>
</mgrwt>
</event>
<event>
12    6  0.1510140E-007  0.2619871E+04  0.7818608E-02  0.8361483E-01
          2   -1    0    0  501    0  0.00000000000E+00  0.00000000000E+00  0.21964712582E+04  0.21964712582E+04  0.00000000000E+00 0. -1.
         -1   -1    0    0    0  501 -0.00000000000E+00 -0.00000000000E+00 -0.78122188210E+03  0.78122188210E+03  0.00000000000E+00 0.  1.
         24    2    1    2    0    0 -0.60579927177E+03 -0.90167213368E+03  0.18599099878E+03  0.11049980580E+04  0.80141514022E+02 0.  0.
        254    2    1    2    0    0  0.60579927177E+03  0.90167213368E+03  0.12292583774E+04  0.18726950823E+04  0.90327477473E+03 0.  0.
         23    2    4    4    0    0 -0.18192971776E+03  0.16225470593E+03  0.50766908125E+03  0.57030725038E+03  0.89985843228E+02 0.  0.
         23    2    4    4    0    0  0.78772898953E+03  0.73941742775E+03  0.72158929612E+03  0.13023878319E+04  0.90927768524E+02 0.  0.
          4    1    3    3  502    0 -0.18624470232E+03 -0.27731309125E+03  0.19853856762E+02  0.33463982929E+03  0.00000000000E+00 0. -1.
         -3    1    3    3    0  502 -0.41955456946E+03 -0.62435904243E+03  0.16613714202E+03  0.77035822873E+03  0.00000000000E+00 0.  1.
         11    1    5    5    0    0 -0.67672986258E+02  0.36244517659E+02  0.84145679522E+02  0.11390256148E+03  0.00000000000E+00 0. -1.
        -11    1    5    5    0    0 -0.11425673150E+03  0.12601018828E+03  0.42352340173E+03  0.45640468890E+03  0.00000000000E+00 0.  1.
          1    1    6    6  503    0  0.24370367679E+03  0.27623727644E+03  0.27654805505E+03  0.46062711788E+03  0.00000000000E+00 0. -1.
         -1    1    6    6    0  503  0.54402531274E+03  0.46318015131E+03  0.44504124106E+03  0.84176071405E+03  0.00000000000E+00 0.  1.
<mgrwt>
<rscale>  0 0.26198713E+04</rscale>
<asrwt>0</asrwt>
<pdfrwt beam="1">  1        2 0.33791865E+00 0.26198713E+04</pdfrwt>
<pdfrwt beam="2">  1       -1 0.12018798E+00 0.26198713E+04</pdfrwt>
<totfact> 0.32131400E+00</totfact>
</mgrwt>
</event>
<event>
12    6  0.1510140E-007  0.3359972E+04  0.7818608E-02  0.8147801E-01
          2   -1    0    0  501    0  0.00000000000E+00  0.00000000000E+00  0.24619236109E+04  0.24619236109E+04  0.00000000000E+00 0. -1.
         -1   -1    0    0    0  501 -0.00000000000E+00 -0.00000000000E+00 -0.11464012564E+04  0.11464012564E+04  0.00000000000E+00 0.  1.
         24    2    1    2    0    0  0.45012960377E+03 -0.79287479077E+03 -0.74364098778E+03  0.11792774800E+04  0.80164593434E+02 0.  0.
        254    2    1    2    0    0 -0.45012960377E+03  0.79287479077E+03  0.20591633423E+04  0.24290473874E+04  0.91041223950E+03 0.  0.
         23    2    4    4    0    0 -0.14998886857E+03 -0.18856689648E+03  0.42219070122E+03  0.49482760356E+03  0.92494507419E+02 0.  0.
         23    2    4    4    0    0 -0.30014073520E+03  0.98144168725E+03  0.16369726411E+04  0.19342197838E+04  0.90633868371E+02 0.  0.
          2    1    3    3  502    0  0.26117900465E+03 -0.47821043503E+03 -0.39448248200E+03  0.67269318508E+03  0.00000000000E+00 0. -1.
         -1    1    3    3    0  502  0.18895059912E+03 -0.31466435574E+03 -0.34915850577E+03  0.50658429489E+03  0.00000000000E+00 0.  1.
         11    1    5    5    0    0 -0.39707600272E+02 -0.43262430987E+00  0.74048744141E+02  0.84024384509E+02  0.00000000000E+00 0.  1.
        -11    1    5    5    0    0 -0.11028126830E+03 -0.18813427217E+03  0.34814195708E+03  0.41080321905E+03  0.00000000000E+00 0. -1.
          2    1    6    6  503    0 -0.25171014721E+03  0.90859384517E+03  0.14954491801E+04  0.17678430428E+04  0.00000000000E+00 0. -1.
         -2    1    6    6    0  503 -0.48430587987E+02  0.72847842078E+02  0.14152346093E+03  0.16637674098E+03  0.00000000000E+00 0.  1.
<mgrwt>
<rscale>  0 0.33599716E+04</rscale>
<asrwt>0</asrwt>
<pdfrwt beam="1">  1        2 0.37875748E+00 0.33599716E+04</pdfrwt>
<pdfrwt beam="2">  1       -1 0.17636942E+00 0.33599716E+04</pdfrwt>
<totfact> 0.76463209E-01</totfact>
</mgrwt>
</event>
<event>
12    6  0.1510140E-007  0.1857892E+04  0.7818608E-02  0.8676105E-01
         -1   -1    0    0    0  501 -0.00000000000E+00  0.00000000000E+00  0.36780767965E+03  0.36780767965E+03  0.00000000000E+00 0.  1.
          2   -1    0    0  501    0  0.00000000000E+00 -0.00000000000E+00 -0.23461737466E+04  0.23461737466E+04  0.00000000000E+00 0. -1.
         24    2    1    2    0    0 -0.14217680803E+03 -0.35058446006E+03  0.11114687892E+03  0.40225379484E+03  0.79566188736E+02 0.  0.
        254    2    1    2    0    0  0.14217680803E+03  0.35058446006E+03 -0.20895129459E+04  0.23117276314E+04  0.91372675482E+03 0.  0.
         23    2    4    4    0    0  0.41721203749E+02 -0.18661446142E+02 -0.18483748978E+04  0.18512141636E+04  0.91734444513E+02 0.  0.
         23    2    4    4    0    0  0.10045560428E+03  0.36924590621E+03 -0.24113804810E+03  0.46051346782E+03  0.86551881126E+02 0.  0.
          2    1    3    3  502    0 -0.11756745018E+03 -0.18523319900E+03  0.60701070235E+02  0.22763581283E+03  0.00000000000E+00 0. -1.
         -1    1    3    3    0  502 -0.24609357853E+02 -0.16535126106E+03  0.50445808688E+02  0.17461798201E+03  0.00000000000E+00 0.  1.
         11    1    5    5    0    0 -0.17635572483E+02  0.13755235389E+02 -0.16843222932E+03  0.16991067004E+03  0.00000000000E+00 0. -1.
        -11    1    5    5    0    0  0.59356776232E+02 -0.32416681530E+02 -0.16799426685E+04  0.16813034936E+04  0.00000000000E+00 0.  1.
          4    1    6    6  503    0  0.10821737695E+03  0.31253143662E+03 -0.22820835847E+03  0.40182826484E+03  0.00000000000E+00 0. -1.
         -4    1    6    6    0  503 -0.77617726673E+01  0.56714469585E+02 -0.12929689625E+02  0.58685202982E+02  0.00000000000E+00 0.  1.
<mgrwt>
<rscale>  0 0.18578921E+04</rscale>
<asrwt>0</asrwt>
<pdfrwt beam="1">  1        2 0.36094981E+00 0.18578921E+04</pdfrwt>
<pdfrwt beam="2">  1       -1 0.56585797E-01 0.18578921E+04</pdfrwt>
<totfact> 0.14440197E+01</totfact>
</mgrwt>
</event>
<event>
12    6  0.1510140E-007  0.1664943E+04  0.7818608E-02  0.8781615E-01
          2   -1    0    0  501    0  0.00000000000E+00  0.00000000000E+00  0.16645181865E+04  0.16645181865E+04  0.00000000000E+00 0. -1.
         -1   -1    0    0    0  501 -0.00000000000E+00 -0.00000000000E+00 -0.41634203576E+03  0.41634203576E+03  0.00000000000E+00 0.  1.
         24    2    1    2    0    0 -0.25306958245E+03  0.50508147651E+03  0.27770923776E+03  0.63445504682E+03  0.79115575061E+02 0.  0.
        254    2    1    2    0    0  0.25306958245E+03 -0.50508147651E+03  0.97046691301E+03  0.14464051755E+04  0.91166352942E+03 0.  0.
         23    2    4    4    0    0  0.57917336372E+03 -0.39299680197E+03  0.73642965611E+03  0.10200617528E+04  0.91154097351E+02 0.  0.
         23    2    4    4    0    0 -0.32610378127E+03 -0.11208467455E+03  0.23403725690E+03  0.42634342269E+03  0.89936789089E+02 0.  0.
          2    1    3    3  502    0 -0.15592518413E+03  0.36828670878E+03  0.22342959959E+03  0.45811412212E+03  0.00000000000E+00 0. -1.
         -1    1    3    3    0  502 -0.97144398323E+02  0.13679476773E+03  0.54279638166E+02  0.17634092470E+03  0.00000000000E+00 0.  1.
         11    1    5    5    0    0  0.57710592093E+02 -0.19302893663E+02  0.38171123330E+02  0.71834175709E+02  0.00000000000E+00 0.  1.
        -11    1    5    5    0    0  0.52146277163E+03 -0.37369390830E+03  0.69825853278E+03  0.94822757706E+03  0.00000000000E+00 0. -1.
          1    1    6    6  503    0 -0.28394727807E+03 -0.12761504963E+03  0.20061223237E+03  0.37034703373E+03  0.00000000000E+00 0. -1.
         -1    1    6    6    0  503 -0.42156503198E+02  0.15530375087E+02  0.33425024522E+02  0.55996388960E+02  0.00000000000E+00 0.  1.
<mgrwt>
<rscale>  0 0.16649431E+04</rscale>
<asrwt>0</asrwt>
<pdfrwt beam="1">  1        2 0.25607972E+00 0.16649431E+04</pdfrwt>
<pdfrwt beam="2">  1       -1 0.64052621E-01 0.16649431E+04</pdfrwt>
<totfact> 0.27575591E+01</totfact>
</mgrwt>
</event>
<event>
12    6  0.1510140E-007  0.1106511E+04  0.7818608E-02  0.9198868E-01
          2   -1    0    0  501    0  0.00000000000E+00  0.00000000000E+00  0.19746980889E+04  0.19746980889E+04  0.00000000000E+00 0. -1.
         -1   -1    0    0    0  501 -0.00000000000E+00 -0.00000000000E+00 -0.15500694331E+03  0.15500694331E+03  0.00000000000E+00 0.  1.
         24    2    1    2    0    0 -0.37732269263E+02  0.15549072739E+03  0.15929297931E+03  0.23986001852E+03  0.80978298216E+02 0.  0.
        254    2    1    2    0    0  0.37732269263E+02 -0.15549072739E+03  0.16603981662E+04  0.18898450136E+04  0.88825166182E+03 0.  0.
         23    2    4    4    0    0 -0.11730507854E+03  0.98875974895E+02  0.15466156324E+04  0.15568265833E+04  0.90289291832E+02 0.  0.
         23    2    4    4    0    0  0.15503734780E+03 -0.25436670228E+03  0.11378253382E+03  0.33301843033E+03  0.95999018194E+02 0.  0.
          4    1    3    3  502    0 -0.21683807519E+02  0.20766390753E+02  0.73341804561E+02  0.79249295200E+02  0.00000000000E+00 0. -1.
         -3    1    3    3    0  502 -0.16048461744E+02  0.13472433664E+03  0.85951174748E+02  0.16061072332E+03  0.00000000000E+00 0.  1.
         11    1    5    5    0    0  0.31659479524E+00 -0.84670984568E+01  0.29501244791E+03  0.29513409903E+03  0.00000000000E+00 0.  1.
        -11    1    5    5    0    0 -0.11762167333E+03  0.10734307335E+03  0.12516031845E+04  0.12616924843E+04  0.00000000000E+00 0. -1.
          2    1    6    6  503    0  0.84122159897E+02 -0.13607263503E+03  0.11164172368E+03  0.19507991762E+03  0.00000000000E+00 0. -1.
         -2    1    6    6    0  503  0.70915187902E+02 -0.11829406725E+03  0.21408101363E+01  0.13793851271E+03  0.00000000000E+00 0.  1.
<mgrwt>
<rscale>  0 0.11065115E+04</rscale>
<asrwt>0</asrwt>
<pdfrwt beam="1">  1        2 0.30379969E+00 0.11065115E+04</pdfrwt>
<pdfrwt beam="2">  1       -1 0.23847223E-01 0.11065115E+04</pdfrwt>
<totfact> 0.11872528E+02</totfact>
</mgrwt>
</event>
<event>
12    6  0.1510140E-007  0.2347787E+04  0.7818608E-02  0.8459314E-01
          2   -1    0    0  501    0  0.00000000000E+00  0.00000000000E+00  0.13587759571E+04  0.13587759571E+04  0.00000000000E+00 0. -1.
         -1   -1    0    0    0  501 -0.00000000000E+00 -0.00000000000E+00 -0.10141667808E+04  0.10141667808E+04  0.00000000000E+00 0.  1.
         24    2    1    2    0    0  0.45635439884E+03 -0.82261365918E+03 -0.19659808826E+03  0.96475507953E+03  0.84551673994E+02 0.  0.
        254    2    1    2    0    0 -0.45635439884E+03  0.82261365918E+03  0.54120726460E+03  0.14081876584E+04  0.89729293342E+03 0.  0.
         23    2    4    4    0    0 -0.52102654061E+03  0.86241571422E+03  0.18044459592E+03  0.10285055478E+04  0.10016930455E+03 0.  0.
         23    2    4    4    0    0  0.64672141770E+02 -0.39802055038E+02  0.36076266868E+03  0.37968211055E+03  0.90786080757E+02 0.  0.
          2    1    3    3  502    0  0.57278181038E+02 -0.11352270759E+03  0.20845156075E+01  0.12717130324E+03  0.00000000000E+00 0. -1.
         -3    1    3    3    0  502  0.39907621780E+03 -0.70909095158E+03 -0.19868260387E+03  0.83758377629E+03  0.00000000000E+00 0.  1.
         11    1    5    5    0    0 -0.30929903566E+03  0.60136832214E+03  0.11114943898E+03  0.68532032665E+03  0.00000000000E+00 0.  1.
        -11    1    5    5    0    0 -0.21172750494E+03  0.26104739208E+03  0.69295156938E+02  0.34318522117E+03  0.00000000000E+00 0. -1.
          2    1    6    6  503    0 -0.27284583064E+01 -0.30110392855E+02  0.23256664485E+03  0.23452361191E+03  0.00000000000E+00 0. -1.
         -2    1    6    6    0  503  0.67400600076E+02 -0.96916621832E+01  0.12819602382E+03  0.14515849865E+03  0.00000000000E+00 0.  1.
<mgrwt>
<rscale>  0 0.23477866E+04</rscale>
<asrwt>0</asrwt>
<pdfrwt beam="1">  1        2 0.20904246E+00 0.23477866E+04</pdfrwt>
<pdfrwt beam="2">  1       -1 0.15602566E+00 0.23477866E+04</pdfrwt>
<totfact> 0.49285277E+00</totfact>
</mgrwt>
</event>
<event>
12    6  0.1510140E-007  0.2854473E+04  0.7818608E-02  0.8286554E-01
         -1   -1    0    0    0  501 -0.00000000000E+00  0.00000000000E+00  0.66696246950E+03  0.66696246950E+03  0.00000000000E+00 0.  1.
          2   -1    0    0  501    0  0.00000000000E+00 -0.00000000000E+00 -0.30541501131E+04  0.30541501131E+04  0.00000000000E+00 0. -1.
         24    2    1    2    0    0  0.30701952939E+03  0.86128710373E+03 -0.22554910845E+04  0.24350740345E+04  0.79177360783E+02 0.  0.
        254    2    1    2    0    0 -0.30701952939E+03 -0.86128710373E+03 -0.13169655904E+03  0.12860385481E+04  0.89469251537E+03 0.  0.
         23    2    4    4    0    0 -0.35868312012E+03 -0.35449699722E+03  0.31609292866E+03  0.60154797336E+03  0.87312788330E+02 0.  0.
         23    2    4    4    0    0  0.51663590727E+02 -0.50679010651E+03 -0.44778948770E+03  0.68449057474E+03  0.92231138726E+02 0.  0.
          4    1    3    3  502    0  0.87690636142E+02  0.32101106217E+03 -0.89658790780E+03  0.95635120438E+03  0.00000000000E+00 0. -1.
         -3    1    3    3    0  502  0.21932889325E+03  0.54027604156E+03 -0.13589031767E+04  0.14787228301E+04  0.00000000000E+00 0.  1.
         11    1    5    5    0    0 -0.14276997249E+03 -0.83832544151E+02  0.10058308231E+03  0.19372175136E+03  0.00000000000E+00 0. -1.
        -11    1    5    5    0    0 -0.21591314763E+03 -0.27066445307E+03  0.21550984635E+03  0.40782622200E+03  0.00000000000E+00 0.  1.
          3    1    6    6  503    0 -0.26647913239E+01 -0.37525456044E+03 -0.33122587238E+03  0.50053338028E+03  0.00000000000E+00 0. -1.
         -3    1    6    6    0  503  0.54328382051E+02 -0.13153554607E+03 -0.11656361533E+03  0.18395719446E+03  0.00000000000E+00 0.  1.
<mgrwt>
<rscale>  0 0.28544726E+04</rscale>
<asrwt>0</asrwt>
<pdfrwt beam="1">  1        2 0.46986925E+00 0.28544726E+04</pdfrwt>
<pdfrwt beam="2">  1       -1 0.10260961E+00 0.28544726E+04</pdfrwt>
<totfact> 0.14224680E+00</totfact>
</mgrwt>
</event>
<event>
12    6  0.1510140E-007  0.1175262E+04  0.7818608E-02  0.9134790E-01
         -1   -1    0    0    0  501 -0.00000000000E+00  0.00000000000E+00  0.20763205592E+03  0.20763205592E+03  0.00000000000E+00 0.  1.
          2   -1    0    0  501    0  0.00000000000E+00 -0.00000000000E+00 -0.16630868555E+04  0.16630868555E+04  0.00000000000E+00 0. -1.
         24    2    1    2    0    0  0.11274390960E+02 -0.22007262279E+03 -0.42437783335E+03  0.48514738969E+03  0.81929073557E+02 0.  0.
        254    2    1    2    0    0 -0.11274390960E+02  0.22007262279E+03 -0.10310769662E+04  0.13855715217E+04  0.89896032188E+03 0.  0.
         23    2    4    4    0    0  0.23569468782E+03  0.11692284957E+03  0.36016381513E+02  0.28134996644E+03  0.92939148172E+02 0.  0.
         23    2    4    4    0    0 -0.24696907878E+03  0.10314977322E+03 -0.10670933477E+04  0.11042215552E+04  0.94780951564E+02 0.  0.
          4    1    3    3  502    0  0.41050932820E+02 -0.17231726536E+03 -0.34533098999E+03  0.38811327170E+03  0.00000000000E+00 0. -1.
         -3    1    3    3    0  502 -0.29776541861E+02 -0.47755357429E+02 -0.79046843360E+02  0.97034117987E+02  0.00000000000E+00 0.  1.
         11    1    5    5    0    0  0.15963019516E+03  0.64612212472E+02  0.65792698557E+02  0.18435079710E+03  0.00000000000E+00 0. -1.
        -11    1    5    5    0    0  0.76064492662E+02  0.52310637096E+02 -0.29776317044E+02  0.96999169347E+02  0.00000000000E+00 0.  1.
          3    1    6    6  503    0 -0.39619332614E+02  0.57745160284E+02 -0.31907689786E+03  0.32667148912E+03  0.00000000000E+00 0. -1.
         -3    1    6    6    0  503 -0.20734974617E+03  0.45404612935E+02 -0.74801644984E+03  0.77755006613E+03  0.00000000000E+00 0.  1.
<mgrwt>
<rscale>  0 0.11752619E+04</rscale>
<asrwt>0</asrwt>
<pdfrwt beam="1">  1        2 0.25585951E+00 0.11752619E+04</pdfrwt>
<pdfrwt beam="2">  1       -1 0.31943394E-01 0.11752619E+04</pdfrwt>
<totfact> 0.10572469E+02</totfact>
</mgrwt>
</event>
<event>
12    6  0.1510140E-007  0.4135274E+04  0.7818608E-02  0.7977800E-01
         -1   -1    0    0    0  501 -0.00000000000E+00  0.00000000000E+00  0.21198601523E+04  0.21198601523E+04  0.00000000000E+00 0.  1.
          2   -1    0    0  501    0  0.00000000000E+00 -0.00000000000E+00 -0.20167008484E+04  0.20167008484E+04  0.00000000000E+00 0. -1.
         24    2    1    2    0    0  0.18362543075E+04  0.67744299664E+03 -0.16975310747E+03  0.19661791273E+04  0.79280185462E+02 0.  0.
        254    2    1    2    0    0 -0.18362543075E+04 -0.67744299664E+03  0.27291241130E+03  0.21703818734E+04  0.89739478310E+03 0.  0.
         23    2    4    4    0    0 -0.14911954672E+04 -0.44120171729E+03  0.55838177352E+03  0.16549485513E+04  0.93496660825E+02 0.  0.
         23    2    4    4    0    0 -0.34505884023E+03 -0.23624127934E+03 -0.28546936221E+03  0.51543332210E+03  0.96453136198E+02 0.  0.
          2    1    3    3  502    0  0.57260319420E+03  0.19298609153E+03 -0.19946828046E+02  0.60457913087E+03  0.00000000000E+00 0. -1.
         -1    1    3    3    0  502  0.12636511132E+04  0.48445690511E+03 -0.14980627942E+03  0.13615999964E+04  0.00000000000E+00 0.  1.
         11    1    5    5    0    0 -0.32423505799E+03 -0.13021723488E+03  0.14772994979E+03  0.37935344885E+03  0.00000000000E+00 0.  1.
        -11    1    5    5    0    0 -0.11669604092E+04 -0.31098448242E+03  0.41065182373E+03  0.12755951024E+04  0.00000000000E+00 0. -1.
          2    1    6    6  503    0 -0.18194597154E+03 -0.17884666912E+03 -0.18823762402E+03  0.31705499636E+03  0.00000000000E+00 0. -1.
         -2    1    6    6    0  503 -0.16311286869E+03 -0.57394610223E+02 -0.97231738192E+02  0.19837832575E+03  0.00000000000E+00 0.  1.
<mgrwt>
<rscale>  0 0.41352745E+04</rscale>
<asrwt>0</asrwt>
<pdfrwt beam="1">  1        2 0.31026167E+00 0.41352745E+04</pdfrwt>
<pdfrwt beam="2">  1       -1 0.32613233E+00 0.41352745E+04</pdfrwt>
<totfact> 0.12956548E-01</totfact>
</mgrwt>
</event>
<event>
12    6  0.1510140E-007  0.2677233E+04  0.7818608E-02  0.8342430E-01
         -1   -1    0    0    0  501 -0.00000000000E+00  0.00000000000E+00  0.78372436104E+03  0.78372436104E+03  0.00000000000E+00 0.  1.
          2   -1    0    0  501    0  0.00000000000E+00 -0.00000000000E+00 -0.22863831381E+04  0.22863831381E+04  0.00000000000E+00 0. -1.
         24    2    1    2    0    0  0.72235542128E+03 -0.51196513919E+03  0.23733840582E+03  0.92028892699E+03  0.81832339983E+02 0.  0.
        254    2    1    2    0    0 -0.72235542128E+03  0.51196513919E+03 -0.17399971829E+04  0.21498185721E+04  0.90012445713E+03 0.  0.
         23    2    4    4    0    0 -0.17210420197E+03 -0.19709580607E+03 -0.13512318560E+03  0.30885876118E+03  0.93106637599E+02 0.  0.
         23    2    4    4    0    0 -0.55025121931E+03  0.70906094526E+03 -0.16048739973E+04  0.18409598110E+04  0.89267295303E+02 0.  0.
          2    1    3    3  502    0  0.12190496726E+03 -0.12108844251E+03  0.29986897875E+02  0.17442031417E+03  0.00000000000E+00 0. -1.
         -1    1    3    3    0  502  0.60045045402E+03 -0.39087669668E+03  0.20735150794E+03  0.74586861282E+03  0.00000000000E+00 0.  1.
         11    1    5    5    0    0 -0.12090738184E+03 -0.11224062147E+03 -0.12925947054E+03  0.20958187616E+03  0.00000000000E+00 0. -1.
        -11    1    5    5    0    0 -0.51196820126E+02 -0.84855184598E+02 -0.58637150618E+01  0.99276885016E+02  0.00000000000E+00 0.  1.
          4    1    6    6  503    0 -0.15642068118E+03  0.24728875509E+03 -0.58692179506E+03  0.65581731558E+03  0.00000000000E+00 0. -1.
         -4    1    6    6    0  503 -0.39383053813E+03  0.46177219016E+03 -0.10179522022E+04  0.11851424954E+04  0.00000000000E+00 0.  1.
<mgrwt>
<rscale>  0 0.26772330E+04</rscale>
<asrwt>0</asrwt>
<pdfrwt beam="1">  1        2 0.35175125E+00 0.26772330E+04</pdfrwt>
<pdfrwt beam="2">  1       -1 0.12057298E+00 0.26772330E+04</pdfrwt>
<totfact> 0.28221615E+00</totfact>
</mgrwt>
</event>
<event>
12    6  0.1510140E-007  0.1143487E+04  0.7818608E-02  0.9163814E-01
         -1   -1    0    0    0  501 -0.00000000000E+00  0.00000000000E+00  0.55110446141E+03  0.55110446141E+03  0.00000000000E+00 0.  1.
          2   -1    0    0  501    0  0.00000000000E+00 -0.00000000000E+00 -0.59315498629E+03  0.59315498629E+03  0.00000000000E+00 0. -1.
         24    2    1    2    0    0 -0.19623360430E+00  0.16219090322E+03  0.12514950180E+03  0.21883321540E+03  0.76939266730E+02 0.  0.
        254    2    1    2    0    0  0.19623360430E+00 -0.16219090322E+03 -0.16720002668E+03  0.92542623231E+03  0.89562935131E+03 0.  0.
         23    2    4    4    0    0 -0.29588381682E+03 -0.26327394270E+03  0.18234263035E+03  0.44529587798E+03  0.90438830913E+02 0.  0.
         23    2    4    4    0    0  0.29608005042E+03  0.10108303948E+03 -0.34954265703E+03  0.48013035433E+03  0.10229325949E+03 0.  0.
          4    1    3    3  502    0  0.22717372245E+02  0.10235885116E+02  0.10194494820E+02  0.26921739736E+02  0.00000000000E+00 0. -1.
         -3    1    3    3    0  502 -0.22913605849E+02  0.15195501811E+03  0.11495500698E+03  0.19191147566E+03  0.00000000000E+00 0.  1.
         11    1    5    5    0    0 -0.21596186251E+03 -0.23896003859E+03  0.15460175346E+03  0.35727178488E+03  0.00000000000E+00 0. -1.
        -11    1    5    5    0    0 -0.79921954314E+02 -0.24313904117E+02  0.27740876890E+02  0.88024093096E+02  0.00000000000E+00 0.  1.
          4    1    6    6  503    0  0.25219557820E+03  0.10770952329E+03 -0.33604815983E+03  0.43374222391E+03  0.00000000000E+00 0. -1.
         -4    1    6    6    0  503  0.43884472220E+02 -0.66264838118E+01 -0.13494497200E+02  0.46388130426E+02  0.00000000000E+00 0.  1.
<mgrwt>
<rscale>  0 0.11434865E+04</rscale>
<asrwt>0</asrwt>
<pdfrwt beam="1">  1        2 0.91254614E-01 0.11434865E+04</pdfrwt>
<pdfrwt beam="2">  1       -1 0.84785301E-01 0.11434865E+04</pdfrwt>
<totfact> 0.78396190E+01</totfact>
</mgrwt>
</event>
<event>
12    6  0.1510140E-007  0.1500573E+04  0.7818608E-02  0.8884072E-01
          2   -1    0    0  501    0  0.00000000000E+00  0.00000000000E+00  0.89143396774E+03  0.89143396774E+03  0.00000000000E+00 0. -1.
         -1   -1    0    0    0  501 -0.00000000000E+00 -0.00000000000E+00 -0.63148823773E+03  0.63148823773E+03  0.00000000000E+00 0.  1.
         24    2    1    2    0    0 -0.39290819552E+03  0.11859855971E+03 -0.14109675695E+03  0.44114652835E+03  0.79116977818E+02 0.  0.
        254    2    1    2    0    0  0.39290819552E+03 -0.11859855971E+03  0.40104248697E+03  0.10817756771E+04  0.91703929620E+03 0.  0.
         23    2    4    4    0    0 -0.11210991469E+03 -0.26936407092E+03  0.45061788479E+03  0.54442373321E+03  0.90637119956E+02 0.  0.
         23    2    4    4    0    0  0.50501811022E+03  0.15076551122E+03 -0.49575397821E+02  0.53735194391E+03  0.92281420306E+02 0.  0.
          2    1    3    3  502    0 -0.17146129789E+03  0.56048452734E+02 -0.10353351869E+03  0.20798941132E+03  0.00000000000E+00 0. -1.
         -1    1    3    3    0  502 -0.22144689763E+03  0.62550106973E+02 -0.37563238260E+02  0.23315711703E+03  0.00000000000E+00 0.  1.
         11    1    5    5    0    0 -0.10638125239E+03 -0.16945658048E+03  0.24977965491E+03  0.32003496612E+03  0.00000000000E+00 0. -1.
        -11    1    5    5    0    0 -0.57286623023E+01 -0.99907490443E+02  0.20083822987E+03  0.22438876709E+03  0.00000000000E+00 0.  1.
          2    1    6    6  503    0  0.48224422844E+03  0.15414381473E+03 -0.30062341972E+02  0.50717211664E+03  0.00000000000E+00 0. -1.
         -2    1    6    6    0  503  0.22773881773E+02 -0.33783035171E+01 -0.19513055848E+02  0.30179827272E+02  0.00000000000E+00 0.  1.
<mgrwt>
<rscale>  0 0.15005733E+04</rscale>
<asrwt>0</asrwt>
<pdfrwt beam="1">  1        2 0.13714369E+00 0.15005733E+04</pdfrwt>
<pdfrwt beam="2">  1       -1 0.97152037E-01 0.15005733E+04</pdfrwt>
<totfact> 0.33368004E+01</totfact>
</mgrwt>
</event>
<event>
12    6  0.1510140E-007  0.2535629E+04  0.7818608E-02  0.8390401E-01
         -1   -1    0    0    0  501 -0.00000000000E+00  0.00000000000E+00  0.75390841858E+03  0.75390841858E+03  0.00000000000E+00 0.  1.
          2   -1    0    0  501    0  0.00000000000E+00 -0.00000000000E+00 -0.21320273976E+04  0.21320273976E+04  0.00000000000E+00 0. -1.
         24    2    1    2    0    0  0.24631683981E+03 -0.92194237243E+03  0.91566628783E+01  0.96016321704E+03  0.10573473991E+03 0.  0.
        254    2    1    2    0    0 -0.24631683981E+03  0.92194237243E+03 -0.13872756419E+04  0.19257725992E+04  0.93456763983E+03 0.  0.
         23    2    4    4    0    0 -0.33308649014E+03  0.10105196733E+04 -0.84418525708E+03  0.13612163558E+04  0.90358169927E+02 0.  0.
         23    2    4    4    0    0  0.86769650329E+02 -0.88577300912E+02 -0.54309038486E+03  0.56455624340E+03  0.91660653395E+02 0.  0.
          2    1    3    3  502    0  0.22274902368E+03 -0.76757990409E+03 -0.27678090855E+02  0.79972627407E+03  0.00000000000E+00 0. -1.
         -1    1    3    3    0  502  0.23567816134E+02 -0.15436246834E+03  0.36834753733E+02  0.16043694297E+03  0.00000000000E+00 0.  1.
         11    1    5    5    0    0 -0.25050482491E+03  0.62381904445E+03 -0.54331948909E+03  0.86434885014E+03  0.00000000000E+00 0. -1.
        -11    1    5    5    0    0 -0.82581665233E+02  0.38670062889E+03 -0.30086576799E+03  0.49686750565E+03  0.00000000000E+00 0.  1.
          1    1    6    6  503    0  0.80992781379E+02 -0.22145410432E+02 -0.24145338655E+03  0.25563643660E+03  0.00000000000E+00 0. -1.
         -1    1    6    6    0  503  0.57768689504E+01 -0.66431890481E+02 -0.30163699830E+03  0.30891980680E+03  0.00000000000E+00 0.  1.
<mgrwt>
<rscale>  0 0.25356288E+04</rscale>
<asrwt>0</asrwt>
<pdfrwt beam="1">  1        2 0.32800421E+00 0.25356288E+04</pdfrwt>
<pdfrwt beam="2">  1       -1 0.11598591E+00 0.25356288E+04</pdfrwt>
<totfact> 0.38352626E+00</totfact>
</mgrwt>
</event>
<event>
12    6  0.1510140E-007  0.2913029E+04  0.7818608E-02  0.8269011E-01
         -1   -1    0    0    0  501 -0.00000000000E+00  0.00000000000E+00  0.11758918797E+04  0.11758918797E+04  0.00000000000E+00 0.  1.
          2   -1    0    0  501    0  0.00000000000E+00 -0.00000000000E+00 -0.18041070154E+04  0.18041070154E+04  0.00000000000E+00 0. -1.
         24    2    1    2    0    0  0.18348436995E+02  0.52314354826E+03  0.95245920864E+03  0.10898069505E+04  0.80528305488E+02 0.  0.
        254    2    1    2    0    0 -0.18348436995E+02 -0.52314354826E+03 -0.15806743443E+04  0.18901919446E+04  0.89458278968E+03 0.  0.
         23    2    4    4    0    0 -0.13148586026E+03 -0.44044204755E+03 -0.21789697336E+03  0.51716849857E+03  0.93308285897E+02 0.  0.
         23    2    4    4    0    0  0.11313742326E+03 -0.82701500712E+02 -0.13627773709E+04  0.13730234461E+04  0.91605708999E+02 0.  0.
          4    1    3    3  502    0  0.18497751603E+02  0.34922264338E+03  0.70959852721E+03  0.79109335181E+03  0.00000000000E+00 0. -1.
         -3    1    3    3    0  502 -0.14931460827E+00  0.17392090488E+03  0.24286068143E+03  0.29871359868E+03  0.00000000000E+00 0.  1.
         11    1    5    5    0    0  0.37156001627E+01 -0.84844843930E+02 -0.15784591419E+02  0.86380591295E+02  0.00000000000E+00 0. -1.
        -11    1    5    5    0    0 -0.13520146042E+03 -0.35559720362E+03 -0.20211238194E+03  0.43078790728E+03  0.00000000000E+00 0.  1.
          4    1    6    6  503    0  0.13346379603E+02  0.20082459654E+02 -0.18433368179E+03  0.18590410774E+03  0.00000000000E+00 0. -1.
         -4    1    6    6    0  503  0.99791043659E+02 -0.10278396037E+03 -0.11784436892E+04  0.11871193383E+04  0.00000000000E+00 0.  1.
<mgrwt>
<rscale>  0 0.29130292E+04</rscale>
<asrwt>0</asrwt>
<pdfrwt beam="1">  1        2 0.27755492E+00 0.29130292E+04</pdfrwt>
<pdfrwt beam="2">  1       -1 0.18090644E+00 0.29130292E+04</pdfrwt>
<totfact> 0.17266082E+00</totfact>
</mgrwt>
</event>
<event>
12    6  0.1510140E-007  0.1474155E+04  0.7818608E-02  0.8901824E-01
          2   -1    0    0  501    0  0.00000000000E+00  0.00000000000E+00  0.38162012690E+03  0.38162012690E+03  0.00000000000E+00 0. -1.
         -1   -1    0    0    0  501 -0.00000000000E+00 -0.00000000000E+00 -0.14236225261E+04  0.14236225261E+04  0.00000000000E+00 0.  1.
         24    2    1    2    0    0  0.15355927683E+03  0.26441815807E+03 -0.75162450672E+03  0.81583724254E+03  0.84578918080E+02 0.  0.
        254    2    1    2    0    0 -0.15355927683E+03 -0.26441815807E+03 -0.29037789247E+03  0.98940541045E+03  0.89504543570E+03 0.  0.
         23    2    4    4    0    0  0.12191643802E+03 -0.42660652759E+03  0.11198226929E+03  0.46742207563E+03  0.95323768830E+02 0.  0.
         23    2    4    4    0    0 -0.27547571485E+03  0.16218836952E+03 -0.40236016176E+03  0.52198333482E+03  0.91547612643E+02 0.  0.
          4    1    3    3  502    0  0.58538914461E+01 -0.39041193637E+01 -0.44629048015E+01  0.83323293464E+01  0.00000000000E+00 0. -1.
         -3    1    3    3    0  502  0.14770538538E+03  0.26832227744E+03 -0.74716160192E+03  0.80750491319E+03  0.00000000000E+00 0.  1.
         11    1    5    5    0    0  0.12407266268E+03 -0.28665879250E+03  0.59699254861E+02  0.31801146202E+03  0.00000000000E+00 0. -1.
        -11    1    5    5    0    0 -0.21562246574E+01 -0.13994773509E+03  0.52283014429E+02  0.14941061361E+03  0.00000000000E+00 0.  1.
          1    1    6    6  503    0 -0.24339845914E+03  0.11225081576E+03 -0.28990531966E+03  0.39482673404E+03  0.00000000000E+00 0. -1.
         -1    1    6    6    0  503 -0.32077255713E+02  0.49937553759E+02 -0.11245484210E+03  0.12715660078E+03  0.00000000000E+00 0.  1.
<mgrwt>
<rscale>  0 0.14741547E+04</rscale>
<asrwt>0</asrwt>
<pdfrwt beam="1">  1        2 0.58710789E-01 0.14741547E+04</pdfrwt>
<pdfrwt beam="2">  1       -1 0.21901885E+00 0.14741547E+04</pdfrwt>
<totfact> 0.10378467E+01</totfact>
</mgrwt>
</event>
<event>
12    6  0.1510140E-007  0.1364735E+04  0.7818608E-02  0.8979748E-01
         -1   -1    0    0    0  501 -0.00000000000E+00  0.00000000000E+00  0.31465562257E+03  0.31465562257E+03  0.00000000000E+00 0.  1.
          2   -1    0    0  501    0  0.00000000000E+00 -0.00000000000E+00 -0.14797930739E+04  0.14797930739E+04  0.00000000000E+00 0. -1.
         24    2    1    2    0    0  0.78401520997E+02  0.34130641306E+03 -0.13265097057E+03  0.38290724869E+03  0.79905037483E+02 0.  0.
        254    2    1    2    0    0 -0.78401520997E+02 -0.34130641306E+03 -0.10324864808E+04  0.14115414478E+04  0.89654004918E+03 0.  0.
         23    2    4    4    0    0 -0.18972565856E+03 -0.79821764705E+02  0.95913336638E+02  0.24443148064E+03  0.90443578815E+02 0.  0.
         23    2    4    4    0    0  0.11132413756E+03 -0.26148464836E+03 -0.11283998174E+04  0.11671099672E+04  0.89956892841E+02 0.  0.
          4    1    3    3  502    0  0.10214731077E+02  0.61260225794E+02 -0.58441593925E+02  0.85279399012E+02  0.00000000000E+00 0. -1.
         -3    1    3    3    0  502  0.68186789921E+02  0.28004618727E+03 -0.74209376648E+02  0.29762784968E+03  0.00000000000E+00 0.  1.
         11    1    5    5    0    0 -0.19286661184E+03 -0.57346284763E+02  0.79158033545E+02  0.21622238694E+03  0.00000000000E+00 0.  1.
        -11    1    5    5    0    0  0.31409532783E+01 -0.22475479942E+02  0.16755303093E+02  0.28209093708E+02  0.00000000000E+00 0. -1.
          1    1    6    6  503    0 -0.11522338239E+02 -0.32433237666E+01 -0.53182707852E+02  0.54513152927E+02  0.00000000000E+00 0. -1.
         -1    1    6    6    0  503  0.12284647580E+03 -0.25824132459E+03 -0.10752171096E+04  0.11125968142E+04  0.00000000000E+00 0.  1.
<mgrwt>
<rscale>  0 0.13647347E+04</rscale>
<asrwt>0</asrwt>
<pdfrwt beam="1">  1        2 0.22766047E+00 0.13647347E+04</pdfrwt>
<pdfrwt beam="2">  1       -1 0.48408557E-01 0.13647347E+04</pdfrwt>
<totfact> 0.61842137E+01</totfact>
</mgrwt>
</event>
<event>
12    6  0.1510140E-007  0.1786926E+04  0.7818608E-02  0.8713283E-01
         -1   -1    0    0    0  501 -0.00000000000E+00  0.00000000000E+00  0.30985750578E+03  0.30985750578E+03  0.00000000000E+00 0.  1.
          2   -1    0    0  501    0  0.00000000000E+00 -0.00000000000E+00 -0.25762672034E+04  0.25762672034E+04  0.00000000000E+00 0. -1.
         24    2    1    2    0    0 -0.58430176970E+02  0.25708981985E+03  0.13309533883E+03  0.30623487267E+03  0.80970160968E+02 0.  0.
        254    2    1    2    0    0  0.58430176970E+02 -0.25708981985E+03 -0.23995050364E+04  0.25798898365E+04  0.91032845036E+03 0.  0.
         23    2    4    4    0    0  0.14211541592E+03 -0.53212713796E+03 -0.20061000642E+04  0.20823281617E+04  0.91087996868E+02 0.  0.
         23    2    4    4    0    0 -0.83685238948E+02  0.27503731810E+03 -0.39340497220E+03  0.49756167473E+03  0.10075416837E+03 0.  0.
          4    1    3    3  502    0  0.22886872766E+01  0.12899742195E+03  0.34460238937E+02  0.13354055948E+03  0.00000000000E+00 0. -1.
         -3    1    3    3    0  502 -0.60718864246E+02  0.12809239790E+03  0.98635099894E+02  0.17269431319E+03  0.00000000000E+00 0.  1.
         11    1    5    5    0    0  0.88658588552E+02 -0.36749477832E+03 -0.12123227743E+04  0.12698973449E+04  0.00000000000E+00 0. -1.
        -11    1    5    5    0    0  0.53456827365E+02 -0.16463235963E+03 -0.79377728989E+03  0.81243081686E+03  0.00000000000E+00 0.  1.
          3    1    6    6  503    0 -0.67558177658E+02  0.27936482575E+03 -0.37784932557E+03  0.47474090414E+03  0.00000000000E+00 0. -1.
         -3    1    6    6    0  503 -0.16127061290E+02 -0.43275076431E+01 -0.15555646632E+02  0.22820770591E+02  0.00000000000E+00 0.  1.
<mgrwt>
<rscale>  0 0.17869255E+04</rscale>
<asrwt>0</asrwt>
<pdfrwt beam="1">  1        2 0.39634880E+00 0.17869255E+04</pdfrwt>
<pdfrwt beam="2">  1       -1 0.47670386E-01 0.17869255E+04</pdfrwt>
<totfact> 0.14881914E+01</totfact>
</mgrwt>
</event>
<event>
12    6  0.1510140E-007  0.3447812E+04  0.7818608E-02  0.8126270E-01
          2   -1    0    0  501    0  0.00000000000E+00  0.00000000000E+00  0.19276736488E+04  0.19276736488E+04  0.00000000000E+00 0. -1.
         -1   -1    0    0    0  501 -0.00000000000E+00 -0.00000000000E+00 -0.15416777107E+04  0.15416777107E+04  0.00000000000E+00 0.  1.
         24    2    1    2    0    0  0.83210869712E+02  0.15826005733E+04  0.12933113661E+03  0.15919301600E+04  0.77242914079E+02 0.  0.
        254    2    1    2    0    0 -0.83210869712E+02 -0.15826005733E+04  0.25666480144E+03  0.18774211995E+04  0.97328562950E+03 0.  0.
         23    2    4    4    0    0 -0.11895753973E+03 -0.48927427324E+03 -0.35370414028E+03  0.62142176712E+03  0.86707456910E+02 0.  0.
         23    2    4    4    0    0  0.35746670017E+02 -0.10933263001E+04  0.61036894172E+03  0.12559994324E+04  0.91346079915E+02 0.  0.
          2    1    3    3  502    0  0.97865557035E+02  0.13935690202E+04  0.11865255601E+03  0.14020309234E+04  0.00000000000E+00 0. -1.
         -1    1    3    3    0  502 -0.14654687323E+02  0.18903155314E+03  0.10678580599E+02  0.18989923651E+03  0.00000000000E+00 0.  1.
         11    1    5    5    0    0 -0.48583358235E+02 -0.31727900135E+03 -0.18524774580E+03  0.37059821197E+03  0.00000000000E+00 0.  1.
        -11    1    5    5    0    0 -0.70374181493E+02 -0.17199527189E+03 -0.16845639448E+03  0.25082355515E+03  0.00000000000E+00 0. -1.
          3    1    6    6  503    0  0.15812084883E+02 -0.58260381762E+03  0.27303586622E+03  0.64360377141E+03  0.00000000000E+00 0. -1.
         -3    1    6    6    0  503  0.19934585133E+02 -0.51072248246E+03  0.33733307549E+03  0.61239566098E+03  0.00000000000E+00 0.  1.
<mgrwt>
<rscale>  0 0.34478118E+04</rscale>
<asrwt>0</asrwt>
<pdfrwt beam="1">  1        2 0.29656518E+00 0.34478118E+04</pdfrwt>
<pdfrwt beam="2">  1       -1 0.23718119E+00 0.34478118E+04</pdfrwt>
<totfact> 0.58221708E-01</totfact>
</mgrwt>
</event>
<event>
12    6  0.1510140E-007  0.1492319E+04  0.7818608E-02  0.8889577E-01
         -1   -1    0    0    0  501 -0.00000000000E+00  0.00000000000E+00  0.79790428368E+03  0.79790428368E+03  0.00000000000E+00 0.  1.
          2   -1    0    0  501    0  0.00000000000E+00 -0.00000000000E+00 -0.69777067731E+03  0.69777067731E+03  0.00000000000E+00 0. -1.
         24    2    1    2    0    0 -0.12273993421E+03  0.43861228062E+03 -0.15782935674E+03  0.48832583174E+03  0.78142100918E+02 0.  0.
        254    2    1    2    0    0  0.12273993421E+03 -0.43861228062E+03  0.25796296311E+03  0.10073491293E+04  0.86067505698E+03 0.  0.
         23    2    4    4    0    0 -0.28202183727E+03 -0.28578635743E+03  0.36747071914E+03  0.55195583366E+03  0.91707982762E+02 0.  0.
         23    2    4    4    0    0  0.40476177147E+03 -0.15282592319E+03 -0.10950775602E+03  0.45539329559E+03  0.90571797983E+02 0.  0.
          2    1    3    3  502    0 -0.11468687613E+03  0.40014931753E+03 -0.16608597245E+03  0.44817084479E+03  0.00000000000E+00 0. -1.
         -1    1    3    3    0  502 -0.80530580718E+01  0.38462963096E+02  0.82566157049E+01  0.40154986955E+02  0.00000000000E+00 0.  1.
         11    1    5    5    0    0 -0.15663210205E+03 -0.17663795865E+03  0.15600853967E+03  0.28297216874E+03  0.00000000000E+00 0. -1.
        -11    1    5    5    0    0 -0.12538973522E+03 -0.10914839879E+03  0.21146217946E+03  0.26898366493E+03  0.00000000000E+00 0.  1.
          2    1    6    6  503    0  0.95467717524E+02 -0.97926274244E+01  0.44663043714E+01  0.96072516964E+02  0.00000000000E+00 0. -1.
         -2    1    6    6    0  503  0.30929405395E+03 -0.14303329577E+03 -0.11397406040E+03  0.35932077862E+03  0.00000000000E+00 0.  1.
<mgrwt>
<rscale>  0 0.14923193E+04</rscale>
<asrwt>0</asrwt>
<pdfrwt beam="1">  1        2 0.10734934E+00 0.14923193E+04</pdfrwt>
<pdfrwt beam="2">  1       -1 0.12275451E+00 0.14923193E+04</pdfrwt>
<totfact> 0.26600105E+01</totfact>
</mgrwt>
</event>
<event>
12    6  0.1510140E-007  0.1875318E+04  0.7818608E-02  0.8667241E-01
          2   -1    0    0  501    0  0.00000000000E+00  0.00000000000E+00  0.24625629730E+04  0.24625629730E+04  0.00000000000E+00 0. -1.
         -1   -1    0    0    0  501 -0.00000000000E+00 -0.00000000000E+00 -0.35702827204E+03  0.35702827204E+03  0.00000000000E+00 0.  1.
         24    2    1    2    0    0  0.26503379806E+03  0.26546718409E+03 -0.94206178624E+02  0.39438921575E+03  0.77151211671E+02 0.  0.
        254    2    1    2    0    0 -0.26503379806E+03 -0.26546718409E+03  0.21997408796E+04  0.24252020293E+04  0.94975218115E+03 0.  0.
         23    2    4    4    0    0 -0.75853959628E+02  0.30438650547E+03  0.12946018592E+04  0.13352594378E+04  0.92297477179E+02 0.  0.
         23    2    4    4    0    0 -0.18917983844E+03 -0.56985368956E+03  0.90513902033E+03  0.10899425915E+04  0.90421058815E+02 0.  0.
          2    1    3    3  502    0  0.12632873838E+01  0.25681957448E+02 -0.13141818612E+00  0.25713344864E+02  0.00000000000E+00 0. -1.
         -1    1    3    3    0  502  0.26377051068E+03  0.23978522664E+03 -0.94074760438E+02  0.36867587089E+03  0.00000000000E+00 0.  1.
         11    1    5    5    0    0 -0.53951812025E+02  0.60197817505E+02  0.36777434319E+03  0.37655350585E+03  0.00000000000E+00 0.  1.
        -11    1    5    5    0    0 -0.21902147603E+02  0.24418868797E+03  0.92682751605E+03  0.95870593193E+03  0.00000000000E+00 0. -1.
          1    1    6    6  503    0 -0.14320561713E+03 -0.28814078529E+03  0.47918284178E+03  0.57719074558E+03  0.00000000000E+00 0. -1.
         -1    1    6    6    0  503 -0.45974221310E+02 -0.28171290427E+03  0.42595617855E+03  0.51275184593E+03  0.00000000000E+00 0.  1.
<mgrwt>
<rscale>  0 0.18753182E+04</rscale>
<asrwt>0</asrwt>
<pdfrwt beam="1">  1        2 0.37885583E+00 0.18753182E+04</pdfrwt>
<pdfrwt beam="2">  1       -1 0.54927428E-01 0.18753182E+04</pdfrwt>
<totfact> 0.13105798E+01</totfact>
</mgrwt>
</event>
<event>
12    6  0.1510140E-007  0.1283949E+04  0.7818608E-02  0.9042392E-01
         -1   -1    0    0    0  501 -0.00000000000E+00  0.00000000000E+00  0.15097893230E+03  0.15097893230E+03  0.00000000000E+00 0.  1.
          2   -1    0    0  501    0  0.00000000000E+00 -0.00000000000E+00 -0.27297262566E+04  0.27297262566E+04  0.00000000000E+00 0. -1.
         24    2    1    2    0    0 -0.19475831654E+03  0.24934119999E+03 -0.72263139933E+03  0.79553161452E+03  0.10282302532E+03 0.  0.
        254    2    1    2    0    0  0.19475831654E+03 -0.24934119999E+03 -0.18561159249E+04  0.20851735743E+04  0.89592447922E+03 0.  0.
         23    2    4    4    0    0 -0.42737231571E+02 -0.52201026953E+03 -0.76044274325E+03  0.92780276781E+03  0.90684164792E+02 0.  0.
         23    2    4    4    0    0  0.23749554811E+03  0.27266906953E+03 -0.10956731817E+04  0.11573708065E+04  0.90856512639E+02 0.  0.
          4    1    3    3  502    0 -0.50009611339E+02  0.22383831950E+02 -0.65451167809E+02  0.85357205476E+02  0.00000000000E+00 0. -1.
         -3    1    3    3    0  502 -0.14474870520E+03  0.22695736805E+03 -0.65718023152E+03  0.71017440905E+03  0.00000000000E+00 0.  1.
         11    1    5    5    0    0  0.94622716770E+01 -0.16569774899E+03 -0.30454540356E+03  0.34683307431E+03  0.00000000000E+00 0. -1.
        -11    1    5    5    0    0 -0.52199503248E+02 -0.35631252054E+03 -0.45589733969E+03  0.58096969350E+03  0.00000000000E+00 0.  1.
          4    1    6    6  503    0  0.16128916837E+02  0.72819271594E+02 -0.22397734032E+03  0.23606913659E+03  0.00000000000E+00 0. -1.
         -4    1    6    6    0  503  0.22136663128E+03  0.19984979794E+03 -0.87169584137E+03  0.92130166994E+03  0.00000000000E+00 0.  1.
<mgrwt>
<rscale>  0 0.12839488E+04</rscale>
<asrwt>0</asrwt>
<pdfrwt beam="1">  1        2 0.41995786E+00 0.12839488E+04</pdfrwt>
<pdfrwt beam="2">  1       -1 0.23227530E-01 0.12839488E+04</pdfrwt>
<totfact> 0.45607995E+01</totfact>
</mgrwt>
</event>
<event>
12    6  0.1510140E-007  0.1213233E+04  0.7818608E-02  0.9101352E-01
          2   -1    0    0  501    0  0.00000000000E+00  0.00000000000E+00  0.11044413829E+04  0.11044413829E+04  0.00000000000E+00 0. -1.
         -1   -1    0    0    0  501 -0.00000000000E+00 -0.00000000000E+00 -0.33318498787E+03  0.33318498787E+03  0.00000000000E+00 0.  1.
         24    2    1    2    0    0 -0.15459750049E+01  0.36005227361E+02 -0.12680758656E+03  0.15417600159E+03  0.79945662922E+02 0.  0.
        254    2    1    2    0    0  0.15459750049E+01 -0.36005227361E+02  0.89806398157E+03  0.12834503692E+04  0.91620258060E+03 0.  0.
         23    2    4    4    0    0 -0.32670423704E+03  0.28780412090E+03  0.39483581859E+03  0.59488188050E+03  0.91772858721E+02 0.  0.
         23    2    4    4    0    0  0.32825021205E+03 -0.32380934826E+03  0.50322816298E+03  0.68856848867E+03  0.91034520048E+02 0.  0.
          4    1    3    3  502    0  0.30389489775E+01  0.60724094646E+02 -0.10268048026E+03  0.11933118581E+03  0.00000000000E+00 0. -1.
         -3    1    3    3    0  502 -0.45849239824E+01 -0.24718867285E+02 -0.24127106300E+02  0.34844815773E+02  0.00000000000E+00 0.  1.
         11    1    5    5    0    0 -0.24428035348E+03  0.23497096209E+03  0.34993209282E+03  0.48717216024E+03  0.00000000000E+00 0. -1.
        -11    1    5    5    0    0 -0.82423883568E+02  0.52833158810E+02  0.44903725767E+02  0.10770972027E+03  0.00000000000E+00 0.  1.
          1    1    6    6  503    0  0.14092726850E+03 -0.20168986495E+03  0.25080481412E+03  0.35134363722E+03  0.00000000000E+00 0. -1.
         -1    1    6    6    0  503  0.18732294355E+03 -0.12211948331E+03  0.25242334885E+03  0.33722485144E+03  0.00000000000E+00 0.  1.
<mgrwt>
<rscale>  0 0.12132325E+04</rscale>
<asrwt>0</asrwt>
<pdfrwt beam="1">  1        2 0.16991406E+00 0.12132325E+04</pdfrwt>
<pdfrwt beam="2">  1       -1 0.51259229E-01 0.12132325E+04</pdfrwt>
<totfact> 0.93132299E+01</totfact>
</mgrwt>
</event>
<event>
12    6  0.1510140E-007  0.2940080E+04  0.7818608E-02  0.8261052E-01
          2   -1    0    0  501    0  0.00000000000E+00  0.00000000000E+00  0.15546557653E+04  0.15546557653E+04  0.00000000000E+00 0. -1.
         -1   -1    0    0    0  501 -0.00000000000E+00 -0.00000000000E+00 -0.13900292855E+04  0.13900292855E+04  0.00000000000E+00 0.  1.
         24    2    1    2    0    0  0.71572526539E+03 -0.51332878603E+03 -0.92906273130E+03  0.12827099461E+04  0.80113350767E+02 0.  0.
        254    2    1    2    0    0 -0.71572526539E+03  0.51332878603E+03  0.10936892111E+04  0.16619751048E+04  0.88895222611E+03 0.  0.
         23    2    4    4    0    0 -0.73509937464E+02  0.40825097862E+02 -0.14244294129E+03  0.18847978544E+03  0.90356175632E+02 0.  0.
         23    2    4    4    0    0 -0.64221532793E+03  0.47250368817E+03  0.12361321524E+04  0.14734953193E+04  0.86403096848E+02 0.  0.
          4    1    3    3  502    0  0.21228249440E+03 -0.19691778839E+03 -0.31846238897E+03  0.43041696760E+03  0.00000000000E+00 0. -1.
         -3    1    3    3    0  502  0.50344277099E+03 -0.31641099765E+03 -0.61060034233E+03  0.85229297847E+03  0.00000000000E+00 0.  1.
         11    1    5    5    0    0 -0.36724204912E+02  0.41497412544E+02 -0.14118056407E+03  0.15166625909E+03  0.00000000000E+00 0. -1.
        -11    1    5    5    0    0 -0.36785732552E+02 -0.67231468187E+00 -0.12623772212E+01  0.36813526355E+02  0.00000000000E+00 0.  1.
          4    1    6    6  503    0 -0.33021447559E+03  0.19145812946E+03  0.56675540091E+03  0.68330776352E+03  0.00000000000E+00 0. -1.
         -4    1    6    6    0  503 -0.31200085234E+03  0.28104555871E+03  0.66937675149E+03  0.79018755582E+03  0.00000000000E+00 0.  1.
<mgrwt>
<rscale>  0 0.29400796E+04</rscale>
<asrwt>0</asrwt>
<pdfrwt beam="1">  1        2 0.23917781E+00 0.29400796E+04</pdfrwt>
<pdfrwt beam="2">  1       -1 0.21385066E+00 0.29400796E+04</pdfrwt>
<totfact> 0.14020664E+00</totfact>
</mgrwt>
</event>
<event>
12    6  0.1510140E-007  0.2813734E+04  0.7818608E-02  0.8299017E-01
          2   -1    0    0  501    0  0.00000000000E+00  0.00000000000E+00  0.35692371953E+04  0.35692371953E+04  0.00000000000E+00 0. -1.
         -1   -1    0    0    0  501 -0.00000000000E+00 -0.00000000000E+00 -0.55453727796E+03  0.55453727796E+03  0.00000000000E+00 0.  1.
         24    2    1    2    0    0  0.12039552480E+04 -0.36027014791E+03  0.12221755542E+04  0.17548960167E+04  0.81511506600E+02 0.  0.
        254    2    1    2    0    0 -0.12039552480E+04  0.36027014791E+03  0.17925243632E+04  0.23688784566E+04  0.90506283245E+03 0.  0.
         23    2    4    4    0    0 -0.26178591639E+03  0.89171018511E+01  0.11242940532E+04  0.11582111179E+04  0.93832269165E+02 0.  0.
         23    2    4    4    0    0 -0.94216933159E+03  0.35135304606E+03  0.66823030995E+03  0.12106673387E+04  0.89730961205E+02 0.  0.
          4    1    3    3  502    0  0.20343528601E+02 -0.18071378720E+02  0.28648488173E+02  0.39511640809E+02  0.00000000000E+00 0. -1.
         -3    1    3    3    0  502  0.11836117194E+04 -0.34219876919E+03  0.11935270660E+04  0.17153843759E+04  0.00000000000E+00 0.  1.
         11    1    5    5    0    0 -0.50941661583E+02  0.11203395274E+02  0.10388298283E+03  0.11624217424E+03  0.00000000000E+00 0.  1.
        -11    1    5    5    0    0 -0.21084425481E+03 -0.22862934233E+01  0.10204110704E+04  0.10419689436E+04  0.00000000000E+00 0. -1.
          2    1    6    6  503    0 -0.86429500455E+03  0.31672643764E+03  0.57996031401E+03  0.10879685000E+04  0.00000000000E+00 0. -1.
         -2    1    6    6    0  503 -0.77874327043E+02  0.34626608420E+02  0.88269995943E+02  0.12269883865E+03  0.00000000000E+00 0.  1.
<mgrwt>
<rscale>  0 0.28137342E+04</rscale>
<asrwt>0</asrwt>
<pdfrwt beam="1">  1        2 0.54911340E+00 0.28137342E+04</pdfrwt>
<pdfrwt beam="2">  1       -1 0.85313430E-01 0.28137342E+04</pdfrwt>
<totfact> 0.97431695E-01</totfact>
</mgrwt>
</event>
<event>
12    6  0.1510140E-007  0.1939369E+04  0.7818608E-02  0.8635504E-01
          2   -1    0    0  501    0  0.00000000000E+00  0.00000000000E+00  0.10318559401E+04  0.10318559401E+04  0.00000000000E+00 0. -1.
         -1   -1    0    0    0  501 -0.00000000000E+00 -0.00000000000E+00 -0.91125875822E+03  0.91125875822E+03  0.00000000000E+00 0.  1.
         24    2    1    2    0    0 -0.37803416996E+03  0.26716729812E+03  0.64186707763E+03  0.79552054523E+03  0.81064133256E+02 0.  0.
        254    2    1    2    0    0  0.37803416996E+03 -0.26716729812E+03 -0.52126989575E+03  0.11475941531E+04  0.91157108178E+03 0.  0.
         23    2    4    4    0    0  0.54928661983E+03 -0.25676571533E+03 -0.22697832093E+02  0.61366576347E+03  0.91793542194E+02 0.  0.
         23    2    4    4    0    0 -0.17125244986E+03 -0.10401582790E+02 -0.49857206365E+03  0.53392838961E+03  0.84082269646E+02 0.  0.
          4    1    3    3  502    0 -0.36858670097E+03  0.23772392799E+03  0.59055221154E+03  0.73560909227E+03  0.00000000000E+00 0. -1.
         -3    1    3    3    0  502 -0.94474689966E+01  0.29443370132E+02  0.51314866084E+02  0.59911452966E+02  0.00000000000E+00 0.  1.
         11    1    5    5    0    0  0.13186118124E+03 -0.55391362601E+02  0.33259913980E+02  0.14683935456E+03  0.00000000000E+00 0. -1.
        -11    1    5    5    0    0  0.41742543858E+03 -0.20137435273E+03 -0.55957746073E+02  0.46682640891E+03  0.00000000000E+00 0.  1.
          1    1    6    6  503    0 -0.69159799875E+02  0.80658507193E+01 -0.31926167082E+03  0.32676620132E+03  0.00000000000E+00 0. -1.
         -1    1    6    6    0  503 -0.10209264999E+03 -0.18467433510E+02 -0.17931039283E+03  0.20716218830E+03  0.00000000000E+00 0.  1.
<mgrwt>
<rscale>  0 0.19393687E+04</rscale>
<asrwt>0</asrwt>
<pdfrwt beam="1">  1        2 0.15874707E+00 0.19393687E+04</pdfrwt>
<pdfrwt beam="2">  1       -1 0.14019365E+00 0.19393687E+04</pdfrwt>
<totfact> 0.10690838E+01</totfact>
</mgrwt>
</event>
<event>
12    6  0.1510140E-007  0.1822910E+04  0.7818608E-02  0.8694210E-01
         -1   -1    0    0    0  501 -0.00000000000E+00  0.00000000000E+00  0.34984650399E+03  0.34984650399E+03  0.00000000000E+00 0.  1.
          2   -1    0    0  501    0  0.00000000000E+00 -0.00000000000E+00 -0.23746145509E+04  0.23746145509E+04  0.00000000000E+00 0. -1.
         24    2    1    2    0    0  0.16866726233E+03  0.38626912994E+02 -0.17611006943E+04  0.17716675959E+04  0.85963545433E+02 0.  0.
        254    2    1    2    0    0 -0.16866726233E+03 -0.38626912994E+02 -0.26366735261E+03  0.95279345899E+03  0.89908521224E+03 0.  0.
         23    2    4    4    0    0 -0.12766793831E+03  0.27414927035E+03  0.20875526283E+03  0.37783223727E+03  0.87872150620E+02 0.  0.
         23    2    4    4    0    0 -0.40999324022E+02 -0.31277618334E+03 -0.47242261545E+03  0.57496122172E+03  0.88810998569E+02 0.  0.
          4    1    3    3  502    0  0.13920444169E+03  0.44279613571E+02 -0.16541946084E+04  0.16606319169E+04  0.00000000000E+00 0. -1.
         -3    1    3    3    0  502  0.29462820644E+02 -0.56527005772E+01 -0.10690608587E+03  0.11103567904E+03  0.00000000000E+00 0.  1.
         11    1    5    5    0    0  0.12031606318E+01  0.11467124625E+02  0.36551624958E+02  0.38327063933E+02  0.00000000000E+00 0.  1.
        -11    1    5    5    0    0 -0.12887109894E+03  0.26268214572E+03  0.17220363787E+03  0.33950517333E+03  0.00000000000E+00 0. -1.
          1    1    6    6  503    0 -0.31409057365E+02 -0.31428245367E+03 -0.44366080052E+03  0.54460526576E+03  0.00000000000E+00 0. -1.
         -1    1    6    6    0  503 -0.95902666572E+01  0.15062703344E+01 -0.28761814923E+02  0.30355955965E+02  0.00000000000E+00 0.  1.
<mgrwt>
<rscale>  0 0.18229104E+04</rscale>
<asrwt>0</asrwt>
<pdfrwt beam="1">  1        2 0.36532531E+00 0.18229104E+04</pdfrwt>
<pdfrwt beam="2">  1       -1 0.53822540E-01 0.18229104E+04</pdfrwt>
<totfact> 0.15378741E+01</totfact>
</mgrwt>
</event>
<event>
12    6  0.1510140E-007  0.1718297E+04  0.7818608E-02  0.8750997E-01
          2   -1    0    0  501    0  0.00000000000E+00  0.00000000000E+00  0.22544312308E+04  0.22544312308E+04  0.00000000000E+00 0. -1.
         -1   -1    0    0    0  501 -0.00000000000E+00 -0.00000000000E+00 -0.32741555061E+03  0.32741555061E+03  0.00000000000E+00 0.  1.
         24    2    1    2    0    0 -0.45237508599E+03 -0.34866614504E+03  0.36377350845E+03  0.68134390302E+03  0.75412529559E+02 0.  0.
        254    2    1    2    0    0  0.45237508599E+03  0.34866614504E+03  0.15632421718E+04  0.19005028784E+04  0.91759130561E+03 0.  0.
         23    2    4    4    0    0 -0.55117248904E+02  0.25449611364E+03  0.27083867794E+02  0.27729596520E+03  0.91396572342E+02 0.  0.
         23    2    4    4    0    0  0.50749233489E+03  0.94170031406E+02  0.15361583040E+04  0.16232069132E+04  0.92746339281E+02 0.  0.
          2    1    3    3  502    0 -0.48912279214E+02 -0.57467314382E+02  0.25432138411E+02  0.79634772206E+02  0.00000000000E+00 0. -1.
         -1    1    3    3    0  502 -0.40346280677E+03 -0.29119883066E+03  0.33834137004E+03  0.60170913082E+03  0.00000000000E+00 0.  1.
         11    1    5    5    0    0 -0.57849324692E+02  0.25068570618E+03  0.77382351492E+01  0.25739026386E+03  0.00000000000E+00 0. -1.
        -11    1    5    5    0    0  0.27320757877E+01  0.38104074617E+01  0.19345632645E+02  0.19905701333E+02  0.00000000000E+00 0.  1.
          3    1    6    6  503    0  0.48594709184E+03  0.82038680341E+02  0.13856338266E+04  0.14706651633E+04  0.00000000000E+00 0. -1.
         -3    1    6    6    0  503  0.21545243048E+02  0.12131351065E+02  0.15052447736E+03  0.15254174989E+03  0.00000000000E+00 0.  1.
<mgrwt>
<rscale>  0 0.17182966E+04</rscale>
<asrwt>0</asrwt>
<pdfrwt beam="1">  1        2 0.34683556E+00 0.17182966E+04</pdfrwt>
<pdfrwt beam="2">  1       -1 0.50371625E-01 0.17182966E+04</pdfrwt>
<totfact> 0.20616440E+01</totfact>
</mgrwt>
</event>
<event>
12    6  0.1510140E-007  0.1930189E+04  0.7818608E-02  0.8639973E-01
          2   -1    0    0  501    0  0.00000000000E+00  0.00000000000E+00  0.16779892948E+04  0.16779892948E+04  0.00000000000E+00 0. -1.
         -1   -1    0    0    0  501 -0.00000000000E+00 -0.00000000000E+00 -0.55507365801E+03  0.55507365801E+03  0.00000000000E+00 0.  1.
         24    2    1    2    0    0 -0.51788719776E+03  0.19346647096E+03  0.10476064159E+04  0.11872436597E+04  0.80199002029E+02 0.  0.
        254    2    1    2    0    0  0.51788719776E+03 -0.19346647096E+03  0.75309220883E+02  0.10458192931E+04  0.88455078430E+03 0.  0.
         23    2    4    4    0    0 -0.10452905044E+02 -0.43110791092E+03 -0.56804203436E+02  0.44453948811E+03  0.91789677452E+02 0.  0.
         23    2    4    4    0    0  0.52834010281E+03  0.23764143996E+03  0.13211342432E+03  0.60127980495E+03  0.92014828917E+02 0.  0.
          4    1    3    3  502    0 -0.89022096294E+02  0.37125558918E+02  0.25437535156E+03  0.27204790063E+03  0.00000000000E+00 0. -1.
         -3    1    3    3    0  502 -0.42886510147E+03  0.15634091204E+03  0.79323106433E+03  0.91519575909E+03  0.00000000000E+00 0.  1.
         11    1    5    5    0    0 -0.33038252032E+02 -0.34289553302E+03 -0.16270501302E+02  0.34486751351E+03  0.00000000000E+00 0. -1.
        -11    1    5    5    0    0  0.22585346987E+02 -0.88212377893E+02 -0.40533702135E+02  0.99671974601E+02  0.00000000000E+00 0.  1.
          4    1    6    6  503    0  0.17645369244E+03  0.62164614549E+02  0.19848174381E+01  0.18709431947E+03  0.00000000000E+00 0. -1.
         -4    1    6    6    0  503  0.35188641037E+03  0.17547682541E+03  0.13012860688E+03  0.41418548548E+03  0.00000000000E+00 0.  1.
<mgrwt>
<rscale>  0 0.19301893E+04</rscale>
<asrwt>0</asrwt>
<pdfrwt beam="1">  1        2 0.25815220E+00 0.19301893E+04</pdfrwt>
<pdfrwt beam="2">  1       -1 0.85395948E-01 0.19301893E+04</pdfrwt>
<totfact> 0.14549563E+01</totfact>
</mgrwt>
</event>
<event>
12    6  0.1510140E-007  0.1600217E+04  0.7818608E-02  0.8820414E-01
         -1   -1    0    0    0  501 -0.00000000000E+00  0.00000000000E+00  0.37126520668E+03  0.37126520668E+03  0.00000000000E+00 0.  1.
          2   -1    0    0  501    0  0.00000000000E+00 -0.00000000000E+00 -0.17243035689E+04  0.17243035689E+04  0.00000000000E+00 0. -1.
         24    2    1    2    0    0 -0.26905372634E+01 -0.50013460490E+03 -0.19484448993E+03  0.54266067878E+03  0.79839683262E+02 0.  0.
        254    2    1    2    0    0  0.26905372634E+01  0.50013460490E+03 -0.11581938723E+04  0.15529080968E+04  0.90552120312E+03 0.  0.
         23    2    4    4    0    0 -0.43888963825E+03  0.25663916838E+03 -0.50657077979E+03  0.72333609951E+03  0.90074306038E+02 0.  0.
         23    2    4    4    0    0  0.44158017551E+03  0.24349543652E+03 -0.65162309249E+03  0.82957199729E+03  0.96405212587E+02 0.  0.
          4    1    3    3  502    0 -0.14699479027E+02 -0.31744583743E+02 -0.29620154537E+02  0.45838268242E+02  0.00000000000E+00 0. -1.
         -3    1    3    3    0  502  0.12008941763E+02 -0.46839002116E+03 -0.16522433540E+03  0.49682241053E+03  0.00000000000E+00 0.  1.
         11    1    5    5    0    0 -0.16587487113E+03  0.48005076102E+02 -0.17402355823E+03  0.24515945631E+03  0.00000000000E+00 0.  1.
        -11    1    5    5    0    0 -0.27301476712E+03  0.20863409228E+03 -0.33254722156E+03  0.47817664319E+03  0.00000000000E+00 0. -1.
          1    1    6    6  503    0  0.43763828553E+03  0.23793557603E+03 -0.61075019984E+03  0.78813476888E+03  0.00000000000E+00 0. -1.
         -1    1    6    6    0  503  0.39418899798E+01  0.55598604824E+01 -0.40872892650E+02  0.41437228415E+02  0.00000000000E+00 0.  1.
<mgrwt>
<rscale>  0 0.16002174E+04</rscale>
<asrwt>0</asrwt>
<pdfrwt beam="1">  1        2 0.26527747E+00 0.16002174E+04</pdfrwt>
<pdfrwt beam="2">  1       -1 0.57117725E-01 0.16002174E+04</pdfrwt>
<totfact> 0.32228549E+01</totfact>
</mgrwt>
</event>
<event>
12    6  0.1510140E-007  0.1309745E+04  0.7818608E-02  0.9021873E-01
         -1   -1    0    0    0  501 -0.00000000000E+00  0.00000000000E+00  0.94811272949E+03  0.94811272949E+03  0.00000000000E+00 0.  1.
          4   -1    0    0  501    0  0.00000000000E+00 -0.00000000000E+00 -0.45232790788E+03  0.45232790788E+03  0.00000000000E+00 0. -1.
         24    2    1    2    0    0 -0.25779614253E+03  0.21242734526E+03  0.19125716252E+03  0.39265582706E+03  0.77556870686E+02 0.  0.
        254    2    1    2    0    0  0.25779614253E+03 -0.21242734526E+03  0.30452765908E+03  0.10077848103E+04  0.90072687350E+03 0.  0.
         23    2    4    4    0    0 -0.21499412586E+03 -0.40754638812E+02  0.42161863723E+03  0.48325909191E+03  0.88846271269E+02 0.  0.
         23    2    4    4    0    0  0.47279026839E+03 -0.17167270644E+03 -0.11709097815E+03  0.52452571840E+03  0.91732088602E+02 0.  0.
          2    1    3    3  502    0 -0.67620240860E+02  0.66752440078E+02  0.17251187936E+02  0.96571158818E+02  0.00000000000E+00 0. -1.
         -1    1    3    3    0  502 -0.19017590167E+03  0.14567490518E+03  0.17400597459E+03  0.29608466824E+03  0.00000000000E+00 0.  1.
         11    1    5    5    0    0 -0.74125575807E+02  0.23183926235E+02  0.18399337380E+03  0.19971393799E+03  0.00000000000E+00 0.  1.
        -11    1    5    5    0    0 -0.14086855005E+03 -0.63938565047E+02  0.23762526343E+03  0.28354515392E+03  0.00000000000E+00 0. -1.
          4    1    6    6  503    0  0.39264030542E+03 -0.10479850458E+03 -0.83555753324E+02  0.41488636989E+03  0.00000000000E+00 0. -1.
         -4    1    6    6    0  503  0.80149962966E+02 -0.66874201864E+02 -0.33535224828E+02  0.10963934851E+03  0.00000000000E+00 0.  1.
<mgrwt>
<rscale>  0 0.13097448E+04</rscale>
<asrwt>0</asrwt>
<pdfrwt beam="1">  1        4 0.69588909E-01 0.13097448E+04</pdfrwt>
<pdfrwt beam="2">  1       -1 0.14586350E+00 0.13097448E+04</pdfrwt>
<totfact> 0.29173979E+00</totfact>
</mgrwt>
</event>
<event>
12    6  0.1510140E-007  0.2209684E+04  0.7818608E-02  0.8514408E-01
         -1   -1    0    0    0  501 -0.00000000000E+00  0.00000000000E+00  0.50060004914E+03  0.50060004914E+03  0.00000000000E+00 0.  1.
          2   -1    0    0  501    0  0.00000000000E+00 -0.00000000000E+00 -0.24384247750E+04  0.24384247750E+04  0.00000000000E+00 0. -1.
         24    2    1    2    0    0 -0.80818076253E+03  0.26177150686E+03 -0.12774214137E+04  0.15361405291E+04  0.79005001201E+02 0.  0.
        254    2    1    2    0    0  0.80818076253E+03 -0.26177150686E+03 -0.66040331215E+03  0.14028842950E+04  0.90015073396E+03 0.  0.
         23    2    4    4    0    0  0.48921574500E+03 -0.52113351262E+03 -0.14226936556E+03  0.73435569110E+03  0.90141697049E+02 0.  0.
         23    2    4    4    0    0  0.31896501753E+03  0.25936200577E+03 -0.51813394659E+03  0.66852860394E+03  0.97264460242E+02 0.  0.
          4    1    3    3  502    0 -0.23240799204E+03  0.44976845172E+02 -0.39267970807E+03  0.45851253472E+03  0.00000000000E+00 0. -1.
         -3    1    3    3    0  502 -0.57577277049E+03  0.21679466169E+03 -0.88474170563E+03  0.10776279944E+04  0.00000000000E+00 0.  1.
         11    1    5    5    0    0  0.88158779944E+02 -0.14944618638E+03 -0.28449634233E+02  0.17582808306E+03  0.00000000000E+00 0.  1.
        -11    1    5    5    0    0  0.40105696505E+03 -0.37168732625E+03 -0.11381973132E+03  0.55852760805E+03  0.00000000000E+00 0. -1.
          2    1    6    6  503    0  0.21779245204E+03  0.21603280517E+03 -0.42622251041E+03  0.52513746149E+03  0.00000000000E+00 0. -1.
         -2    1    6    6    0  503  0.10117256549E+03  0.43329200594E+02 -0.91911436181E+02  0.14339114245E+03  0.00000000000E+00 0.  1.
<mgrwt>
<rscale>  0 0.22096837E+04</rscale>
<asrwt>0</asrwt>
<pdfrwt beam="1">  1        2 0.37514226E+00 0.22096837E+04</pdfrwt>
<pdfrwt beam="2">  1       -1 0.77015395E-01 0.22096837E+04</pdfrwt>
<totfact> 0.66404271E+00</totfact>
</mgrwt>
</event>
<event>
12    6  0.2517545E-007  0.1762219E+04  0.7818608E-02  0.8726653E-01
          2   -1    0    0  501    0  0.00000000000E+00  0.00000000000E+00  0.12612869996E+04  0.12612869996E+04  0.00000000000E+00 0. -1.
         -1   -1    0    0    0  501 -0.00000000000E+00 -0.00000000000E+00 -0.61552495313E+03  0.61552495313E+03  0.00000000000E+00 0.  1.
         24    2    1    2    0    0 -0.40823433795E+03  0.37101368511E+03 -0.11530459997E+03  0.56979873133E+03  0.84077429960E+02 0.  0.
        254    2    1    2    0    0  0.40823433795E+03 -0.37101368511E+03  0.76106664644E+03  0.13070132214E+04  0.90816005824E+03 0.  0.
         23    2    4    4    0    0  0.28685394684E+03  0.26844171048E+03  0.32980141861E+03  0.52079426535E+03  0.90064156961E+02 0.  0.
         23    2    4    4    0    0  0.12138039111E+03 -0.63945539559E+03  0.43126522784E+03  0.78621895606E+03  0.92272140052E+02 0.  0.
          2    1    3    3  502    0 -0.54484698973E+02  0.27467699090E+02 -0.34535700099E+02  0.70112563045E+02  0.00000000000E+00 0. -1.
         -1    1    3    3    0  502 -0.35374963898E+03  0.34354598602E+03 -0.80768899875E+02  0.49968616828E+03  0.00000000000E+00 0.  1.
         11    1    5    5    0    0  0.27111303214E+03  0.27403724480E+03  0.32234985342E+03  0.50250185645E+03  0.00000000000E+00 0. -1.
        -11    1    5    5    0    0  0.15740914698E+02 -0.55955343217E+01  0.74515651903E+01  0.18292408908E+02  0.00000000000E+00 0.  1.
          1    1    6    6  503    0  0.10546218904E+03 -0.55912786738E+03  0.33678220169E+03  0.66118718740E+03  0.00000000000E+00 0. -1.
         -1    1    6    6    0  503  0.15918202073E+02 -0.80327528202E+02  0.94483026145E+02  0.12503176866E+03  0.00000000000E+00 0.  1.
<mgrwt>
<rscale>  0 0.17622186E+04</rscale>
<asrwt>0</asrwt>
<pdfrwt beam="1">  1        2 0.19404415E+00 0.17622186E+04</pdfrwt>
<pdfrwt beam="2">  1       -1 0.94696147E-01 0.17622186E+04</pdfrwt>
<totfact> 0.20282286E+01</totfact>
</mgrwt>
</event>
<event>
12    6  0.1510140E-007  0.1651311E+04  0.7818608E-02  0.8789631E-01
          2   -1    0    0  501    0  0.00000000000E+00  0.00000000000E+00  0.23023531861E+04  0.23023531861E+04  0.00000000000E+00 0. -1.
         -1   -1    0    0    0  501 -0.00000000000E+00 -0.00000000000E+00 -0.29609137702E+03  0.29609137702E+03  0.00000000000E+00 0.  1.
         24    2    1    2    0    0 -0.31955121932E+03  0.21720455027E+02 -0.47782617300E+02  0.33304328785E+03  0.77781058946E+02 0.  0.
        254    2    1    2    0    0  0.31955121932E+03 -0.21720455027E+02  0.20540444264E+04  0.22654012753E+04  0.90019979590E+03 0.  0.
         23    2    4    4    0    0  0.57611677964E+03 -0.75665499453E+02  0.17820736300E+04  0.18767173449E+04  0.92982569268E+02 0.  0.
         23    2    4    4    0    0 -0.25656556032E+03  0.53945044426E+02  0.27197079640E+03  0.38868393043E+03  0.91493874741E+02 0.  0.
          2    1    3    3  502    0 -0.18263814484E+02  0.17791694701E+02 -0.15898887745E+02  0.30048060692E+02  0.00000000000E+00 0. -1.
         -1    1    3    3    0  502 -0.30128740483E+03  0.39287603266E+01 -0.31883729555E+02  0.30299522715E+03  0.00000000000E+00 0.  1.
         11    1    5    5    0    0  0.18378854714E+03 -0.55774489828E+02  0.49200369623E+03  0.52816347931E+03  0.00000000000E+00 0.  1.
        -11    1    5    5    0    0  0.39232823250E+03 -0.19891009625E+02  0.12900699338E+04  0.13485538656E+04  0.00000000000E+00 0. -1.
          3    1    6    6  503    0 -0.22400471522E+03  0.77751274012E+02  0.23786948573E+03  0.33586495097E+03  0.00000000000E+00 0. -1.
         -3    1    6    6    0  503 -0.32560845105E+02 -0.23806229587E+02  0.34101310670E+02  0.52818979453E+02  0.00000000000E+00 0.  1.
<mgrwt>
<rscale>  0 0.16513109E+04</rscale>
<asrwt>0</asrwt>
<pdfrwt beam="1">  1        2 0.35420817E+00 0.16513109E+04</pdfrwt>
<pdfrwt beam="2">  1       -1 0.45552521E-01 0.16513109E+04</pdfrwt>
<totfact> 0.23556730E+01</totfact>
</mgrwt>
</event>
<event>
12    6  0.1510140E-007  0.1601986E+04  0.7818608E-02  0.8819329E-01
         -1   -1    0    0    0  501 -0.00000000000E+00  0.00000000000E+00  0.31377010561E+03  0.31377010561E+03  0.00000000000E+00 0.  1.
          2   -1    0    0  501    0  0.00000000000E+00 -0.00000000000E+00 -0.20447777984E+04  0.20447777984E+04  0.00000000000E+00 0. -1.
         24    2    1    2    0    0 -0.48004628354E+03  0.27061893519E+02 -0.98602676848E+03  0.10998894186E+04  0.79568615609E+02 0.  0.
        254    2    1    2    0    0  0.48004628354E+03 -0.27061893519E+02 -0.74498092434E+03  0.12586584854E+04  0.89333522538E+03 0.  0.
         23    2    4    4    0    0  0.63549698005E+03 -0.27792373036E+03 -0.55683399631E+03  0.89502149547E+03  0.99505609644E+02 0.  0.
         23    2    4    4    0    0 -0.15545069652E+03  0.25086183684E+03 -0.18814692803E+03  0.36363698997E+03  0.98671240574E+02 0.  0.
          2    1    3    3  502    0 -0.89645127198E+02 -0.79004064727E+01 -0.12688078455E+03  0.15555513088E+03  0.00000000000E+00 0. -1.
         -1    1    3    3    0  502 -0.39040115634E+03  0.34962299992E+02 -0.85914598392E+03  0.94433428773E+03  0.00000000000E+00 0.  1.
         11    1    5    5    0    0  0.85769119858E+02 -0.31881878501E+02 -0.12046898533E+03  0.15127978227E+03  0.00000000000E+00 0.  1.
        -11    1    5    5    0    0  0.54972786020E+03 -0.24604185186E+03 -0.43636501098E+03  0.74374171320E+03  0.00000000000E+00 0. -1.
          4    1    6    6  503    0 -0.39021168476E+02  0.14722492416E+03 -0.11818152089E+03  0.19278148708E+03  0.00000000000E+00 0. -1.
         -4    1    6    6    0  503 -0.11642952804E+03  0.10363691268E+03 -0.69965407144E+02  0.17085550289E+03  0.00000000000E+00 0.  1.
<mgrwt>
<rscale>  0 0.16019864E+04</rscale>
<asrwt>0</asrwt>
<pdfrwt beam="1">  1        2 0.31458120E+00 0.16019864E+04</pdfrwt>
<pdfrwt beam="2">  1       -1 0.48272324E-01 0.16019864E+04</pdfrwt>
<totfact> 0.29572249E+01</totfact>
</mgrwt>
</event>
<event>
12    6  0.1510140E-007  0.2550148E+04  0.7818608E-02  0.8385335E-01
         -1   -1    0    0    0  501 -0.00000000000E+00  0.00000000000E+00  0.12792492711E+04  0.12792492711E+04  0.00000000000E+00 0.  1.
          2   -1    0    0  501    0  0.00000000000E+00 -0.00000000000E+00 -0.12709124349E+04  0.12709124349E+04  0.00000000000E+00 0. -1.
         24    2    1    2    0    0  0.69589057061E+03  0.61212735470E+03  0.62886951908E+03  0.11230268939E+04  0.82151979063E+02 0.  0.
        254    2    1    2    0    0 -0.69589057061E+03 -0.61212735470E+03 -0.62053268293E+03  0.14271348121E+04  0.89033104901E+03 0.  0.
         23    2    4    4    0    0  0.65941710742E+02  0.14036011315E+03 -0.21163444042E+03  0.27744755783E+03  0.90214967684E+02 0.  0.
         23    2    4    4    0    0 -0.76183228136E+03 -0.75248746785E+03 -0.40889824251E+03  0.11496872543E+04  0.89203115648E+02 0.  0.
          2    1    3    3  502    0  0.24973064803E+03  0.17068045099E+03  0.19100656425E+03  0.35774393147E+03  0.00000000000E+00 0. -1.
         -1    1    3    3    0  502  0.44615992258E+03  0.44144690371E+03  0.43786295483E+03  0.76528296239E+03  0.00000000000E+00 0.  1.
         11    1    5    5    0    0  0.49832447748E+02  0.17016927174E+02 -0.84628753657E+02  0.99673841124E+02  0.00000000000E+00 0.  1.
        -11    1    5    5    0    0  0.16109262994E+02  0.12334318597E+03 -0.12700568676E+03  0.17777371670E+03  0.00000000000E+00 0. -1.
          3    1    6    6  503    0 -0.25897647378E+03 -0.22092748909E+03 -0.94522485878E+02  0.35328780016E+03  0.00000000000E+00 0. -1.
         -3    1    6    6    0  503 -0.50285580758E+03 -0.53155997876E+03 -0.31437575663E+03  0.79639945416E+03  0.00000000000E+00 0.  1.
<mgrwt>
<rscale>  0 0.25501481E+04</rscale>
<asrwt>0</asrwt>
<pdfrwt beam="1">  1        2 0.19552499E+00 0.25501481E+04</pdfrwt>
<pdfrwt beam="2">  1       -1 0.19680758E+00 0.25501481E+04</pdfrwt>
<totfact> 0.27557286E+00</totfact>
</mgrwt>
</event>
<event>
12    6  0.1510140E-007  0.2381739E+04  0.7818608E-02  0.8446372E-01
          2   -1    0    0  501    0  0.00000000000E+00  0.00000000000E+00  0.17046613274E+04  0.17046613274E+04  0.00000000000E+00 0. -1.
         -1   -1    0    0    0  501 -0.00000000000E+00 -0.00000000000E+00 -0.83193648660E+03  0.83193648660E+03  0.00000000000E+00 0.  1.
         24    2    1    2    0    0 -0.52961686096E+03 -0.77408953529E+03  0.77337163093E+03  0.12183215891E+04  0.80592721707E+02 0.  0.
        254    2    1    2    0    0  0.52961686096E+03  0.77408953529E+03  0.99353209853E+02  0.13182762249E+04  0.92101710994E+03 0.  0.
         23    2    4    4    0    0  0.40201563501E+03  0.81933490523E+03  0.38163290446E+03  0.99236367842E+03  0.78839956614E+02 0.  0.
         23    2    4    4    0    0  0.12760122595E+03 -0.45245369946E+02 -0.28227969461E+03  0.32591254649E+03  0.90597713033E+02 0.  0.
          2    1    3    3  502    0 -0.28689512216E+03 -0.42280643017E+03  0.47293273091E+03  0.69623232939E+03  0.00000000000E+00 0. -1.
         -1    1    3    3    0  502 -0.24272173880E+03 -0.35128310511E+03  0.30043890002E+03  0.52208925968E+03  0.00000000000E+00 0.  1.
         11    1    5    5    0    0  0.38650510703E+03  0.77151166680E+03  0.37764531200E+03  0.94193016272E+03  0.00000000000E+00 0. -1.
        -11    1    5    5    0    0  0.15510527985E+02  0.47823238433E+02  0.39875924631E+01  0.50433515704E+02  0.00000000000E+00 0.  1.
          4    1    6    6  503    0  0.86173063641E+02 -0.55006246781E+02 -0.25657009787E+03  0.27618779699E+03  0.00000000000E+00 0. -1.
         -4    1    6    6    0  503  0.41428162310E+02  0.97608768348E+01 -0.25709596735E+02  0.49724749504E+02  0.00000000000E+00 0.  1.
<mgrwt>
<rscale>  0 0.23817388E+04</rscale>
<asrwt>0</asrwt>
<pdfrwt beam="1">  1        2 0.26225559E+00 0.23817388E+04</pdfrwt>
<pdfrwt beam="2">  1       -1 0.12799023E+00 0.23817388E+04</pdfrwt>
<totfact> 0.52726342E+00</totfact>
</mgrwt>
</event>
<event>
12    6  0.1510140E-007  0.2803456E+04  0.7818608E-02  0.8302196E-01
         -1   -1    0    0    0  501 -0.00000000000E+00  0.00000000000E+00  0.76579489937E+03  0.76579489937E+03  0.00000000000E+00 0.  1.
          2   -1    0    0  501    0  0.00000000000E+00 -0.00000000000E+00 -0.25657544488E+04  0.25657544488E+04  0.00000000000E+00 0. -1.
         24    2    1    2    0    0  0.77823057792E+03  0.16869808482E+02  0.36225014585E+03  0.86280676237E+03  0.85340015112E+02 0.  0.
        254    2    1    2    0    0 -0.77823057792E+03 -0.16869808482E+02 -0.21622096953E+04  0.24687425858E+04  0.90200430471E+03 0.  0.
         23    2    4    4    0    0  0.11457431142E+03 -0.19894632380E+03 -0.26634418410E+03  0.36324239482E+03  0.91098300753E+02 0.  0.
         23    2    4    4    0    0 -0.89280488933E+03  0.18207651532E+03 -0.18958655112E+04  0.21055001910E+04  0.92588281562E+02 0.  0.
          2    1    3    3  502    0  0.21917697919E+03  0.40310392092E+02  0.87092240527E+02  0.23926665936E+03  0.00000000000E+00 0. -1.
         -1    1    3    3    0  502  0.55905359872E+03 -0.23440583610E+02  0.27515790532E+03  0.62354010301E+03  0.00000000000E+00 0.  1.
         11    1    5    5    0    0 -0.13275298710E+02 -0.44743801988E+02 -0.51758255948E+02  0.69693316975E+02  0.00000000000E+00 0. -1.
        -11    1    5    5    0    0  0.12784961013E+03 -0.15420252181E+03 -0.21458592815E+03  0.29354907785E+03  0.00000000000E+00 0.  1.
          4    1    6    6  503    0 -0.69156302210E+03  0.17453352356E+03 -0.14315151539E+04  0.15993614351E+04  0.00000000000E+00 0. -1.
         -4    1    6    6    0  503 -0.20124186724E+03  0.75429917613E+01 -0.46435035726E+03  0.50613875582E+03  0.00000000000E+00 0.  1.
<mgrwt>
<rscale>  0 0.28034562E+04</rscale>
<asrwt>0</asrwt>
<pdfrwt beam="1">  1        2 0.39473145E+00 0.28034562E+04</pdfrwt>
<pdfrwt beam="2">  1       -1 0.11781460E+00 0.28034562E+04</pdfrwt>
<totfact> 0.20402949E+00</totfact>
</mgrwt>
</event>
<event>
12    6  0.1510140E-007  0.1286384E+04  0.7818608E-02  0.9040433E-01
         -1   -1    0    0    0  501 -0.00000000000E+00  0.00000000000E+00  0.26617445707E+03  0.26617445707E+03  0.00000000000E+00 0.  1.
          2   -1    0    0  501    0  0.00000000000E+00 -0.00000000000E+00 -0.15542287603E+04  0.15542287603E+04  0.00000000000E+00 0. -1.
         24    2    1    2    0    0  0.27117101281E+02 -0.42082426759E+02  0.12713634434E+03  0.15082564284E+03  0.63862795604E+02 0.  0.
        254    2    1    2    0    0 -0.27117101281E+02  0.42082426759E+02 -0.14151906476E+04  0.16695775745E+04  0.88443113952E+03 0.  0.
         23    2    4    4    0    0  0.23155217357E+01 -0.38091220110E+03 -0.97919865657E+03  0.10546576767E+04  0.91505952540E+02 0.  0.
         23    2    4    4    0    0 -0.29432623016E+02  0.42299462786E+03 -0.43599199101E+03  0.61491989786E+03  0.90811508438E+02 0.  0.
          2    1    3    3  502    0 -0.13404931698E+01 -0.39870841550E+02  0.30943978371E+02  0.50487728462E+02  0.00000000000E+00 0. -1.
         -1    1    3    3    0  502  0.28457594451E+02 -0.22115852091E+01  0.96192365971E+02  0.10033791438E+03  0.00000000000E+00 0.  1.
         11    1    5    5    0    0  0.27341934004E+01 -0.16292591233E+03 -0.30085454239E+03  0.34214877525E+03  0.00000000000E+00 0. -1.
        -11    1    5    5    0    0 -0.41867166469E+00 -0.21798628876E+03 -0.67834411418E+03  0.71250890143E+03  0.00000000000E+00 0.  1.
          3    1    6    6  503    0 -0.80293139154E+01  0.11722922731E+01 -0.31643131420E+00  0.81206083456E+01  0.00000000000E+00 0. -1.
         -3    1    6    6    0  503 -0.21403309101E+02  0.42182233558E+03 -0.43567555969E+03  0.60679928951E+03  0.00000000000E+00 0.  1.
<mgrwt>
<rscale>  0 0.12863841E+04</rscale>
<asrwt>0</asrwt>
<pdfrwt beam="1">  1        2 0.23911212E+00 0.12863841E+04</pdfrwt>
<pdfrwt beam="2">  1       -1 0.40949916E-01 0.12863841E+04</pdfrwt>
<totfact> 0.77133305E+01</totfact>
</mgrwt>
</event>
<event>
12    6  0.1510140E-007  0.1186754E+04  0.7818608E-02  0.9124530E-01
         -1   -1    0    0    0  501 -0.00000000000E+00  0.00000000000E+00  0.12614837762E+03  0.12614837762E+03  0.00000000000E+00 0.  1.
          2   -1    0    0  501    0  0.00000000000E+00 -0.00000000000E+00 -0.27911283730E+04  0.27911283730E+04  0.00000000000E+00 0. -1.
         24    2    1    2    0    0  0.29968228809E+02 -0.22653959108E+03 -0.44613477522E+03  0.50758281711E+03  0.79911185070E+02 0.  0.
        254    2    1    2    0    0 -0.29968228809E+02  0.22653959108E+03 -0.22188452202E+04  0.24096939335E+04  0.91166466484E+03 0.  0.
         23    2    4    4    0    0 -0.35415305601E+03  0.40074931634E+03 -0.15352643401E+04  0.16282854931E+04  0.90844105246E+02 0.  0.
         23    2    4    4    0    0  0.32418482720E+03 -0.17420972526E+03 -0.68358088007E+03  0.78140844041E+03  0.88721477628E+02 0.  0.
          4    1    3    3  502    0  0.23806853535E+02 -0.42996009373E+02 -0.16178024766E+03  0.16908066605E+03  0.00000000000E+00 0. -1.
         -3    1    3    3    0  502  0.61613752740E+01 -0.18354358171E+03 -0.28435452756E+03  0.33850215106E+03  0.00000000000E+00 0.  1.
         11    1    5    5    0    0 -0.87375942159E+02  0.10954628582E+03 -0.29353701006E+03  0.32526745960E+03  0.00000000000E+00 0.  1.
        -11    1    5    5    0    0 -0.26677711385E+03  0.29120303052E+03 -0.12417273300E+04  0.13030180335E+04  0.00000000000E+00 0. -1.
          3    1    6    6  503    0  0.30670997378E+03 -0.14083116968E+03 -0.64194078721E+03  0.72525333550E+03  0.00000000000E+00 0. -1.
         -3    1    6    6    0  503  0.17474853415E+02 -0.33378555577E+02 -0.41640092855E+02  0.56155104908E+02  0.00000000000E+00 0.  1.
<mgrwt>
<rscale>  0 0.11867541E+04</rscale>
<asrwt>0</asrwt>
<pdfrwt beam="1">  1        2 0.42940439E+00 0.11867541E+04</pdfrwt>
<pdfrwt beam="2">  1       -1 0.19407441E-01 0.11867541E+04</pdfrwt>
<totfact> 0.57285009E+01</totfact>
</mgrwt>
</event>
<event>
12    6  0.1510140E-007  0.3288865E+04  0.7818608E-02  0.8165734E-01
          2   -1    0    0  501    0  0.00000000000E+00  0.00000000000E+00  0.41813236595E+04  0.41813236595E+04  0.00000000000E+00 0. -1.
         -1   -1    0    0    0  501 -0.00000000000E+00 -0.00000000000E+00 -0.64672306347E+03  0.64672306347E+03  0.00000000000E+00 0.  1.
         24    2    1    2    0    0 -0.48812344187E+02 -0.11932390942E+04  0.25441326024E+03  0.12240035931E+04  0.85185140302E+02 0.  0.
        254    2    1    2    0    0  0.48812344187E+02  0.11932390942E+04  0.32801873358E+04  0.36040431298E+04  0.89626767366E+03 0.  0.
         23    2    4    4    0    0 -0.98225127768E+02  0.93523689899E+03  0.13425199206E+04  0.16415823754E+04  0.90092869806E+02 0.  0.
         23    2    4    4    0    0  0.14703747195E+03  0.25800219523E+03  0.19376674152E+04  0.19624607544E+04  0.92260770206E+02 0.  0.
          4    1    3    3  502    0  0.21357476943E+02 -0.23972824930E+03  0.65470096823E+02  0.24942355324E+03  0.00000000000E+00 0. -1.
         -3    1    3    3    0  502 -0.70169821129E+02 -0.95351084492E+03  0.18894316342E+03  0.97458003991E+03  0.00000000000E+00 0.  1.
         11    1    5    5    0    0  0.11017229344E+02  0.86210457516E+02  0.15476018196E+03  0.17749460907E+03  0.00000000000E+00 0. -1.
        -11    1    5    5    0    0 -0.10924235711E+03  0.84902644148E+03  0.11877597386E+04  0.14640877664E+04  0.00000000000E+00 0.  1.
          1    1    6    6  503    0 -0.11738325545E+02  0.37128436203E+02  0.24046971330E+03  0.24360211837E+03  0.00000000000E+00 0. -1.
         -1    1    6    6    0  503  0.15877579750E+03  0.22087375903E+03  0.16971977019E+04  0.17188586360E+04  0.00000000000E+00 0.  1.
<mgrwt>
<rscale>  0 0.32888651E+04</rscale>
<asrwt>0</asrwt>
<pdfrwt beam="1">  1        2 0.64328055E+00 0.32888651E+04</pdfrwt>
<pdfrwt beam="2">  1       -1 0.99495859E-01 0.32888651E+04</pdfrwt>
<totfact> 0.22033644E-01</totfact>
</mgrwt>
</event>
<event>
12    6  0.1510140E-007  0.2717464E+04  0.7818608E-02  0.8329361E-01
         -1   -1    0    0    0  501 -0.00000000000E+00  0.00000000000E+00  0.63381417493E+03  0.63381417493E+03  0.00000000000E+00 0.  1.
          2   -1    0    0  501    0  0.00000000000E+00 -0.00000000000E+00 -0.29127666001E+04  0.29127666001E+04  0.00000000000E+00 0. -1.
         24    2    1    2    0    0 -0.40399120327E+03  0.63637466755E+03 -0.22502175139E+04  0.23744700259E+04  0.80295918481E+02 0.  0.
        254    2    1    2    0    0  0.40399120327E+03 -0.63637466755E+03 -0.28734911279E+02  0.11721107491E+04  0.89712669292E+03 0.  0.
         23    2    4    4    0    0 -0.74434469448E+02  0.89333905461E+02 -0.22860647661E+03  0.27582689089E+03  0.10148160270E+03 0.  0.
         23    2    4    4    0    0  0.47842567272E+03 -0.72570857301E+03  0.19987156533E+03  0.89628385818E+03  0.88498895732E+02 0.  0.
          2    1    3    3  502    0 -0.28822035724E+03  0.44694681043E+03 -0.14682272747E+04  0.15615773295E+04  0.00000000000E+00 0. -1.
         -1    1    3    3    0  502 -0.11577084603E+03  0.18942785712E+03 -0.78199023915E+03  0.81289269647E+03  0.00000000000E+00 0.  1.
         11    1    5    5    0    0 -0.86031603531E+01 -0.22391095248E+02 -0.27003661423E+02  0.36118876571E+02  0.00000000000E+00 0.  1.
        -11    1    5    5    0    0 -0.65831309095E+02  0.11172500071E+03 -0.20160281518E+03  0.23970801432E+03  0.00000000000E+00 0. -1.
          2    1    6    6  503    0  0.26676816309E+03 -0.45700418686E+03  0.15431902043E+03  0.55120997788E+03  0.00000000000E+00 0. -1.
         -2    1    6    6    0  503  0.21165750963E+03 -0.26870438615E+03  0.45552544901E+02  0.34507388030E+03  0.00000000000E+00 0.  1.
<mgrwt>
<rscale>  0 0.27174641E+04</rscale>
<asrwt>0</asrwt>
<pdfrwt beam="1">  1        2 0.44811794E+00 0.27174641E+04</pdfrwt>
<pdfrwt beam="2">  1       -1 0.97509873E-01 0.27174641E+04</pdfrwt>
<totfact> 0.19828114E+00</totfact>
</mgrwt>
</event>
<event>
12    6  0.1510140E-007  0.1364137E+04  0.7818608E-02  0.8980195E-01
          2   -1    0    0  501    0  0.00000000000E+00  0.00000000000E+00  0.10300226723E+04  0.10300226723E+04  0.00000000000E+00 0. -1.
         -1   -1    0    0    0  501 -0.00000000000E+00 -0.00000000000E+00 -0.45165749562E+03  0.45165749562E+03  0.00000000000E+00 0.  1.
         24    2    1    2    0    0  0.32909425434E+03 -0.66439641717E+02 -0.21673384321E+02  0.34575456139E+03  0.79744760953E+02 0.  0.
        254    2    1    2    0    0 -0.32909425434E+03  0.66439641717E+02  0.60003856100E+03  0.11359256065E+04  0.90419215581E+03 0.  0.
         23    2    4    4    0    0 -0.26218880132E+03  0.19468293369E+03  0.80226388831E+03  0.87144035156E+03  0.95585185215E+02 0.  0.
         23    2    4    4    0    0 -0.66905453019E+02 -0.12824329197E+03 -0.20222532731E+03  0.26448525496E+03  0.90192491422E+02 0.  0.
          4    1    3    3  502    0  0.11567481053E+03  0.67484275382E+01 -0.30984236056E+02  0.11994259439E+03  0.00000000000E+00 0. -1.
         -3    1    3    3    0  502  0.21341944381E+03 -0.73188069255E+02  0.93108517342E+01  0.22581196699E+03  0.00000000000E+00 0.  1.
         11    1    5    5    0    0 -0.13374654119E+03  0.57424921004E+02  0.26654005311E+03  0.30369286911E+03  0.00000000000E+00 0.  1.
        -11    1    5    5    0    0 -0.12844226013E+03  0.13725801268E+03  0.53572383520E+03  0.56774748245E+03  0.00000000000E+00 0. -1.
          3    1    6    6  503    0 -0.44023715491E+02 -0.13129571478E+03 -0.19702460380E+03  0.24082223059E+03  0.00000000000E+00 0. -1.
         -3    1    6    6    0  503 -0.22881737528E+02  0.30524228097E+01 -0.52007235080E+01  0.23663024370E+02  0.00000000000E+00 0.  1.
<mgrwt>
<rscale>  0 0.13641370E+04</rscale>
<asrwt>0</asrwt>
<pdfrwt beam="1">  1        2 0.15846503E+00 0.13641370E+04</pdfrwt>
<pdfrwt beam="2">  1       -1 0.69485769E-01 0.13641370E+04</pdfrwt>
<totfact> 0.56202734E+01</totfact>
</mgrwt>
</event>
<event>
12    6  0.1510140E-007  0.1470843E+04  0.7818608E-02  0.8904077E-01
          2   -1    0    0  501    0  0.00000000000E+00  0.00000000000E+00  0.96099883863E+03  0.96099883863E+03  0.00000000000E+00 0. -1.
         -1   -1    0    0    0  501 -0.00000000000E+00 -0.00000000000E+00 -0.56279479147E+03  0.56279479147E+03  0.00000000000E+00 0.  1.
         24    2    1    2    0    0 -0.16329079638E+03 -0.43122929991E+02 -0.30144363464E+03  0.35470276941E+03  0.80139369149E+02 0.  0.
        254    2    1    2    0    0  0.16329079638E+03  0.43122929991E+02  0.69964768180E+03  0.11690908607E+04  0.92127253874E+03 0.  0.
         23    2    4    4    0    0 -0.12947865858E+03 -0.38063764777E+03  0.32328577101E+03  0.52488626617E+03  0.96654853691E+02 0.  0.
         23    2    4    4    0    0  0.29276945496E+03  0.42376057776E+03  0.37636191079E+03  0.64420459453E+03  0.89801395848E+02 0.  0.
          2    1    3    3  502    0 -0.18362490970E+01 -0.23802183499E+02 -0.30819121255E+02  0.38983765660E+02  0.00000000000E+00 0. -1.
         -1    1    3    3    0  502 -0.16145454728E+03 -0.19320746492E+02 -0.27062451339E+03  0.31571900375E+03  0.00000000000E+00 0.  1.
         11    1    5    5    0    0 -0.14132885479E+03 -0.31952817055E+03  0.29134474429E+03  0.45492181416E+03  0.00000000000E+00 0. -1.
        -11    1    5    5    0    0  0.11850196214E+02 -0.61109477218E+02  0.31941026720E+02  0.69964452004E+02  0.00000000000E+00 0.  1.
          4    1    6    6  503    0  0.28049978880E+03  0.40613148192E+03  0.37935081733E+03  0.62251903966E+03  0.00000000000E+00 0. -1.
         -4    1    6    6    0  503  0.12269666156E+02  0.17629095842E+02 -0.29889065416E+01  0.21685554872E+02  0.00000000000E+00 0.  1.
<mgrwt>
<rscale>  0 0.14708435E+04</rscale>
<asrwt>0</asrwt>
<pdfrwt beam="1">  1        2 0.14784598E+00 0.14708435E+04</pdfrwt>
<pdfrwt beam="2">  1       -1 0.86583814E-01 0.14708435E+04</pdfrwt>
<totfact> 0.38809731E+01</totfact>
</mgrwt>
</event>
<event>
12    6  0.1510140E-007  0.1490214E+04  0.7818608E-02  0.8890987E-01
         -3   -1    0    0    0  501 -0.00000000000E+00  0.00000000000E+00  0.39110317983E+03  0.39110317983E+03  0.00000000000E+00 0.  1.
          2   -1    0    0  501    0  0.00000000000E+00 -0.00000000000E+00 -0.14195345448E+04  0.14195345448E+04  0.00000000000E+00 0. -1.
         24    2    1    2    0    0 -0.41790566845E+03 -0.19072860363E+03 -0.23778115911E+03  0.52342099192E+03  0.80044407606E+02 0.  0.
        254    2    1    2    0    0  0.41790566845E+03  0.19072860363E+03 -0.79065020582E+03  0.12872167327E+04  0.90596722952E+03 0.  0.
         23    2    4    4    0    0 -0.68337563668E+02  0.20589876076E+03  0.11025826818E+03  0.25914150056E+03  0.89068003909E+02 0.  0.
         23    2    4    4    0    0  0.48624323211E+03 -0.15170157127E+02 -0.90090847400E+03  0.10280752321E+04  0.92951546221E+02 0.  0.
          2    1    3    3  502    0 -0.36184536902E+03 -0.14240240071E+03 -0.22191777555E+03  0.44772537779E+03  0.00000000000E+00 0. -1.
         -1    1    3    3    0  502 -0.56060299421E+02 -0.48326202918E+02 -0.15863383558E+02  0.75695614124E+02  0.00000000000E+00 0.  1.
         11    1    5    5    0    0 -0.83600210949E+02  0.11832221211E+03  0.58242748382E+02  0.15614531338E+03  0.00000000000E+00 0.  1.
        -11    1    5    5    0    0  0.15262647281E+02  0.87576548643E+02  0.52015519795E+02  0.10299618718E+03  0.00000000000E+00 0. -1.
          1    1    6    6  503    0  0.13203916036E+03 -0.42818520469E+02 -0.28608279433E+03  0.31797976472E+03  0.00000000000E+00 0. -1.
         -1    1    6    6    0  503  0.35420407175E+03  0.27648363341E+02 -0.61482567967E+03  0.71009546740E+03  0.00000000000E+00 0.  1.
<mgrwt>
<rscale>  0 0.14902140E+04</rscale>
<asrwt>0</asrwt>
<pdfrwt beam="1">  1        2 0.21838993E+00 0.14902140E+04</pdfrwt>
<pdfrwt beam="2">  1       -3 0.60169719E-01 0.14902140E+04</pdfrwt>
<totfact> 0.23513179E+01</totfact>
</mgrwt>
</event>
<event>
12    6  0.1510140E-007  0.2441546E+04  0.7818608E-02  0.8424111E-01
         -1   -1    0    0    0  501 -0.00000000000E+00  0.00000000000E+00  0.20538028574E+04  0.20538028574E+04  0.00000000000E+00 0.  1.
          2   -1    0    0  501    0  0.00000000000E+00 -0.00000000000E+00 -0.72562306087E+03  0.72562306087E+03  0.00000000000E+00 0. -1.
         24    2    1    2    0    0  0.78354407280E+03  0.63267727330E+03  0.90830309916E+03  0.13584616381E+04  0.78623509265E+02 0.  0.
        254    2    1    2    0    0 -0.78354407280E+03 -0.63267727330E+03  0.41987669740E+03  0.14209642802E+04  0.91028632765E+03 0.  0.
         23    2    4    4    0    0 -0.52323678025E+03 -0.21544345058E+03  0.65337387151E+03  0.86906111567E+03  0.90427861834E+02 0.  0.
         23    2    4    4    0    0 -0.26030729255E+03 -0.41723382271E+03 -0.23349717411E+03  0.55190316449E+03  0.90731600254E+02 0.  0.
          4    1    3    3  502    0  0.62437153207E+03  0.53739290557E+03  0.76242516572E+03  0.11224629519E+04  0.00000000000E+00 0. -1.
         -3    1    3    3    0  502  0.15917254073E+03  0.95284367720E+02  0.14587793343E+03  0.23599868626E+03  0.00000000000E+00 0.  1.
         11    1    5    5    0    0 -0.50488245056E+03 -0.20974679018E+03  0.59704821240E+03  0.80954714057E+03  0.00000000000E+00 0. -1.
        -11    1    5    5    0    0 -0.18354329686E+02 -0.56966604058E+01  0.56325659116E+02  0.59513975105E+02  0.00000000000E+00 0.  1.
          1    1    6    6  503    0 -0.11084736141E+03 -0.25463563730E+03 -0.15124365346E+03  0.31622948633E+03  0.00000000000E+00 0. -1.
         -1    1    6    6    0  503 -0.14945993114E+03 -0.16259818541E+03 -0.82253520648E+02  0.23567367815E+03  0.00000000000E+00 0.  1.
<mgrwt>
<rscale>  0 0.24415460E+04</rscale>
<asrwt>0</asrwt>
<pdfrwt beam="1">  1        2 0.11163432E+00 0.24415460E+04</pdfrwt>
<pdfrwt beam="2">  1       -1 0.31596967E+00 0.24415460E+04</pdfrwt>
<totfact> 0.10406112E+00</totfact>
</mgrwt>
</event>
<event>
12    6  0.1510140E-007  0.2396136E+04  0.7818608E-02  0.8440952E-01
          2   -1    0    0  501    0  0.00000000000E+00  0.00000000000E+00  0.31331226846E+04  0.31331226846E+04  0.00000000000E+00 0. -1.
         -1   -1    0    0    0  501 -0.00000000000E+00 -0.00000000000E+00 -0.45812671672E+03  0.45812671672E+03  0.00000000000E+00 0.  1.
         24    2    1    2    0    0  0.10995208070E+03 -0.25809595892E+03  0.26180890206E+04  0.26343202587E+04  0.80932821686E+02 0.  0.
        254    2    1    2    0    0 -0.10995208070E+03  0.25809595892E+03  0.56906947302E+02  0.95692914262E+03  0.91311116480E+03 0.  0.
         23    2    4    4    0    0 -0.14542733565E+03  0.24372346962E+03 -0.39487075213E+03  0.49458254595E+03  0.90214989187E+02 0.  0.
         23    2    4    4    0    0  0.35475254949E+02  0.14372489303E+02  0.45177769943E+03  0.46234659667E+03  0.90532997208E+02 0.  0.
          4    1    3    3  502    0  0.10646440689E+03 -0.24334502938E+03  0.25746046767E+04  0.25882698303E+04  0.00000000000E+00 0. -1.
         -3    1    3    3    0  502  0.34876738095E+01 -0.14750929545E+02  0.43484343918E+02  0.46050428412E+02  0.00000000000E+00 0.  1.
         11    1    5    5    0    0 -0.23245303712E+02  0.89849279136E+02 -0.18570955174E+03  0.20760846494E+03  0.00000000000E+00 0.  1.
        -11    1    5    5    0    0 -0.12218203194E+03  0.15387419048E+03 -0.20916120039E+03  0.28697408101E+03  0.00000000000E+00 0. -1.
          1    1    6    6  503    0  0.34922790374E+02  0.28241635564E+02  0.92765098494E+02  0.10306577883E+03  0.00000000000E+00 0. -1.
         -1    1    6    6    0  503  0.55246457496E+00 -0.13869146262E+02  0.35901260094E+03  0.35928081784E+03  0.00000000000E+00 0.  1.
<mgrwt>
<rscale>  0 0.23961362E+04</rscale>
<asrwt>0</asrwt>
<pdfrwt beam="1">  1        2 0.48201886E+00 0.23961362E+04</pdfrwt>
<pdfrwt beam="2">  1       -1 0.70481035E-01 0.23961362E+04</pdfrwt>
<totfact> 0.29849719E+00</totfact>
</mgrwt>
</event>
<event>
12    6  0.1510140E-007  0.1190647E+04  0.7818608E-02  0.9121083E-01
          2   -1    0    0  501    0  0.00000000000E+00  0.00000000000E+00  0.46468225823E+03  0.46468225823E+03  0.00000000000E+00 0. -1.
         -1   -1    0    0    0  501 -0.00000000000E+00 -0.00000000000E+00 -0.76269272154E+03  0.76269272154E+03  0.00000000000E+00 0.  1.
         24    2    1    2    0    0  0.17960529621E+03 -0.40462917762E+01 -0.24742408973E+03  0.31596041110E+03  0.79610717238E+02 0.  0.
        254    2    1    2    0    0 -0.17960529621E+03  0.40462917762E+01 -0.50586373568E+02  0.91141456867E+03  0.89210038666E+03 0.  0.
         23    2    4    4    0    0 -0.48759547767E+03 -0.79233121437E+02 -0.20813201241E+03  0.54405386436E+03  0.92996964291E+02 0.  0.
         23    2    4    4    0    0  0.30799018145E+03  0.83279413213E+02  0.15754563884E+03  0.36736070430E+03  0.91322758451E+02 0.  0.
          4    1    3    3  502    0 -0.82921822571E+01  0.18550973213E+01 -0.11449767830E+02  0.14258290782E+02  0.00000000000E+00 0. -1.
         -3    1    3    3    0  502  0.18789747847E+03 -0.59013890975E+01 -0.23597432190E+03  0.30170212032E+03  0.00000000000E+00 0.  1.
         11    1    5    5    0    0 -0.27612137832E+03 -0.21201707123E+02 -0.15897289291E+03  0.31931944605E+03  0.00000000000E+00 0. -1.
        -11    1    5    5    0    0 -0.21147409935E+03 -0.58031414313E+02 -0.49159119497E+02  0.22473441831E+03  0.00000000000E+00 0.  1.
          3    1    6    6  503    0  0.28362237293E+03  0.94063810091E+02  0.12158474765E+03  0.32260269940E+03  0.00000000000E+00 0. -1.
         -3    1    6    6    0  503  0.24367808522E+02 -0.10784396878E+02  0.35960891187E+02  0.44758004906E+02  0.00000000000E+00 0.  1.
<mgrwt>
<rscale>  0 0.11906465E+04</rscale>
<asrwt>0</asrwt>
<pdfrwt beam="1">  1        2 0.71489579E-01 0.11906465E+04</pdfrwt>
<pdfrwt beam="2">  1       -1 0.11733734E+00 0.11906465E+04</pdfrwt>
<totfact> 0.49525103E+01</totfact>
</mgrwt>
</event>
<event>
12    6  0.1510140E-007  0.1550179E+04  0.7818608E-02  0.8851753E-01
          2   -1    0    0  501    0  0.00000000000E+00  0.00000000000E+00  0.21768775750E+04  0.21768775750E+04  0.00000000000E+00 0. -1.
         -1   -1    0    0    0  501 -0.00000000000E+00 -0.00000000000E+00 -0.27597506549E+03  0.27597506549E+03  0.00000000000E+00 0.  1.
         24    2    1    2    0    0  0.25769053315E+03  0.24371644341E+03  0.63018504017E+02  0.36903977497E+03  0.80105605291E+02 0.  0.
        254    2    1    2    0    0 -0.25769053315E+03 -0.24371644341E+03  0.18378840055E+04  0.20838128655E+04  0.91578181090E+03 0.  0.
         23    2    4    4    0    0  0.73354040795E+02 -0.52441484036E+03  0.10587256574E+04  0.11873565792E+04  0.92324907338E+02 0.  0.
         23    2    4    4    0    0 -0.33104457395E+03  0.28069839694E+03  0.77915834811E+03  0.89645628630E+03  0.90355087467E+02 0.  0.
          4    1    3    3  502    0  0.63178262440E+02  0.70876119744E+02  0.52776640028E+02  0.10862914401E+03  0.00000000000E+00 0. -1.
         -1    1    3    3    0  502  0.19451227071E+03  0.17284032367E+03  0.10241863989E+02  0.26041063097E+03  0.00000000000E+00 0.  1.
         11    1    5    5    0    0  0.46874168192E+01 -0.12909615917E+03  0.34784801518E+03  0.37106068487E+03  0.00000000000E+00 0. -1.
        -11    1    5    5    0    0  0.68666623976E+02 -0.39531868119E+03  0.71087764220E+03  0.81629589434E+03  0.00000000000E+00 0.  1.
          2    1    6    6  503    0 -0.19400685600E+03  0.20115041985E+03  0.56183013181E+03  0.62749760843E+03  0.00000000000E+00 0. -1.
         -2    1    6    6    0  503 -0.13703771795E+03  0.79547977098E+02  0.21732821631E+03  0.26895867787E+03  0.00000000000E+00 0.  1.
<mgrwt>
<rscale>  0 0.15501793E+04</rscale>
<asrwt>0</asrwt>
<pdfrwt beam="1">  1        2 0.33490423E+00 0.15501793E+04</pdfrwt>
<pdfrwt beam="2">  1       -1 0.42457704E-01 0.15501793E+04</pdfrwt>
<totfact> 0.31859466E+01</totfact>
</mgrwt>
</event>
<event>
12    6  0.1510140E-007  0.1804951E+04  0.7818608E-02  0.8703671E-01
         -1   -1    0    0    0  501 -0.00000000000E+00  0.00000000000E+00  0.56280228687E+03  0.56280228687E+03  0.00000000000E+00 0.  1.
          2   -1    0    0  501    0  0.00000000000E+00 -0.00000000000E+00 -0.14471554658E+04  0.14471554658E+04  0.00000000000E+00 0. -1.
         24    2    1    2    0    0 -0.17004183643E+03  0.43002189752E+03  0.21572244663E+03  0.51657319038E+03  0.80489928281E+02 0.  0.
        254    2    1    2    0    0  0.17004183643E+03 -0.43002189752E+03 -0.11000756256E+04  0.14933845623E+04  0.89788529918E+03 0.  0.
         23    2    4    4    0    0  0.28172573357E+03  0.10676060339E+03 -0.64833787650E+02  0.31862129338E+03  0.80925232066E+02 0.  0.
         23    2    4    4    0    0 -0.11168389714E+03 -0.53678250091E+03 -0.10352418380E+04  0.11747632690E+04  0.87945033138E+02 0.  0.
          2    1    3    3  502    0 -0.10121681720E+02  0.26046725591E+02 -0.63136166640E+01  0.28648597003E+02  0.00000000000E+00 0. -1.
         -1    1    3    3    0  502 -0.15992015471E+03  0.40397517193E+03  0.22203606330E+03  0.48792459338E+03  0.00000000000E+00 0.  1.
         11    1    5    5    0    0  0.14979860461E+03  0.31242765461E+02  0.85205008503E+00  0.15302437167E+03  0.00000000000E+00 0.  1.
        -11    1    5    5    0    0  0.13192712896E+03  0.75517837930E+02 -0.65685837735E+02  0.16559692171E+03  0.00000000000E+00 0. -1.
          3    1    6    6  503    0 -0.86437954458E+02 -0.49749241154E+03 -0.97989881944E+03  0.11023483641E+04  0.00000000000E+00 0. -1.
         -3    1    6    6    0  503 -0.25245942684E+02 -0.39290089371E+02 -0.55343018514E+02  0.72414904841E+02  0.00000000000E+00 0.  1.
<mgrwt>
<rscale>  0 0.18049514E+04</rscale>
<asrwt>0</asrwt>
<pdfrwt beam="1">  1        2 0.22263930E+00 0.18049514E+04</pdfrwt>
<pdfrwt beam="2">  1       -1 0.86584968E-01 0.18049514E+04</pdfrwt>
<totfact> 0.19235618E+01</totfact>
</mgrwt>
</event>
<event>
12    6  0.1510140E-007  0.1268236E+04  0.7818608E-02  0.9055141E-01
          2   -1    0    0  501    0  0.00000000000E+00  0.00000000000E+00  0.16884060210E+04  0.16884060210E+04  0.00000000000E+00 0. -1.
         -1   -1    0    0    0  501 -0.00000000000E+00 -0.00000000000E+00 -0.23815682820E+03  0.23815682820E+03  0.00000000000E+00 0.  1.
         24    2    1    2    0    0  0.52176297319E+02  0.11035270186E+03 -0.63397077813E+02  0.15966330820E+03  0.81074642773E+02 0.  0.
        254    2    1    2    0    0 -0.52176297319E+02 -0.11035270186E+03  0.15136462706E+04  0.17668995410E+04  0.90327674091E+03 0.  0.
         23    2    4    4    0    0  0.27276512427E+03 -0.18768024419E+03  0.13331629090E+04  0.13766070676E+04  0.89994385870E+02 0.  0.
         23    2    4    4    0    0 -0.32494142159E+03  0.77327542333E+02  0.18048336162E+03  0.39029247344E+03  0.90484776237E+02 0.  0.
          4    1    3    3  502    0 -0.74708579890E+01  0.52609163184E+02  0.32006122995E+01  0.53233276145E+02  0.00000000000E+00 0. -1.
         -3    1    3    3    0  502  0.59647155308E+02  0.57743538674E+02 -0.66597690112E+02  0.10643003206E+03  0.00000000000E+00 0.  1.
         11    1    5    5    0    0  0.92014252413E+02 -0.16107460800E+02  0.33187761458E+03  0.34477358368E+03  0.00000000000E+00 0. -1.
        -11    1    5    5    0    0  0.18075087186E+03 -0.17157278339E+03  0.10012852944E+04  0.10318334839E+04  0.00000000000E+00 0.  1.
          1    1    6    6  503    0 -0.21489397994E+03  0.15566903313E+02  0.14320764383E+03  0.25870867853E+03  0.00000000000E+00 0. -1.
         -1    1    6    6    0  503 -0.11004744165E+03  0.61760639020E+02  0.37275717786E+02  0.13158379491E+03  0.00000000000E+00 0.  1.
<mgrwt>
<rscale>  0 0.12682357E+04</rscale>
<asrwt>0</asrwt>
<pdfrwt beam="1">  1        2 0.25975477E+00 0.12682357E+04</pdfrwt>
<pdfrwt beam="2">  1       -1 0.36639513E-01 0.12682357E+04</pdfrwt>
<totfact> 0.79586047E+01</totfact>
</mgrwt>
</event>
<event>
12    6  0.1510140E-007  0.1857839E+04  0.7818608E-02  0.8676132E-01
         -1   -1    0    0    0  501 -0.00000000000E+00  0.00000000000E+00  0.26544572698E+03  0.26544572698E+03  0.00000000000E+00 0.  1.
          2   -1    0    0  501    0  0.00000000000E+00 -0.00000000000E+00 -0.32507281680E+04  0.32507281680E+04  0.00000000000E+00 0. -1.
         24    2    1    2    0    0  0.40313122220E+03  0.84418423125E+02 -0.56959223453E+02  0.42349992377E+03  0.80415047248E+02 0.  0.
        254    2    1    2    0    0 -0.40313122220E+03 -0.84418423125E+02 -0.29283232176E+04  0.30926739712E+04  0.90549112264E+03 0.  0.
         23    2    4    4    0    0 -0.78463990018E+02 -0.19603582601E+03 -0.11566394645E+03  0.25759417561E+03  0.91596768437E+02 0.  0.
         23    2    4    4    0    0 -0.32466723218E+03  0.11161740289E+03 -0.28126592711E+04  0.28350797956E+04  0.93584270846E+02 0.  0.
          2    1    3    3  502    0  0.37802714551E+02  0.14541829307E+01 -0.29299095725E+02  0.47849732347E+02  0.00000000000E+00 0. -1.
         -1    1    3    3    0  502  0.36532850765E+03  0.82964240194E+02 -0.27660127728E+02  0.37565019143E+03  0.00000000000E+00 0.  1.
         11    1    5    5    0    0 -0.35430035393E+02 -0.64217881862E+02  0.53663160825E+01  0.73539248752E+02  0.00000000000E+00 0. -1.
        -11    1    5    5    0    0 -0.43033954625E+02 -0.13181794415E+03 -0.12103026253E+03  0.18405492685E+03  0.00000000000E+00 0.  1.
          4    1    6    6  503    0 -0.95512648864E+02 -0.76406675650E+01 -0.89013592380E+03  0.89527817394E+03  0.00000000000E+00 0. -1.
         -4    1    6    6    0  503 -0.22915458332E+03  0.11925807045E+03 -0.19225233473E+04  0.19398016217E+04  0.00000000000E+00 0.  1.
<mgrwt>
<rscale>  0 0.18578395E+04</rscale>
<asrwt>0</asrwt>
<pdfrwt beam="1">  1        2 0.50011200E+00 0.18578395E+04</pdfrwt>
<pdfrwt beam="2">  1       -1 0.40837806E-01 0.18578395E+04</pdfrwt>
<totfact> 0.75722800E+00</totfact>
</mgrwt>
</event>
<event>
12    6  0.1510140E-007  0.1815568E+04  0.7818608E-02  0.8698064E-01
          2   -1    0    0  501    0  0.00000000000E+00  0.00000000000E+00  0.22815178598E+04  0.22815178598E+04  0.00000000000E+00 0. -1.
         -1   -1    0    0    0  501 -0.00000000000E+00 -0.00000000000E+00 -0.36119458246E+03  0.36119458246E+03  0.00000000000E+00 0.  1.
         24    2    1    2    0    0  0.25663998579E+03 -0.14710151659E+03 -0.16571315281E+03  0.34843901097E+03  0.80286716568E+02 0.  0.
        254    2    1    2    0    0 -0.25663998579E+03  0.14710151659E+03  0.20860364302E+04  0.22942734313E+04  0.90809671902E+03 0.  0.
         23    2    4    4    0    0  0.10801488598E+03  0.42613775715E+03  0.13396868609E+04  0.14131391209E+04  0.94555201560E+02 0.  0.
         23    2    4    4    0    0 -0.36465487177E+03 -0.27903624056E+03  0.74634956924E+03  0.88113431035E+03  0.92334145016E+02 0.  0.
          4    1    3    3  502    0  0.48624603211E+02 -0.51647043808E+02 -0.10037776316E+02  0.71641650769E+02  0.00000000000E+00 0. -1.
         -3    1    3    3    0  502  0.20801538258E+03 -0.95454472779E+02 -0.15567537650E+03  0.27679736020E+03  0.00000000000E+00 0.  1.
         11    1    5    5    0    0  0.11997571533E+02  0.11524571178E+01  0.19601293638E+02  0.23010445288E+02  0.00000000000E+00 0. -1.
        -11    1    5    5    0    0  0.96017314444E+02  0.42498530003E+03  0.13200855673E+04  0.13901286756E+04  0.00000000000E+00 0.  1.
          2    1    6    6  503    0 -0.77892988454E+02 -0.17324727852E+02  0.14001610336E+03  0.16115822364E+03  0.00000000000E+00 0. -1.
         -2    1    6    6    0  503 -0.28676188332E+03 -0.26171151271E+03  0.60633346588E+03  0.71997608672E+03  0.00000000000E+00 0.  1.
<mgrwt>
<rscale>  0 0.18155681E+04</rscale>
<asrwt>0</asrwt>
<pdfrwt beam="1">  1        2 0.35100274E+00 0.18155681E+04</pdfrwt>
<pdfrwt beam="2">  1       -1 0.55568399E-01 0.18155681E+04</pdfrwt>
<totfact> 0.16337299E+01</totfact>
</mgrwt>
</event>
<event>
12    6  0.1510140E-007  0.1352564E+04  0.7818608E-02  0.8988889E-01
         -1   -1    0    0    0  501 -0.00000000000E+00  0.00000000000E+00  0.28094969013E+03  0.28094969013E+03  0.00000000000E+00 0.  1.
          2   -1    0    0  501    0  0.00000000000E+00 -0.00000000000E+00 -0.16278979126E+04  0.16278979126E+04  0.00000000000E+00 0. -1.
         24    2    1    2    0    0 -0.19050055329E+03 -0.24022079140E+03 -0.41375118697E+03  0.52104668535E+03  0.79392154330E+02 0.  0.
        254    2    1    2    0    0  0.19050055329E+03  0.24022079140E+03 -0.93319703550E+03  0.13878009174E+04  0.98037655510E+03 0.  0.
         23    2    4    4    0    0  0.61737005251E+02 -0.26098507932E+03  0.35581653057E+02  0.28555874321E+03  0.91395143979E+02 0.  0.
         23    2    4    4    0    0  0.12876354804E+03  0.50120587072E+03 -0.96877868856E+03  0.11022421742E+04  0.92834729317E+02 0.  0.
          2    1    3    3  502    0  0.24655491390E+01 -0.84924400684E+01  0.27093039383E+00  0.88472523503E+01  0.00000000000E+00 0. -1.
         -1    1    3    3    0  502 -0.19296610243E+03 -0.23172835133E+03 -0.41402211737E+03  0.51219943300E+03  0.00000000000E+00 0.  1.
         11    1    5    5    0    0  0.11146654153E+02 -0.20835577960E+03  0.12635968455E+02  0.20903599329E+03  0.00000000000E+00 0. -1.
        -11    1    5    5    0    0  0.50590351098E+02 -0.52629299719E+02  0.22945684601E+02  0.76522749918E+02  0.00000000000E+00 0.  1.
          3    1    6    6  503    0  0.69177005607E+02  0.40554686308E+03 -0.72295981238E+03  0.83182005661E+03  0.00000000000E+00 0. -1.
         -3    1    6    6    0  503  0.59586542429E+02  0.95659007642E+02 -0.24581887618E+03  0.27042211757E+03  0.00000000000E+00 0.  1.
<mgrwt>
<rscale>  0 0.13525641E+04</rscale>
<asrwt>0</asrwt>
<pdfrwt beam="1">  1        2 0.25044584E+00 0.13525641E+04</pdfrwt>
<pdfrwt beam="2">  1       -1 0.43223029E-01 0.13525641E+04</pdfrwt>
<totfact> 0.63186899E+01</totfact>
</mgrwt>
</event>
<event>
12    6  0.1510140E-007  0.2009994E+04  0.7818608E-02  0.8601962E-01
          2   -1    0    0  501    0  0.00000000000E+00  0.00000000000E+00  0.30570010362E+04  0.30570010362E+04  0.00000000000E+00 0. -1.
         -1   -1    0    0    0  501 -0.00000000000E+00 -0.00000000000E+00 -0.33039549378E+03  0.33039549378E+03  0.00000000000E+00 0.  1.
         24    2    1    2    0    0  0.40853169232E+03  0.30431927413E+03  0.52493172430E+02  0.51828605371E+03  0.79727887725E+02 0.  0.
        254    2    1    2    0    0 -0.40853169232E+03 -0.30431927413E+03  0.26741123700E+04  0.28691104762E+04  0.90631649740E+03 0.  0.
         23    2    4    4    0    0 -0.16052268031E+03 -0.54636718890E+03  0.22053348005E+04  0.22795234528E+04  0.91874664074E+02 0.  0.
         23    2    4    4    0    0 -0.24800901201E+03  0.24204791476E+03  0.46877756950E+03  0.58958702341E+03  0.88118019860E+02 0.  0.
          2    1    3    3  502    0  0.10546453206E+03  0.82168063563E+02  0.49330718672E+02  0.14250571216E+03  0.00000000000E+00 0. -1.
         -1    1    3    3    0  502  0.30306716026E+03  0.22215121057E+03  0.31624537580E+01  0.37578034155E+03  0.00000000000E+00 0.  1.
         11    1    5    5    0    0 -0.14080170929E+03 -0.39903965854E+03  0.14907594436E+04  0.15496520542E+04  0.00000000000E+00 0.  1.
        -11    1    5    5    0    0 -0.19720971018E+02 -0.14732753036E+03  0.71457535691E+03  0.72987139867E+03  0.00000000000E+00 0. -1.
          3    1    6    6  503    0 -0.77599100218E+02  0.25415999551E+02  0.97276198914E+02  0.12700493007E+03  0.00000000000E+00 0. -1.
         -3    1    6    6    0  503 -0.17040991179E+03  0.21663191521E+03  0.37150137058E+03  0.46258209333E+03  0.00000000000E+00 0.  1.
<mgrwt>
<rscale>  0 0.20099944E+04</rscale>
<asrwt>0</asrwt>
<pdfrwt beam="1">  1        2 0.47030783E+00 0.20099944E+04</pdfrwt>
<pdfrwt beam="2">  1       -1 0.50830078E-01 0.20099944E+04</pdfrwt>
<totfact> 0.66044786E+00</totfact>
</mgrwt>
</event>
<event>
12    6  0.1510140E-007  0.2842299E+04  0.7818608E-02  0.8290255E-01
         -1   -1    0    0    0  501 -0.00000000000E+00  0.00000000000E+00  0.11017367792E+04  0.11017367792E+04  0.00000000000E+00 0.  1.
          2   -1    0    0  501    0  0.00000000000E+00 -0.00000000000E+00 -0.18331661504E+04  0.18331661504E+04  0.00000000000E+00 0. -1.
         24    2    1    2    0    0 -0.67103507166E+03  0.12657643865E+03  0.78808001012E+03  0.10458192613E+04  0.79738088946E+02 0.  0.
        254    2    1    2    0    0  0.67103507166E+03 -0.12657643865E+03 -0.15195093813E+04  0.18890836683E+04  0.89074052550E+03 0.  0.
         23    2    4    4    0    0  0.21246622357E+03  0.35104064263E+03 -0.37130053479E+03  0.56090101428E+03  0.91511921348E+02 0.  0.
         23    2    4    4    0    0  0.45856884809E+03 -0.47761708128E+03 -0.11482088465E+04  0.13281826541E+04  0.85335470171E+02 0.  0.
          4    1    3    3  502    0 -0.57817992923E+02  0.33093124687E+02  0.64157434815E+02  0.92489197473E+02  0.00000000000E+00 0. -1.
         -3    1    3    3    0  502 -0.61321707874E+03  0.93483313968E+02  0.72392257531E+03  0.95333006387E+03  0.00000000000E+00 0.  1.
         11    1    5    5    0    0  0.19664315780E+03  0.34910494647E+03 -0.33886247254E+03  0.52475763020E+03  0.00000000000E+00 0. -1.
        -11    1    5    5    0    0  0.15823065772E+02  0.19356961573E+01 -0.32438062248E+02  0.36143384076E+02  0.00000000000E+00 0.  1.
          1    1    6    6  503    0  0.40623794891E+03 -0.41283034484E+03 -0.10522852291E+04  0.12011504352E+04  0.00000000000E+00 0. -1.
         -1    1    6    6    0  503  0.52330899185E+02 -0.64786736437E+02 -0.95923617494E+02  0.12703221883E+03  0.00000000000E+00 0.  1.
<mgrwt>
<rscale>  0 0.28422995E+04</rscale>
<asrwt>0</asrwt>
<pdfrwt beam="1">  1        2 0.28202556E+00 0.28422995E+04</pdfrwt>
<pdfrwt beam="2">  1       -1 0.16949797E+00 0.28422995E+04</pdfrwt>
<totfact> 0.20254617E+00</totfact>
</mgrwt>
</event>
<event>
12    6  0.1510140E-007  0.2854047E+04  0.7818608E-02  0.8286683E-01
         -1   -1    0    0    0  501 -0.00000000000E+00  0.00000000000E+00  0.98979894498E+03  0.98979894498E+03  0.00000000000E+00 0.  1.
          2   -1    0    0  501    0  0.00000000000E+00 -0.00000000000E+00 -0.20573838586E+04  0.20573838586E+04  0.00000000000E+00 0. -1.
         24    2    1    2    0    0 -0.70196396815E+03  0.50072664793E+03 -0.15166358817E+04  0.17464450857E+04  0.80034062512E+02 0.  0.
        254    2    1    2    0    0  0.70196396815E+03 -0.50072664793E+03  0.44905096812E+03  0.13007377179E+04  0.86417084547E+03 0.  0.
         23    2    4    4    0    0  0.21186328667E+03  0.85627987313E+02 -0.18155121524E+03  0.30578569734E+03  0.91246065633E+02 0.  0.
         23    2    4    4    0    0  0.49010068148E+03 -0.58635463524E+03  0.63060218336E+03  0.99495202051E+03  0.90884394735E+02 0.  0.
          4    1    3    3  502    0 -0.63872412295E+03  0.46640193544E+03 -0.13443316379E+04  0.15597201106E+04  0.00000000000E+00 0. -1.
         -3    1    3    3    0  502 -0.63239845204E+02  0.34324712483E+02 -0.17230424380E+03  0.18672497514E+03  0.00000000000E+00 0.  1.
         11    1    5    5    0    0  0.13975710638E+03  0.48647599007E+02 -0.16755960590E+03  0.22355057415E+03  0.00000000000E+00 0.  1.
        -11    1    5    5    0    0  0.72106180288E+02  0.36980388306E+02 -0.13991609347E+02  0.82235123196E+02  0.00000000000E+00 0. -1.
          4    1    6    6  503    0  0.25530019461E+03 -0.25206754762E+03  0.25653133762E+03  0.44104939078E+03  0.00000000000E+00 0. -1.
         -4    1    6    6    0  503  0.23480048687E+03 -0.33428708762E+03  0.37407084574E+03  0.55390262973E+03  0.00000000000E+00 0.  1.
<mgrwt>
<rscale>  0 0.28540472E+04</rscale>
<asrwt>0</asrwt>
<pdfrwt beam="1">  1        2 0.31652059E+00 0.28540472E+04</pdfrwt>
<pdfrwt beam="2">  1       -1 0.15227676E+00 0.28540472E+04</pdfrwt>
<totfact> 0.20486279E+00</totfact>
</mgrwt>
</event>
<event>
12    6  0.1510140E-007  0.2141504E+04  0.7818608E-02  0.8543178E-01
          2   -1    0    0  501    0  0.00000000000E+00  0.00000000000E+00  0.33958451652E+04  0.33958451652E+04  0.00000000000E+00 0. -1.
         -1   -1    0    0    0  501 -0.00000000000E+00 -0.00000000000E+00 -0.33762131872E+03  0.33762131872E+03  0.00000000000E+00 0.  1.
         24    2    1    2    0    0 -0.54644073664E+03 -0.10187018662E+03  0.24484213240E+04  0.25121746429E+04  0.85319652628E+02 0.  0.
        254    2    1    2    0    0  0.54644073664E+03  0.10187018662E+03  0.60980252247E+03  0.12212918410E+04  0.90039970619E+03 0.  0.
         23    2    4    4    0    0  0.62119329495E+03  0.14438101507E+03  0.48353334720E+02  0.64606710043E+03  0.91310821210E+02 0.  0.
         23    2    4    4    0    0 -0.74752558308E+02 -0.42510828446E+02  0.56144918775E+03  0.57522474058E+03  0.90902124457E+02 0.  0.
          4    1    3    3  502    0 -0.52018498364E+03 -0.90402294526E+02  0.22178341217E+04  0.22798142870E+04  0.00000000000E+00 0. -1.
         -3    1    3    3    0  502 -0.26255753000E+02 -0.11467892098E+02  0.23058720233E+03  0.23236035590E+03  0.00000000000E+00 0.  1.
         11    1    5    5    0    0  0.53769726779E+03  0.94997004596E+02  0.55264778449E+02  0.54881415653E+03  0.00000000000E+00 0.  1.
        -11    1    5    5    0    0  0.83496027168E+02  0.49384010474E+02 -0.69114437292E+01  0.97252943903E+02  0.00000000000E+00 0. -1.
          2    1    6    6  503    0 -0.47625059979E+02 -0.42644155620E+00  0.96764820026E+02  0.10785063090E+03  0.00000000000E+00 0. -1.
         -2    1    6    6    0  503 -0.27127498329E+02 -0.42084386890E+02  0.46468436773E+03  0.46737410968E+03  0.00000000000E+00 0.  1.
<mgrwt>
<rscale>  0 0.21415039E+04</rscale>
<asrwt>0</asrwt>
<pdfrwt beam="1">  1        2 0.52243769E+00 0.21415039E+04</pdfrwt>
<pdfrwt beam="2">  1       -1 0.51941744E-01 0.21415039E+04</pdfrwt>
<totfact> 0.37556560E+00</totfact>
</mgrwt>
</event>
<event>
12    6  0.1510140E-007  0.1933808E+04  0.7818608E-02  0.8638209E-01
         -1   -1    0    0    0  501 -0.00000000000E+00  0.00000000000E+00  0.32519002632E+03  0.32519002632E+03  0.00000000000E+00 0.  1.
          2   -1    0    0  501    0  0.00000000000E+00 -0.00000000000E+00 -0.28749437605E+04  0.28749437605E+04  0.00000000000E+00 0. -1.
         24    2    1    2    0    0  0.23456046169E+03 -0.57145240932E+03 -0.28023128347E+03  0.68309359232E+03  0.80689635782E+02 0.  0.
        254    2    1    2    0    0 -0.23456046169E+03  0.57145240932E+03 -0.22695224507E+04  0.25170401945E+04  0.89620461955E+03 0.  0.
         23    2    4    4    0    0 -0.53311582961E+03  0.14695131622E+03 -0.12260473956E+04  0.13481835582E+04  0.92733560320E+02 0.  0.
         23    2    4    4    0    0  0.29855536792E+03  0.42450109310E+03 -0.10434750551E+04  0.11688566363E+04  0.89717109911E+02 0.  0.
          4    1    3    3  502    0  0.41432092278E+02 -0.96321756362E+02 -0.82486985907E+02  0.13341140080E+03  0.00000000000E+00 0. -1.
         -3    1    3    3    0  502  0.19312836941E+03 -0.47513065296E+03 -0.19774429756E+03  0.54968219152E+03  0.00000000000E+00 0.  1.
         11    1    5    5    0    0 -0.38420795874E+03  0.11734273294E+03 -0.97893362630E+03  0.10581569436E+04  0.00000000000E+00 0. -1.
        -11    1    5    5    0    0 -0.14890787088E+03  0.29608583284E+02 -0.24711376932E+03  0.29002661464E+03  0.00000000000E+00 0.  1.
          2    1    6    6  503    0  0.17647794772E+03  0.20003872696E+03 -0.60819001611E+03  0.66411975879E+03  0.00000000000E+00 0.  1.
         -2    1    6    6    0  503  0.12207742020E+03  0.22446236614E+03 -0.43528503896E+03  0.50473687747E+03  0.00000000000E+00 0. -1.
<mgrwt>
<rscale>  0 0.19338077E+04</rscale>
<asrwt>0</asrwt>
<pdfrwt beam="1">  1        2 0.44229903E+00 0.19338077E+04</pdfrwt>
<pdfrwt beam="2">  1       -1 0.50029236E-01 0.19338077E+04</pdfrwt>
<totfact> 0.88930419E+00</totfact>
</mgrwt>
</event>
<event>
12    6  0.1510140E-007  0.2740381E+04  0.7818608E-02  0.8322020E-01
         -1   -1    0    0    0  501 -0.00000000000E+00  0.00000000000E+00  0.85455634054E+03  0.85455634054E+03  0.00000000000E+00 0.  1.
          2   -1    0    0  501    0  0.00000000000E+00 -0.00000000000E+00 -0.21969557939E+04  0.21969557939E+04  0.00000000000E+00 0. -1.
         24    2    1    2    0    0 -0.36768470789E+02 -0.11432861785E+04 -0.11249015723E+03  0.11521961638E+04  0.80291706213E+02 0.  0.
        254    2    1    2    0    0  0.36768470789E+02  0.11432861785E+04 -0.12299092961E+04  0.18993159705E+04  0.88671814740E+03 0.  0.
         23    2    4    4    0    0 -0.37421734522E+03  0.59494471427E+03 -0.86455878159E+03  0.11174482394E+04  0.85034383789E+02 0.  0.
         23    2    4    4    0    0  0.41098581601E+03  0.54834146425E+03 -0.36535051450E+03  0.78186773113E+03  0.90820967687E+02 0.  0.
          4    1    3    3  502    0 -0.24864978910E+02 -0.82965913279E+03 -0.11747580076E+03  0.83830370843E+03  0.00000000000E+00 0. -1.
         -3    1    3    3    0  502 -0.11903491879E+02 -0.31362704572E+03  0.49856435328E+01  0.31389245542E+03  0.00000000000E+00 0.  1.
         11    1    5    5    0    0 -0.36714092648E+03  0.57442078602E+03 -0.85554451909E+03  0.10939415540E+04  0.00000000000E+00 0. -1.
        -11    1    5    5    0    0 -0.70764187415E+01  0.20523928242E+02 -0.90142625017E+01  0.23506685456E+02  0.00000000000E+00 0.  1.
          1    1    6    6  503    0  0.18638787309E+03  0.32411412368E+03 -0.19891564650E+03  0.42350659833E+03  0.00000000000E+00 0. -1.
         -1    1    6    6    0  503  0.22459794292E+03  0.22422734057E+03 -0.16643486799E+03  0.35836113281E+03  0.00000000000E+00 0.  1.
<mgrwt>
<rscale>  0 0.27403814E+04</rscale>
<asrwt>0</asrwt>
<pdfrwt beam="1">  1        2 0.33799320E+00 0.27403814E+04</pdfrwt>
<pdfrwt beam="2">  1       -1 0.13147021E+00 0.27403814E+04</pdfrwt>
<totfact> 0.25408577E+00</totfact>
</mgrwt>
</event>
<event>
12    6  0.1510140E-007  0.1777721E+04  0.7818608E-02  0.8718238E-01
          2   -1    0    0  501    0  0.00000000000E+00  0.00000000000E+00  0.18624904571E+04  0.18624904571E+04  0.00000000000E+00 0. -1.
         -1   -1    0    0    0  501 -0.00000000000E+00 -0.00000000000E+00 -0.42420256946E+03  0.42420256946E+03  0.00000000000E+00 0.  1.
         24    2    1    2    0    0 -0.49304371655E+03 -0.19574966200E+03  0.10346926435E+04  0.11655720915E+04  0.80990106231E+02 0.  0.
        254    2    1    2    0    0  0.49304371655E+03  0.19574966200E+03  0.40359524414E+03  0.11211209351E+04  0.90145049414E+03 0.  0.
         23    2    4    4    0    0  0.33990465834E+03  0.43627086014E+03 -0.65640439473E+02  0.56463467598E+03  0.92931210385E+02 0.  0.
         23    2    4    4    0    0  0.15313905821E+03 -0.24052119814E+03  0.46923568361E+03  0.55648625910E+03  0.90514152955E+02 0.  0.
          4    1    3    3  502    0 -0.42871505817E+03 -0.14556992531E+03  0.91247380782E+03  0.10186243931E+04  0.00000000000E+00 0. -1.
         -3    1    3    3    0  502 -0.64328658379E+02 -0.50179736691E+02  0.12221883570E+03  0.14694769839E+03  0.00000000000E+00 0.  1.
         11    1    5    5    0    0  0.16266768098E+03  0.18787251091E+03 -0.74255734175E+02  0.25936609040E+03  0.00000000000E+00 0. -1.
        -11    1    5    5    0    0  0.17723697736E+03  0.24839834923E+03  0.86152947017E+01  0.30526858559E+03  0.00000000000E+00 0.  1.
          3    1    6    6  503    0  0.12879024667E+03 -0.11949844764E+03  0.27245828496E+03  0.32419180074E+03  0.00000000000E+00 0. -1.
         -3    1    6    6    0  503  0.24348811544E+02 -0.12102275051E+03  0.19677739865E+03  0.23229445835E+03  0.00000000000E+00 0.  1.
<mgrwt>
<rscale>  0 0.17777213E+04</rscale>
<asrwt>0</asrwt>
<pdfrwt beam="1">  1        2 0.28653699E+00 0.17777213E+04</pdfrwt>
<pdfrwt beam="2">  1       -1 0.65261935E-01 0.17777213E+04</pdfrwt>
<totfact> 0.20424297E+01</totfact>
</mgrwt>
</event>
<event>
12    6  0.1510140E-007  0.3385160E+04  0.7818608E-02  0.8141558E-01
         -1   -1    0    0    0  501 -0.00000000000E+00  0.00000000000E+00  0.17014368094E+04  0.17014368094E+04  0.00000000000E+00 0.  1.
          2   -1    0    0  501    0  0.00000000000E+00 -0.00000000000E+00 -0.16837694912E+04  0.16837694912E+04  0.00000000000E+00 0. -1.
         24    2    1    2    0    0 -0.10088165011E+04  0.86538724324E+03 -0.83650056897E+03  0.15724306623E+04  0.78734822917E+02 0.  0.
        254    2    1    2    0    0  0.10088165011E+04 -0.86538724324E+03  0.85416788720E+03  0.18127756383E+04  0.88878958232E+03 0.  0.
         23    2    4    4    0    0  0.10037192755E+04 -0.42087897711E+03  0.38224144569E+03  0.11570846335E+04  0.90248706238E+02 0.  0.
         23    2    4    4    0    0  0.50972255763E+01 -0.44450826613E+03  0.47192644151E+03  0.65569100476E+03  0.97992587264E+02 0.  0.
          2    1    3    3  502    0 -0.75997457708E+03  0.63129056174E+03 -0.58480666027E+03  0.11480801196E+04  0.00000000000E+00 0. -1.
         -1    1    3    3    0  502 -0.24884192397E+03  0.23409668150E+03 -0.25169390869E+03  0.42435054270E+03  0.00000000000E+00 0.  1.
         11    1    5    5    0    0  0.67047322857E+03 -0.30789902412E+03  0.22222496215E+03  0.77053234395E+03  0.00000000000E+00 0. -1.
        -11    1    5    5    0    0  0.33324604691E+03 -0.11297995299E+03  0.16001648355E+03  0.38655228956E+03  0.00000000000E+00 0.  1.
          2    1    6    6  503    0  0.10172625934E+01 -0.16109295863E+03  0.24199643112E+03  0.29071334476E+03  0.00000000000E+00 0. -1.
         -2    1    6    6    0  503  0.40799629829E+01 -0.28341530750E+03  0.22993001038E+03  0.36497766000E+03  0.00000000000E+00 0.  1.
<mgrwt>
<rscale>  0 0.33851602E+04</rscale>
<asrwt>0</asrwt>
<pdfrwt beam="1">  1        2 0.25904146E+00 0.33851602E+04</pdfrwt>
<pdfrwt beam="2">  1       -1 0.26175951E+00 0.33851602E+04</pdfrwt>
<totfact> 0.55242276E-01</totfact>
</mgrwt>
</event>
<event>
12    6  0.1510140E-007  0.2788173E+04  0.7818608E-02  0.8306950E-01
         -1   -1    0    0    0  501 -0.00000000000E+00  0.00000000000E+00  0.14565894923E+04  0.14565894923E+04  0.00000000000E+00 0.  1.
          2   -1    0    0  501    0  0.00000000000E+00 -0.00000000000E+00 -0.13342654393E+04  0.13342654393E+04  0.00000000000E+00 0. -1.
         24    2    1    2    0    0 -0.30744197261E+03 -0.68363819808E+03 -0.93496694935E+03  0.12010519391E+04  0.80503488680E+02 0.  0.
        254    2    1    2    0    0  0.30744197261E+03  0.68363819808E+03  0.10572910023E+04  0.15898029924E+04  0.92072120577E+03 0.  0.
         23    2    4    4    0    0 -0.18111918846E+03  0.11347310166E+03  0.72983917222E+03  0.76537560481E+03  0.86338252821E+02 0.  0.
         23    2    4    4    0    0  0.48856116107E+03  0.57016509642E+03  0.32745183010E+03  0.82442738763E+03  0.93142746095E+02 0.  0.
          2    1    3    3  502    0 -0.30782608467E+03 -0.68551803303E+03 -0.92955121942E+03  0.11953063798E+04  0.00000000000E+00 0. -1.
         -1    1    3    3    0  502  0.38411205845E+00  0.18798349480E+01 -0.54157299227E+01  0.57455593375E+01  0.00000000000E+00 0.  1.
         11    1    5    5    0    0 -0.67309967667E+01  0.39430479170E+02  0.10158585770E+03  0.10917763273E+03  0.00000000000E+00 0. -1.
        -11    1    5    5    0    0 -0.17438819169E+03  0.74042622488E+02  0.62825331453E+03  0.65619797208E+03  0.00000000000E+00 0.  1.
          2    1    6    6  503    0  0.49882282161E+02  0.38201529553E+02  0.53378769981E+02  0.82443265452E+02  0.00000000000E+00 0. -1.
         -2    1    6    6    0  503  0.43867887891E+03  0.53196356687E+03  0.27407306012E+03  0.74198412217E+03  0.00000000000E+00 0.  1.
<mgrwt>
<rscale>  0 0.27881729E+04</rscale>
<asrwt>0</asrwt>
<pdfrwt beam="1">  1        2 0.20527161E+00 0.27881729E+04</pdfrwt>
<pdfrwt beam="2">  1       -1 0.22409069E+00 0.27881729E+04</pdfrwt>
<totfact> 0.16188451E+00</totfact>
</mgrwt>
</event>
<event>
12    6  0.1510140E-007  0.3779375E+04  0.7818608E-02  0.8050596E-01
          2   -1    0    0  501    0  0.00000000000E+00  0.00000000000E+00  0.32408620656E+04  0.32408620656E+04  0.00000000000E+00 0. -1.
         -1   -1    0    0    0  501 -0.00000000000E+00 -0.00000000000E+00 -0.11018420767E+04  0.11018420767E+04  0.00000000000E+00 0.  1.
         24    2    1    2    0    0 -0.60231126314E+03 -0.85331159921E+02  0.29458772178E+04  0.30091263641E+04  0.81170364668E+02 0.  0.
        254    2    1    2    0    0  0.60231126314E+03  0.85331159921E+02 -0.80685722892E+03  0.13335777782E+04  0.87025906377E+03 0.  0.
         23    2    4    4    0    0 -0.45593522040E+02  0.48641461810E+02 -0.64958939358E+03  0.65972530952E+03  0.93948617371E+02 0.  0.
         23    2    4    4    0    0  0.64790478518E+03  0.36689698111E+02 -0.15726783533E+03  0.67385246867E+03  0.90648954215E+02 0.  0.
          2    1    3    3  502    0 -0.57503549468E+03 -0.96430957005E+02  0.27583644178E+04  0.28193153443E+04  0.00000000000E+00 0. -1.
         -1    1    3    3    0  502 -0.27275768455E+02  0.11099797083E+02  0.18751280000E+03  0.18981101971E+03  0.00000000000E+00 0.  1.
         11    1    5    5    0    0 -0.52308754752E+02  0.52380846980E+02 -0.26737122905E+03  0.27742987056E+03  0.00000000000E+00 0. -1.
        -11    1    5    5    0    0  0.67152327116E+01 -0.37393851694E+01 -0.38221816454E+03  0.38229543896E+03  0.00000000000E+00 0.  1.
          1    1    6    6  503    0  0.22787756895E+03  0.56175721560E+02 -0.60888095067E+02  0.24246908720E+03  0.00000000000E+00 0.  1.
         -1    1    6    6    0  503  0.42002721623E+03 -0.19486023449E+02 -0.96379740264E+02  0.43138338148E+03  0.00000000000E+00 0. -1.
<mgrwt>
<rscale>  0 0.37793747E+04</rscale>
<asrwt>0</asrwt>
<pdfrwt beam="1">  1        2 0.49859416E+00 0.37793747E+04</pdfrwt>
<pdfrwt beam="2">  1       -1 0.16951417E+00 0.37793747E+04</pdfrwt>
<totfact> 0.27547391E-01</totfact>
</mgrwt>
</event>
<event>
12    6  0.1510140E-007  0.1208485E+04  0.7818608E-02  0.9105462E-01
          2   -1    0    0  501    0  0.00000000000E+00  0.00000000000E+00  0.33050816245E+04  0.33050816245E+04  0.00000000000E+00 0. -1.
         -1   -1    0    0    0  501 -0.00000000000E+00 -0.00000000000E+00 -0.11046906234E+03  0.11046906234E+03  0.00000000000E+00 0.  1.
         24    2    1    2    0    0  0.15473482972E+03 -0.27444275578E+02  0.13673765274E+03  0.22333070046E+03  0.80519316332E+02 0.  0.
        254    2    1    2    0    0 -0.15473482972E+03  0.27444275578E+02  0.30578749094E+04  0.31922199864E+04  0.90275878499E+03 0.  0.
         23    2    4    4    0    0 -0.37151561430E+03 -0.24865878605E+03  0.23797062091E+04  0.24230767353E+04  0.91892218912E+02 0.  0.
         23    2    4    4    0    0  0.21678078457E+03  0.27610306162E+03  0.67816870036E+03  0.76914325111E+03  0.91878971452E+02 0.  0.
          4    1    3    3  502    0  0.81078478482E+02 -0.38759221062E+02  0.11451625543E+03  0.14556774934E+03  0.00000000000E+00 0. -1.
         -3    1    3    3    0  502  0.73656351241E+02  0.11314945485E+02  0.22221397309E+02  0.77762951126E+02  0.00000000000E+00 0.  1.
         11    1    5    5    0    0 -0.73609208857E+02 -0.50448745075E+02  0.30682152013E+03  0.31953534502E+03  0.00000000000E+00 0.  1.
        -11    1    5    5    0    0 -0.29790640544E+03 -0.19821004097E+03  0.20728846890E+04  0.21035413902E+04  0.00000000000E+00 0. -1.
          2    1    6    6  503    0  0.21457009112E+03  0.27657935276E+03  0.62838423853E+03  0.71930745416E+03  0.00000000000E+00 0. -1.
         -2    1    6    6    0  503  0.22106934561E+01 -0.47629114003E+00  0.49784461828E+02  0.49835796957E+02  0.00000000000E+00 0.  1.
<mgrwt>
<rscale>  0 0.12084854E+04</rscale>
<asrwt>0</asrwt>
<pdfrwt beam="1">  1        2 0.50847402E+00 0.12084854E+04</pdfrwt>
<pdfrwt beam="2">  1       -1 0.16995243E-01 0.12084854E+04</pdfrwt>
<totfact> 0.33976768E+01</totfact>
</mgrwt>
</event>
<event>
12    6  0.1510140E-007  0.1205664E+04  0.7818608E-02  0.9107913E-01
          2   -1    0    0  501    0  0.00000000000E+00  0.00000000000E+00  0.15597617755E+04  0.15597617755E+04  0.00000000000E+00 0. -1.
         -1   -1    0    0    0  501 -0.00000000000E+00 -0.00000000000E+00 -0.23298838734E+03  0.23298838734E+03  0.00000000000E+00 0.  1.
         24    2    1    2    0    0  0.12335584499E+03 -0.43856950344E+02 -0.33596207570E+02  0.15728952524E+03  0.80443725673E+02 0.  0.
        254    2    1    2    0    0 -0.12335584499E+03  0.43856950344E+02  0.13603695958E+04  0.16354606376E+04  0.89832397475E+03 0.  0.
         23    2    4    4    0    0 -0.12202771863E+03 -0.49020922407E+02 -0.86759492083E+02  0.18258574536E+03  0.92285047522E+02 0.  0.
         23    2    4    4    0    0 -0.13281263604E+01  0.92877872751E+02  0.14471290878E+04  0.14528748923E+04  0.89637004362E+02 0.  0.
          2    1    3    3  502    0 -0.81840272085E+01  0.87554586547E+01 -0.23423856788E+01  0.12211598105E+02  0.00000000000E+00 0. -1.
         -1    1    3    3    0  502  0.13153987220E+03 -0.52612408999E+02 -0.31253821891E+02  0.14507792714E+03  0.00000000000E+00 0.  1.
         11    1    5    5    0    0 -0.49884787178E+02  0.45653248551E+01  0.94025123035E+01  0.50968043129E+02  0.00000000000E+00 0.  1.
        -11    1    5    5    0    0 -0.72142931453E+02 -0.53586247262E+02 -0.96162004386E+02  0.13161770224E+03  0.00000000000E+00 0. -1.
          3    1    6    6  503    0 -0.39966245665E+02  0.76061034853E+02  0.10529237371E+04  0.10564236735E+04  0.00000000000E+00 0. -1.
         -3    1    6    6    0  503  0.38638119304E+02  0.16816837898E+02  0.39420535075E+03  0.39645121877E+03  0.00000000000E+00 0.  1.
<mgrwt>
<rscale>  0 0.12056639E+04</rscale>
<asrwt>0</asrwt>
<pdfrwt beam="1">  1        2 0.23996334E+00 0.12056639E+04</pdfrwt>
<pdfrwt beam="2">  1       -1 0.35844368E-01 0.12056639E+04</pdfrwt>
<totfact> 0.98102355E+01</totfact>
</mgrwt>
</event>
<event>
12    6  0.1510140E-007  0.1503173E+04  0.7818608E-02  0.8882345E-01
          2   -1    0    0  501    0  0.00000000000E+00  0.00000000000E+00  0.26001190387E+04  0.26001190387E+04  0.00000000000E+00 0. -1.
         -1   -1    0    0    0  501 -0.00000000000E+00 -0.00000000000E+00 -0.21725256695E+03  0.21725256695E+03  0.00000000000E+00 0.  1.
         24    2    1    2    0    0  0.11786758005E+03  0.15955419997E+03 -0.48899135787E+02  0.21929488896E+03  0.79679443324E+02 0.  0.
        254    2    1    2    0    0 -0.11786758005E+03 -0.15955419997E+03  0.24317656076E+04  0.25980767167E+04  0.89284284543E+03 0.  0.
         23    2    4    4    0    0 -0.11566166510E+03  0.15749536817E+03  0.91931950415E+02  0.23507835735E+03  0.92886698802E+02 0.  0.
         23    2    4    4    0    0 -0.22059149496E+01 -0.31704956814E+03  0.23398336572E+04  0.23629983594E+04  0.91730085102E+02 0.  0.
          2    1    3    3  502    0  0.37341241005E+01  0.38671529244E+02 -0.35294162957E+02  0.52489130262E+02  0.00000000000E+00 0. -1.
         -1    1    3    3    0  502  0.11413345595E+03  0.12088267073E+03 -0.13604972830E+02  0.16680575870E+03  0.00000000000E+00 0.  1.
         11    1    5    5    0    0 -0.12215575033E+03  0.12705556480E+03  0.10037239499E+03  0.20282939028E+03  0.00000000000E+00 0.  1.
        -11    1    5    5    0    0  0.64940852269E+01  0.30439803369E+02 -0.84404445726E+01  0.32248967063E+02  0.00000000000E+00 0. -1.
          3    1    6    6  503    0 -0.13747265984E+01 -0.13650239911E+03  0.69455349741E+03  0.70784133505E+03  0.00000000000E+00 0. -1.
         -3    1    6    6    0  503 -0.83118835121E+00 -0.18054716904E+03  0.16452801598E+04  0.16551570243E+04  0.00000000000E+00 0.  1.
<mgrwt>
<rscale>  0 0.15031734E+04</rscale>
<asrwt>0</asrwt>
<pdfrwt beam="1">  1        2 0.40001829E+00 0.15031734E+04</pdfrwt>
<pdfrwt beam="2">  1       -1 0.33423474E-01 0.15031734E+04</pdfrwt>
<totfact> 0.28305732E+01</totfact>
</mgrwt>
</event>
<event>
12    6  0.1510140E-007  0.3006214E+04  0.7818608E-02  0.8241959E-01
         -1   -1    0    0    0  501 -0.00000000000E+00  0.00000000000E+00  0.82737587736E+03  0.82737587736E+03  0.00000000000E+00 0.  1.
          2   -1    0    0  501    0  0.00000000000E+00 -0.00000000000E+00 -0.27307179353E+04  0.27307179353E+04  0.00000000000E+00 0. -1.
         24    2    1    2    0    0  0.23334640166E+03 -0.27023769341E+03 -0.24480343593E+04  0.24754018446E+04  0.85223904022E+02 0.  0.
        254    2    1    2    0    0 -0.23334640166E+03  0.27023769341E+03  0.54469230132E+03  0.10826919681E+04  0.86490071140E+03 0.  0.
         23    2    4    4    0    0  0.14927534101E+03 -0.22543868194E+03  0.27011301304E+03  0.39298655041E+03  0.91496788137E+02 0.  0.
         23    2    4    4    0    0 -0.38262174267E+03  0.49567637535E+03  0.27457928828E+03  0.68970541770E+03  0.90583169560E+02 0.  0.
          2    1    3    3  502    0  0.18199112560E+03 -0.24210393795E+03 -0.18649341262E+04  0.18893687786E+04  0.00000000000E+00 0. -1.
         -1    1    3    3    0  502  0.51355276059E+02 -0.28133755465E+02 -0.58310023309E+03  0.58603306597E+03  0.00000000000E+00 0.  1.
         11    1    5    5    0    0  0.11125555245E+03 -0.89469282439E+02  0.11575064971E+03  0.18379543890E+03  0.00000000000E+00 0. -1.
        -11    1    5    5    0    0  0.38019788564E+02 -0.13596939950E+03  0.15436236333E+03  0.20919111151E+03  0.00000000000E+00 0.  1.
          1    1    6    6  503    0 -0.34109998031E+02  0.11232836508E+02  0.15323495265E+02  0.39044565420E+02  0.00000000000E+00 0. -1.
         -1    1    6    6    0  503 -0.34851174464E+03  0.48444353884E+03  0.25925579302E+03  0.65066085228E+03  0.00000000000E+00 0.  1.
<mgrwt>
<rscale>  0 0.30062137E+04</rscale>
<asrwt>0</asrwt>
<pdfrwt beam="1">  1        2 0.42011045E+00 0.30062137E+04</pdfrwt>
<pdfrwt beam="2">  1       -1 0.12728860E+00 0.30062137E+04</pdfrwt>
<totfact> 0.13230871E+00</totfact>
</mgrwt>
</event>
<event>
12    6  0.1510140E-007  0.1476344E+04  0.7818608E-02  0.8900338E-01
          2   -1    0    0  501    0  0.00000000000E+00  0.00000000000E+00  0.13966921114E+04  0.13966921114E+04  0.00000000000E+00 0. -1.
         -1   -1    0    0    0  501 -0.00000000000E+00 -0.00000000000E+00 -0.39013447951E+03  0.39013447951E+03  0.00000000000E+00 0.  1.
         24    2    1    2    0    0 -0.19507406889E+03 -0.48004032279E+01  0.80065196779E+03  0.82745754697E+03  0.74602160082E+02 0.  0.
        254    2    1    2    0    0  0.19507406889E+03  0.48004032279E+01  0.20590566411E+03  0.95936904394E+03  0.91646870308E+03 0.  0.
         23    2    4    4    0    0 -0.16679675687E+02  0.42376398765E+03  0.20783682592E+03  0.48104797108E+03  0.91415947525E+02 0.  0.
         23    2    4    4    0    0  0.21175374458E+03 -0.41896358442E+03 -0.19311618151E+01  0.47832107286E+03  0.91745222971E+02 0.  0.
          4    1    3    3  502    0 -0.16261642216E+03 -0.25783446047E+02  0.71125645016E+03  0.73006480859E+03  0.00000000000E+00 0. -1.
         -3    1    3    3    0  502 -0.32457646728E+02  0.20983042819E+02  0.89395517627E+02  0.97392738378E+02  0.00000000000E+00 0.  1.
         11    1    5    5    0    0 -0.27654654778E+02  0.35005803757E+02  0.15988250440E+02  0.47389981849E+02  0.00000000000E+00 0. -1.
        -11    1    5    5    0    0  0.10974979091E+02  0.38875818389E+03  0.19184857548E+03  0.43365798923E+03  0.00000000000E+00 0.  1.
          4    1    6    6  503    0  0.68450621073E+02 -0.66401616867E+02 -0.19515048867E+02  0.97342176779E+02  0.00000000000E+00 0. -1.
         -4    1    6    6    0  503  0.14330312351E+03 -0.35256196756E+03  0.17583887052E+02  0.38097889608E+03  0.00000000000E+00 0.  1.
<mgrwt>
<rscale>  0 0.14763438E+04</rscale>
<asrwt>0</asrwt>
<pdfrwt beam="1">  1        2 0.21487571E+00 0.14763438E+04</pdfrwt>
<pdfrwt beam="2">  1       -1 0.60020690E-01 0.14763438E+04</pdfrwt>
<totfact> 0.45123657E+01</totfact>
</mgrwt>
</event>
<event>
12    6  0.1510140E-007  0.4439177E+04  0.7818608E-02  0.7921372E-01
         -1   -1    0    0    0  501 -0.00000000000E+00  0.00000000000E+00  0.17258959030E+04  0.17258959030E+04  0.00000000000E+00 0.  1.
          2   -1    0    0  501    0  0.00000000000E+00 -0.00000000000E+00 -0.28545019702E+04  0.28545019702E+04  0.00000000000E+00 0. -1.
         24    2    1    2    0    0  0.13321987294E+02 -0.64423689485E+03  0.15504453804E+04  0.16809092307E+04  0.79726483458E+02 0.  0.
        254    2    1    2    0    0 -0.13321987294E+02  0.64423689485E+03 -0.26790514476E+04  0.28994886425E+04  0.90249602615E+03 0.  0.
         23    2    4    4    0    0  0.83231791504E+02  0.26873338422E+03 -0.23875152225E+04  0.24058799819E+04  0.94257025832E+02 0.  0.
         23    2    4    4    0    0 -0.96553778798E+02  0.37550351063E+03 -0.29153622508E+03  0.49360866057E+03  0.91272233228E+02 0.  0.
          2    1    3    3  502    0  0.29118058306E+02 -0.29067025631E+03  0.61828802810E+03  0.68382537604E+03  0.00000000000E+00 0. -1.
         -1    1    3    3    0  502 -0.15796071012E+02 -0.35356663855E+03  0.93215735232E+03  0.99708385467E+03  0.00000000000E+00 0.  1.
         11    1    5    5    0    0  0.41625426112E+02  0.21645932449E+03 -0.15342823478E+04  0.15500353667E+04  0.00000000000E+00 0.  1.
        -11    1    5    5    0    0  0.41606365392E+02  0.52274059733E+02 -0.85323287475E+03  0.85584461529E+03  0.00000000000E+00 0. -1.
          2    1    6    6  503    0 -0.10318362875E+03  0.36633225741E+03 -0.26219467565E+03  0.46216039640E+03  0.00000000000E+00 0.  1.
         -2    1    6    6    0  503  0.66298499489E+01  0.91712532138E+01 -0.29341549436E+02  0.31448264168E+02  0.00000000000E+00 0. -1.
<mgrwt>
<rscale>  0 0.44391771E+04</rscale>
<asrwt>0</asrwt>
<pdfrwt beam="1">  1        2 0.43915415E+00 0.44391771E+04</pdfrwt>
<pdfrwt beam="2">  1       -1 0.26552245E+00 0.44391771E+04</pdfrwt>
<totfact> 0.10237563E-01</totfact>
</mgrwt>
</event>
<event>
12    6  0.1510140E-007  0.1798214E+04  0.7818608E-02  0.8707250E-01
         -1   -1    0    0    0  501 -0.00000000000E+00  0.00000000000E+00  0.94371965936E+03  0.94371965936E+03  0.00000000000E+00 0.  1.
          2   -1    0    0  501    0  0.00000000000E+00 -0.00000000000E+00 -0.85660306593E+03  0.85660306593E+03  0.00000000000E+00 0. -1.
         24    2    1    2    0    0 -0.55933573978E+03  0.46467783488E+02 -0.34153839820E+03  0.66198288605E+03  0.80976164852E+02 0.  0.
        254    2    1    2    0    0  0.55933573978E+03 -0.46467783488E+02  0.42865499163E+03  0.11383398392E+04  0.89278035545E+03 0.  0.
         23    2    4    4    0    0  0.61488236115E+03 -0.26731435443E+03  0.54312001901E+03  0.86746898528E+03  0.89363321592E+02 0.  0.
         23    2    4    4    0    0 -0.55546621370E+02  0.22084657094E+03 -0.11446502737E+03  0.27087085396E+03  0.91706826323E+02 0.  0.
          4    1    3    3  502    0 -0.52571630822E+03  0.30095068061E+02 -0.33476550063E+03  0.62398020022E+03  0.00000000000E+00 0. -1.
         -3    1    3    3    0  502 -0.33619431558E+02  0.16372715427E+02 -0.67728975758E+01  0.38002685830E+02  0.00000000000E+00 0.  1.
         11    1    5    5    0    0  0.46027192739E+02 -0.45576194485E+02  0.67314068144E+02  0.93417748556E+02  0.00000000000E+00 0. -1.
        -11    1    5    5    0    0  0.56885516841E+03 -0.22173815994E+03  0.47580595086E+03  0.77405123673E+03  0.00000000000E+00 0.  1.
          3    1    6    6  503    0 -0.22058460961E+02  0.17129379288E+02 -0.45158269167E+02  0.53096709963E+02  0.00000000000E+00 0. -1.
         -3    1    6    6    0  503 -0.33488160409E+02  0.20371719165E+03 -0.69306758206E+02  0.21777414400E+03  0.00000000000E+00 0.  1.
<mgrwt>
<rscale>  0 0.17982137E+04</rscale>
<asrwt>0</asrwt>
<pdfrwt beam="1">  1        2 0.13178509E+00 0.17982137E+04</pdfrwt>
<pdfrwt beam="2">  1       -1 0.14518764E+00 0.17982137E+04</pdfrwt>
<totfact> 0.12886969E+01</totfact>
</mgrwt>
</event>
<event>
12    6  0.1510140E-007  0.2289570E+04  0.7818608E-02  0.8482045E-01
         -1   -1    0    0    0  501 -0.00000000000E+00  0.00000000000E+00  0.50924804968E+03  0.50924804968E+03  0.00000000000E+00 0.  1.
          2   -1    0    0  501    0  0.00000000000E+00 -0.00000000000E+00 -0.25734663379E+04  0.25734663379E+04  0.00000000000E+00 0. -1.
         24    2    1    2    0    0 -0.21017669038E+03 -0.58472586754E+03  0.12262208334E+03  0.63817066623E+03  0.78403077557E+02 0.  0.
        254    2    1    2    0    0  0.21017669038E+03  0.58472586754E+03 -0.21868403716E+04  0.24445437213E+04  0.89857921940E+03 0.  0.
         23    2    4    4    0    0 -0.74614933919E+02 -0.18877376630E+03 -0.23342044042E+03  0.32242679729E+03  0.90945117533E+02 0.  0.
         23    2    4    4    0    0  0.28479162430E+03  0.77349963384E+03 -0.19534199311E+04  0.21221169241E+04  0.90126905781E+02 0.  0.
          4    1    3    3  502    0 -0.23877525463E+01 -0.34288334401E+01 -0.62746759312E+01  0.75385554998E+01  0.00000000000E+00 0. -1.
         -3    1    3    3    0  502 -0.20778893783E+03 -0.58129703410E+03  0.12889675927E+03  0.63063211073E+03  0.00000000000E+00 0.  1.
         11    1    5    5    0    0 -0.54219566688E+02 -0.19079615954E+03 -0.19122715537E+03  0.27551907531E+03  0.00000000000E+00 0. -1.
        -11    1    5    5    0    0 -0.20395367231E+02  0.20223932447E+01 -0.42193285043E+02  0.46907721983E+02  0.00000000000E+00 0.  1.
          1    1    6    6  503    0  0.20911010370E+03  0.66253358463E+03 -0.16493520895E+04  0.17897039145E+04  0.00000000000E+00 0. -1.
         -1    1    6    6    0  503  0.75681520593E+02  0.11096604921E+03 -0.30406784160E+03  0.33241300957E+03  0.00000000000E+00 0.  1.
<mgrwt>
<rscale>  0 0.22895700E+04</rscale>
<asrwt>0</asrwt>
<pdfrwt beam="1">  1        2 0.39591790E+00 0.22895700E+04</pdfrwt>
<pdfrwt beam="2">  1       -1 0.78345853E-01 0.22895700E+04</pdfrwt>
<totfact> 0.53108576E+00</totfact>
</mgrwt>
</event>
<event>
12    6  0.1510140E-007  0.2151829E+04  0.7818608E-02  0.8538750E-01
         -1   -1    0    0    0  501 -0.00000000000E+00  0.00000000000E+00  0.11309273993E+04  0.11309273993E+04  0.00000000000E+00 0.  1.
          2   -1    0    0  501    0  0.00000000000E+00 -0.00000000000E+00 -0.10235779752E+04  0.10235779752E+04  0.00000000000E+00 0. -1.
         24    2    1    2    0    0  0.67419429726E+03  0.51072068701E+03  0.29317003223E+03  0.89874237205E+03  0.80097521319E+02 0.  0.
        254    2    1    2    0    0 -0.67419429726E+03 -0.51072068701E+03 -0.18582060812E+03  0.12557630024E+04  0.90941621346E+03 0.  0.
         23    2    4    4    0    0 -0.15908084215E+03 -0.25509394197E+03 -0.50301326161E+03  0.59272109285E+03  0.88973698288E+02 0.  0.
         23    2    4    4    0    0 -0.51511345512E+03 -0.25562674504E+03  0.31719265349E+03  0.66304190959E+03  0.91249602842E+02 0.  0.
          4    1    3    3  502    0  0.12632785371E+03  0.86545016473E+02  0.22060621860E+02  0.15471081907E+03  0.00000000000E+00 0. -1.
         -3    1    3    3    0  502  0.54786644356E+03  0.42417567054E+03  0.27110941037E+03  0.74403155299E+03  0.00000000000E+00 0.  1.
         11    1    5    5    0    0 -0.14673537442E+03 -0.15959757501E+03 -0.33372529330E+03  0.39796385193E+03  0.00000000000E+00 0.  1.
        -11    1    5    5    0    0 -0.12345467725E+02 -0.95496366963E+02 -0.16928796832E+03  0.19475724093E+03  0.00000000000E+00 0. -1.
          1    1    6    6  503    0 -0.44162225012E+02 -0.44336691641E+02  0.13049117928E+02  0.63924360164E+02  0.00000000000E+00 0. -1.
         -1    1    6    6    0  503 -0.47095123010E+03 -0.21129005340E+03  0.30414353556E+03  0.59911754942E+03  0.00000000000E+00 0.  1.
<mgrwt>
<rscale>  0 0.21518293E+04</rscale>
<asrwt>0</asrwt>
<pdfrwt beam="1">  1        2 0.15747354E+00 0.21518293E+04</pdfrwt>
<pdfrwt beam="2">  1       -1 0.17398883E+00 0.21518293E+04</pdfrwt>
<totfact> 0.58575401E+00</totfact>
</mgrwt>
</event>
<event>
12    6  0.1510140E-007  0.1919939E+04  0.7818608E-02  0.8644995E-01
          2   -1    0    0  501    0  0.00000000000E+00  0.00000000000E+00  0.49727778540E+03  0.49727778540E+03  0.00000000000E+00 0. -1.
         -1   -1    0    0    0  501 -0.00000000000E+00 -0.00000000000E+00 -0.18531717135E+04  0.18531717135E+04  0.00000000000E+00 0.  1.
         24    2    1    2    0    0  0.12970785937E+03 -0.38251762853E+03 -0.12976534777E+04  0.13613599965E+04  0.79073553803E+02 0.  0.
        254    2    1    2    0    0 -0.12970785937E+03  0.38251762853E+03 -0.58240450437E+02  0.98908950246E+03  0.90097848414E+03 0.  0.
         23    2    4    4    0    0  0.34174333243E+03  0.26565686417E+03 -0.18395239720E+03  0.47938867326E+03  0.92805931219E+02 0.  0.
         23    2    4    4    0    0 -0.47145119181E+03  0.11686076436E+03  0.12571194676E+03  0.50970082920E+03  0.89826372659E+02 0.  0.
          2    1    3    3  502    0  0.33287665588E+02 -0.51717605770E+02 -0.12799880906E+03  0.14200871293E+03  0.00000000000E+00 0. -1.
         -1    1    3    3    0  502  0.96420193786E+02 -0.33080002276E+03 -0.11696546686E+04  0.12193512836E+04  0.00000000000E+00 0.  1.
         11    1    5    5    0    0  0.12741476321E+03  0.50379644178E+02 -0.78023512493E+02  0.15767149055E+03  0.00000000000E+00 0. -1.
        -11    1    5    5    0    0  0.21432856923E+03  0.21527721999E+03 -0.10592888471E+03  0.32171718271E+03  0.00000000000E+00 0.  1.
          1    1    6    6  503    0 -0.45220917462E+03  0.12828822260E+03  0.12809346015E+03  0.48719497145E+03  0.00000000000E+00 0. -1.
         -1    1    6    6    0  503 -0.19242017184E+02 -0.11427458241E+02 -0.23815133845E+01  0.22505857752E+02  0.00000000000E+00 0.  1.
<mgrwt>
<rscale>  0 0.19199387E+04</rscale>
<asrwt>0</asrwt>
<pdfrwt beam="1">  1        2 0.76504273E-01 0.19199387E+04</pdfrwt>
<pdfrwt beam="2">  1       -1 0.28510335E+00 0.19199387E+04</pdfrwt>
<totfact> 0.27323857E+00</totfact>
</mgrwt>
</event>
<event>
12    6  0.1510140E-007  0.2176595E+04  0.7818608E-02  0.8528233E-01
          2   -1    0    0  501    0  0.00000000000E+00  0.00000000000E+00  0.12643605544E+04  0.12643605544E+04  0.00000000000E+00 0. -1.
         -1   -1    0    0    0  501 -0.00000000000E+00 -0.00000000000E+00 -0.93675173292E+03  0.93675173292E+03  0.00000000000E+00 0.  1.
         24    2    1    2    0    0  0.17571648835E+02  0.20954377549E+03 -0.74801101922E+03  0.78127077749E+03  0.81524144853E+02 0.  0.
        254    2    1    2    0    0 -0.17571648835E+02 -0.20954377549E+03  0.10756198407E+04  0.14198415098E+04  0.90264861081E+03 0.  0.
         23    2    4    4    0    0 -0.28235065573E+03  0.22397032676E+03  0.65855012128E+03  0.75625822341E+03  0.91398239500E+02 0.  0.
         23    2    4    4    0    0  0.26477900689E+03 -0.43351410224E+03  0.41706971940E+03  0.66358328639E+03  0.91395994449E+02 0.  0.
          4    1    3    3  502    0  0.13536040609E+02 -0.22267717098E+01 -0.44626997275E+02  0.46687812044E+02  0.00000000000E+00 0. -1.
         -3    1    3    3    0  502  0.40356082257E+01  0.21177054720E+03 -0.70338402195E+03  0.73458296545E+03  0.00000000000E+00 0.  1.
         11    1    5    5    0    0 -0.16296330422E+03  0.12203574083E+03  0.46080145404E+03  0.50377350129E+03  0.00000000000E+00 0. -1.
        -11    1    5    5    0    0 -0.11938735150E+03  0.10193458592E+03  0.19774866724E+03  0.25248472212E+03  0.00000000000E+00 0.  1.
          2    1    6    6  503    0  0.25776290233E+03 -0.41609066447E+03  0.41951202860E+03  0.64464214648E+03  0.00000000000E+00 0. -1.
         -2    1    6    6    0  503  0.70161045624E+01 -0.17423437771E+02 -0.24423091954E+01  0.18941139913E+02  0.00000000000E+00 0.  1.
<mgrwt>
<rscale>  0 0.21765955E+04</rscale>
<asrwt>0</asrwt>
<pdfrwt beam="1">  1        2 0.19451701E+00 0.21765955E+04</pdfrwt>
<pdfrwt beam="2">  1       -1 0.14411565E+00 0.21765955E+04</pdfrwt>
<totfact> 0.70321579E+00</totfact>
</mgrwt>
</event>
<event>
12    6  0.1510140E-007  0.1965093E+04  0.7818608E-02  0.8623117E-01
          4   -1    0    0  501    0  0.00000000000E+00  0.00000000000E+00  0.86938407136E+03  0.86938407136E+03  0.00000000000E+00 0. -1.
         -3   -1    0    0    0  501 -0.00000000000E+00 -0.00000000000E+00 -0.11104389801E+04  0.11104389801E+04  0.00000000000E+00 0.  1.
         24    2    1    2    0    0  0.10466303186E+03  0.40035102762E+03 -0.70786501080E+03  0.82360392183E+03  0.77558049086E+02 0.  0.
        254    2    1    2    0    0 -0.10466303186E+03 -0.40035102762E+03  0.46681010209E+03  0.11562191296E+04  0.97349664031E+03 0.  0.
         23    2    4    4    0    0  0.17085358195E+03  0.25702705998E+03  0.24492533989E+03  0.40428706494E+03  0.90585609953E+02 0.  0.
         23    2    4    4    0    0 -0.27551661381E+03 -0.65737808760E+03  0.22188476220E+03  0.75193206466E+03  0.90075677270E+02 0.  0.
          2    1    3    3  502    0  0.34278170980E+02  0.75092755014E+02 -0.20060603934E+03  0.21692555839E+03  0.00000000000E+00 0. -1.
         -1    1    3    3    0  502  0.70384860883E+02  0.32525827261E+03 -0.50725897146E+03  0.60667836344E+03  0.00000000000E+00 0.  1.
         11    1    5    5    0    0  0.48302479884E+02  0.88773977878E+02  0.13575142847E+03  0.16924065423E+03  0.00000000000E+00 0.  1.
        -11    1    5    5    0    0  0.12255110206E+03  0.16825308210E+03  0.10917391142E+03  0.23504641071E+03  0.00000000000E+00 0. -1.
          1    1    6    6  503    0 -0.23030086907E+03 -0.52138648107E+03  0.21251988172E+03  0.60831492918E+03  0.00000000000E+00 0. -1.
         -1    1    6    6    0  503 -0.45215744741E+02 -0.13599160653E+03  0.93648804788E+01  0.14361713549E+03  0.00000000000E+00 0.  1.
<mgrwt>
<rscale>  0 0.19650933E+04</rscale>
<asrwt>0</asrwt>
<pdfrwt beam="1">  1        4 0.13375139E+00 0.19650933E+04</pdfrwt>
<pdfrwt beam="2">  1       -3 0.17083677E+00 0.19650933E+04</pdfrwt>
<totfact> 0.19556149E-01</totfact>
</mgrwt>
</event>
<event>
12    6  0.1510140E-007  0.1703617E+04  0.7818608E-02  0.8759304E-01
         -1   -1    0    0    0  501 -0.00000000000E+00  0.00000000000E+00  0.29231562460E+03  0.29231562460E+03  0.00000000000E+00 0.  1.
          2   -1    0    0  501    0  0.00000000000E+00 -0.00000000000E+00 -0.24821718674E+04  0.24821718674E+04  0.00000000000E+00 0. -1.
         24    2    1    2    0    0  0.40797905021E+03 -0.45077647785E+03 -0.92492821539E+03  0.11098197996E+04  0.81002750518E+02 0.  0.
        254    2    1    2    0    0 -0.40797905021E+03  0.45077647785E+03 -0.12649280274E+04  0.16646676924E+04  0.89522582247E+03 0.  0.
         23    2    4    4    0    0 -0.21678666332E+03  0.61491263335E+03 -0.42611837661E+03  0.78410286618E+03  0.90146712684E+02 0.  0.
         23    2    4    4    0    0 -0.19119238688E+03 -0.16413615551E+03 -0.83880965082E+03  0.88056482624E+03  0.91091034489E+02 0.  0.
          4    1    3    3  502    0  0.29886231675E+03 -0.30380984727E+03 -0.70366007356E+03  0.82265217850E+03  0.00000000000E+00 0. -1.
         -3    1    3    3    0  502  0.10911673345E+03 -0.14696663057E+03 -0.22126814183E+03  0.28716762110E+03  0.00000000000E+00 0.  1.
         11    1    5    5    0    0 -0.17536752859E+03  0.57003343478E+03 -0.37533556997E+03  0.70467629230E+03  0.00000000000E+00 0. -1.
        -11    1    5    5    0    0 -0.41419134733E+02  0.44879198574E+02 -0.50782806646E+02  0.79426573875E+02  0.00000000000E+00 0.  1.
          3    1    6    6  503    0 -0.16646006554E+03 -0.16061995633E+03 -0.81024433365E+03  0.84261711589E+03  0.00000000000E+00 0. -1.
         -3    1    6    6    0  503 -0.24732321341E+02 -0.35161991784E+01 -0.28565317168E+02  0.37947710346E+02  0.00000000000E+00 0.  1.
<mgrwt>
<rscale>  0 0.17036169E+04</rscale>
<asrwt>0</asrwt>
<pdfrwt beam="1">  1        2 0.38187260E+00 0.17036169E+04</pdfrwt>
<pdfrwt beam="2">  1       -1 0.44971634E-01 0.17036169E+04</pdfrwt>
<totfact> 0.18963532E+01</totfact>
</mgrwt>
</event>
<event>
12    6  0.1510140E-007  0.2115255E+04  0.7818608E-02  0.8554553E-01
         -1   -1    0    0    0  501 -0.00000000000E+00  0.00000000000E+00  0.22551311481E+03  0.22551311481E+03  0.00000000000E+00 0.  1.
          2   -1    0    0  501    0  0.00000000000E+00 -0.00000000000E+00 -0.49601369911E+04  0.49601369911E+04  0.00000000000E+00 0. -1.
         24    2    1    2    0    0 -0.59390769946E+03  0.11530345297E+03 -0.42801880586E+03  0.74527381902E+03  0.78814499914E+02 0.  0.
        254    2    1    2    0    0  0.59390769946E+03 -0.11530345297E+03 -0.43066050704E+04  0.44403762868E+04  0.89670122943E+03 0.  0.
         23    2    4    4    0    0  0.25388169072E+03  0.22830819833E+03 -0.33128660324E+04  0.33316871968E+04  0.92074331139E+02 0.  0.
         23    2    4    4    0    0  0.34002600874E+03 -0.34361165130E+03 -0.99373903797E+03  0.11086890900E+04  0.89373202028E+02 0.  0.
          2    1    3    3  502    0 -0.55830180759E+02  0.28781440574E+02 -0.65352099424E+02  0.90643683201E+02  0.00000000000E+00 0. -1.
         -1    1    3    3    0  502 -0.53807751870E+03  0.86522012397E+02 -0.36266670644E+03  0.65463013582E+03  0.00000000000E+00 0.  1.
         11    1    5    5    0    0  0.25961474357E+03  0.22668843489E+03 -0.32918377780E+04  0.33098313278E+04  0.00000000000E+00 0.  1.
        -11    1    5    5    0    0 -0.57330528514E+01  0.16197634345E+01 -0.21028254405E+02  0.21855869049E+02  0.00000000000E+00 0. -1.
          1    1    6    6  503    0  0.24612472757E+02 -0.15490740676E+01 -0.73176396477E+02  0.77220194554E+02  0.00000000000E+00 0. -1.
         -1    1    6    6    0  503  0.31541353598E+03 -0.34206257723E+03 -0.92056264149E+03  0.10314688955E+04  0.00000000000E+00 0.  1.
<mgrwt>
<rscale>  0 0.21152550E+04</rscale>
<asrwt>0</asrwt>
<pdfrwt beam="1">  1        2 0.76309798E+00 0.21152550E+04</pdfrwt>
<pdfrwt beam="2">  1       -1 0.34694326E-01 0.21152550E+04</pdfrwt>
<totfact> 0.32448024E-01</totfact>
</mgrwt>
</event>
<event>
12    6  0.1510140E-007  0.1099653E+04  0.7818608E-02  0.9205530E-01
         -1   -1    0    0    0  501 -0.00000000000E+00  0.00000000000E+00  0.36241932982E+03  0.36241932982E+03  0.00000000000E+00 0.  1.
          2   -1    0    0  501    0  0.00000000000E+00 -0.00000000000E+00 -0.83414201528E+03  0.83414201528E+03  0.00000000000E+00 0. -1.
         24    2    1    2    0    0  0.13387642421E+03  0.28162364950E+01 -0.18605907836E+03  0.24071434282E+03  0.73447845784E+02 0.  0.
        254    2    1    2    0    0 -0.13387642421E+03 -0.28162364950E+01 -0.28566360710E+03  0.95584700228E+03  0.90227987187E+03 0.  0.
         23    2    4    4    0    0  0.26214208439E+03 -0.20040788862E+03  0.10581766547E+03  0.35852218192E+03  0.91972726256E+02 0.  0.
         23    2    4    4    0    0 -0.39601850860E+03  0.19759165213E+03 -0.39148127257E+03  0.59732482036E+03  0.87557033424E+02 0.  0.
          4    1    3    3  502    0  0.13193505506E+03  0.14826939275E+02 -0.18603054442E+03  0.22854772005E+03  0.00000000000E+00 0. -1.
         -3    1    3    3    0  502  0.19413691519E+01 -0.12010702780E+02 -0.28533940435E-01  0.12166622770E+02  0.00000000000E+00 0.  1.
         11    1    5    5    0    0  0.14726686908E+03 -0.80677210040E+02  0.13051751488E+02  0.16842414068E+03  0.00000000000E+00 0. -1.
        -11    1    5    5    0    0  0.11487521531E+03 -0.11973067858E+03  0.92765913978E+02  0.19009804124E+03  0.00000000000E+00 0.  1.
          4    1    6    6  503    0 -0.15797430017E+03  0.10746120893E+03 -0.12226952805E+03  0.22683392258E+03  0.00000000000E+00 0. -1.
         -4    1    6    6    0  503 -0.23804420842E+03  0.90130443193E+02 -0.26921174452E+03  0.37049089778E+03  0.00000000000E+00 0.  1.
<mgrwt>
<rscale>  0 0.10996530E+04</rscale>
<asrwt>0</asrwt>
<pdfrwt beam="1">  1        2 0.12832954E+00 0.10996530E+04</pdfrwt>
<pdfrwt beam="2">  1       -1 0.55756820E-01 0.10996530E+04</pdfrwt>
<totfact> 0.12004105E+02</totfact>
</mgrwt>
</event>
<event>
12    6  0.1510140E-007  0.2120184E+04  0.7818608E-02  0.8552404E-01
          2   -1    0    0  501    0  0.00000000000E+00  0.00000000000E+00  0.22268631408E+04  0.22268631408E+04  0.00000000000E+00 0. -1.
         -1   -1    0    0    0  501 -0.00000000000E+00 -0.00000000000E+00 -0.50465368431E+03  0.50465368431E+03  0.00000000000E+00 0.  1.
         24    2    1    2    0    0  0.25192853256E+03  0.82547903498E+03  0.64690679190E+03  0.10815657555E+04  0.80077858202E+02 0.  0.
        254    2    1    2    0    0 -0.25192853256E+03 -0.82547903498E+03  0.10753026646E+04  0.16499510696E+04  0.90618932288E+03 0.  0.
         23    2    4    4    0    0 -0.63892447446E+02 -0.50990962785E+03  0.13417282327E+02  0.52264030160E+03  0.94248543624E+02 0.  0.
         23    2    4    4    0    0 -0.18803608511E+03 -0.31556940713E+03  0.10618853823E+04  0.11273107680E+04  0.91035062163E+02 0.  0.
          4    1    3    3  502    0  0.35372081939E+02  0.21178626698E+03  0.18628676685E+03  0.28426636552E+03  0.00000000000E+00 0. -1.
         -3    1    3    3    0  502  0.21655645062E+03  0.61369276800E+03  0.46062002505E+03  0.79729938999E+03  0.00000000000E+00 0.  1.
         11    1    5    5    0    0 -0.34579899229E+02 -0.33321426080E+03 -0.35745452012E+02  0.33690540271E+03  0.00000000000E+00 0. -1.
        -11    1    5    5    0    0 -0.29312548217E+02 -0.17669536705E+03  0.49162734339E+02  0.18573489890E+03  0.00000000000E+00 0.  1.
          2    1    6    6  503    0 -0.99055534294E+02 -0.19352038580E+03  0.49474973668E+03  0.54040673621E+03  0.00000000000E+00 0. -1.
         -2    1    6    6    0  503 -0.88980550819E+02 -0.12204902134E+03  0.56713564562E+03  0.58690403182E+03  0.00000000000E+00 0.  1.
<mgrwt>
<rscale>  0 0.21201837E+04</rscale>
<asrwt>0</asrwt>
<pdfrwt beam="1">  1        2 0.34259432E+00 0.21201837E+04</pdfrwt>
<pdfrwt beam="2">  1       -1 0.77639030E-01 0.21201837E+04</pdfrwt>
<totfact> 0.86811188E+00</totfact>
</mgrwt>
</event>
<event>
12    6  0.1510140E-007  0.2128729E+04  0.7818608E-02  0.8548693E-01
         -1   -1    0    0    0  501 -0.00000000000E+00  0.00000000000E+00  0.56746069311E+03  0.56746069311E+03  0.00000000000E+00 0.  1.
          2   -1    0    0  501    0  0.00000000000E+00 -0.00000000000E+00 -0.19963872373E+04  0.19963872373E+04  0.00000000000E+00 0. -1.
         24    2    1    2    0    0  0.38686741108E+03  0.34387986589E+03  0.25802147910E+03  0.58408904796E+03  0.81640531293E+02 0.  0.
        254    2    1    2    0    0 -0.38686741108E+03 -0.34387986589E+03 -0.16869480232E+04  0.19797588824E+04  0.89762566997E+03 0.  0.
         23    2    4    4    0    0 -0.62275103097E+03 -0.40207603379E+03 -0.10207956261E+04  0.12648133271E+04  0.90802305124E+02 0.  0.
         23    2    4    4    0    0  0.23588361989E+03  0.58196167903E+02 -0.66615239717E+03  0.71494555532E+03  0.91434428560E+02 0.  0.
          2    1    3    3  502    0  0.10618467035E+03  0.81983698572E+02  0.29591953122E+02  0.13737610687E+03  0.00000000000E+00 0. -1.
         -1    1    3    3    0  502  0.28068274073E+03  0.26189616732E+03  0.22842952598E+03  0.44671294109E+03  0.00000000000E+00 0.  1.
         11    1    5    5    0    0 -0.20786821343E+03 -0.11015461459E+03 -0.26265873089E+03  0.35260862466E+03  0.00000000000E+00 0.  1.
        -11    1    5    5    0    0 -0.41488281755E+03 -0.29192141920E+03 -0.75813689518E+03  0.91220470242E+03  0.00000000000E+00 0. -1.
          4    1    6    6  503    0  0.14358104950E+03  0.80392919293E+02 -0.43205563954E+03  0.46233171523E+03  0.00000000000E+00 0. -1.
         -4    1    6    6    0  503  0.92302570396E+02 -0.22196751390E+02 -0.23409675763E+03  0.25261384009E+03  0.00000000000E+00 0.  1.
<mgrwt>
<rscale>  0 0.21287285E+04</rscale>
<asrwt>0</asrwt>
<pdfrwt beam="1">  1        2 0.30713650E+00 0.21287285E+04</pdfrwt>
<pdfrwt beam="2">  1       -1 0.87301645E-01 0.21287285E+04</pdfrwt>
<totfact> 0.90729524E+00</totfact>
</mgrwt>
</event>
<event>
12    6  0.1510140E-007  0.1656090E+04  0.7818608E-02  0.8786812E-01
         -1   -1    0    0    0  501 -0.00000000000E+00  0.00000000000E+00  0.52529309715E+03  0.52529309715E+03  0.00000000000E+00 0.  1.
          2   -1    0    0  501    0  0.00000000000E+00 -0.00000000000E+00 -0.13052875346E+04  0.13052875346E+04  0.00000000000E+00 0. -1.
         24    2    1    2    0    0  0.55850751569E+03 -0.16219517829E+03 -0.41612039999E+03  0.71963895760E+03  0.80536457966E+02 0.  0.
        254    2    1    2    0    0 -0.55850751569E+03  0.16219517829E+03 -0.36387403746E+03  0.11109416742E+04  0.87381300478E+03 0.  0.
         23    2    4    4    0    0  0.21593452746E+03 -0.53913476677E+02 -0.67559137127E+02  0.24915773388E+03  0.89336197761E+02 0.  0.
         23    2    4    4    0    0 -0.77444204314E+03  0.21610865497E+03 -0.29631490034E+03  0.86178394028E+03  0.91682117256E+02 0.  0.
          4    1    3    3  502    0  0.15514141979E+03 -0.57249985864E+02 -0.77499007144E+02  0.18262671525E+03  0.00000000000E+00 0. -1.
         -3    1    3    3    0  502  0.40336609590E+03 -0.10494519243E+03 -0.33862139285E+03  0.53701224235E+03  0.00000000000E+00 0.  1.
         11    1    5    5    0    0  0.21499530048E+03 -0.61916820560E+02 -0.77121751434E+02  0.23665256483E+03  0.00000000000E+00 0.  1.
        -11    1    5    5    0    0  0.93922697256E+00  0.80033438825E+01  0.95626143074E+01  0.12505169051E+02  0.00000000000E+00 0. -1.
          3    1    6    6  503    0 -0.31261223257E+02 -0.74221508973E+01 -0.20725330292E+02  0.38234692613E+02  0.00000000000E+00 0. -1.
         -3    1    6    6    0  503 -0.74318081989E+03  0.22353080587E+03 -0.27558957004E+03  0.82354924767E+03  0.00000000000E+00 0.  1.
<mgrwt>
<rscale>  0 0.16560900E+04</rscale>
<asrwt>0</asrwt>
<pdfrwt beam="1">  1        2 0.20081346E+00 0.16560900E+04</pdfrwt>
<pdfrwt beam="2">  1       -1 0.80814324E-01 0.16560900E+04</pdfrwt>
<totfact> 0.27274988E+01</totfact>
</mgrwt>
</event>
<event>
12    6  0.1510140E-007  0.1895732E+04  0.7818608E-02  0.8656984E-01
         -1   -1    0    0    0  501 -0.00000000000E+00  0.00000000000E+00  0.55737808362E+03  0.55737808362E+03  0.00000000000E+00 0.  1.
          2   -1    0    0  501    0  0.00000000000E+00 -0.00000000000E+00 -0.16119220663E+04  0.16119220663E+04  0.00000000000E+00 0. -1.
         24    2    1    2    0    0 -0.19195855145E+03  0.36740195390E+03 -0.11012801496E+04  0.11794441852E+04  0.80239248236E+02 0.  0.
        254    2    1    2    0    0  0.19195855145E+03 -0.36740195390E+03  0.46736166885E+02  0.98985596473E+03  0.89766267630E+03 0.  0.
         23    2    4    4    0    0  0.39786871019E+03 -0.84798771774E+02  0.32925158131E+03  0.53126698118E+03  0.91365525531E+02 0.  0.
         23    2    4    4    0    0 -0.20591015873E+03 -0.28260318212E+03 -0.28251541442E+03  0.45858898355E+03  0.90693684642E+02 0.  0.
          4    1    3    3  502    0 -0.16073780821E+03  0.23884549762E+03 -0.69886795701E+03  0.75584405539E+03  0.00000000000E+00 0. -1.
         -3    1    3    3    0  502 -0.31220743243E+02  0.12855645628E+03 -0.40241219255E+03  0.42360012980E+03  0.00000000000E+00 0.  1.
         11    1    5    5    0    0  0.28580079014E+03 -0.19532802572E+02  0.24149831394E+03  0.37467994030E+03  0.00000000000E+00 0. -1.
        -11    1    5    5    0    0  0.11206792005E+03 -0.65265969203E+02  0.87753267366E+02  0.15658704088E+03  0.00000000000E+00 0.  1.
          1    1    6    6  503    0 -0.72362167996E+02 -0.17414886596E+03 -0.16101186569E+03  0.24796961864E+03  0.00000000000E+00 0. -1.
         -1    1    6    6    0  503 -0.13354799074E+03 -0.10845431616E+03 -0.12150354873E+03  0.21061936492E+03  0.00000000000E+00 0.  1.
<mgrwt>
<rscale>  0 0.18957321E+04</rscale>
<asrwt>0</asrwt>
<pdfrwt beam="1">  1        2 0.24798801E+00 0.18957321E+04</pdfrwt>
<pdfrwt beam="2">  1       -1 0.85750475E-01 0.18957321E+04</pdfrwt>
<totfact> 0.15742637E+01</totfact>
</mgrwt>
</event>
<event>
12    6  0.1510140E-007  0.1592663E+04  0.7818608E-02  0.8825068E-01
         -1   -1    0    0    0  501 -0.00000000000E+00  0.00000000000E+00  0.62501658854E+03  0.62501658854E+03  0.00000000000E+00 0.  1.
          2   -1    0    0  501    0  0.00000000000E+00 -0.00000000000E+00 -0.10146032579E+04  0.10146032579E+04  0.00000000000E+00 0. -1.
         24    2    1    2    0    0  0.37889081831E+02 -0.53642257932E+03 -0.31330245057E+01  0.54351279835E+03  0.78813577537E+02 0.  0.
        254    2    1    2    0    0 -0.37889081831E+02  0.53642257932E+03 -0.38645364488E+03  0.10961070481E+04  0.87345261760E+03 0.  0.
         23    2    4    4    0    0  0.28820006132E+03  0.13004796382E+03  0.13415214236E+03  0.35380050088E+03  0.84889627675E+02 0.  0.
         23    2    4    4    0    0 -0.32608914315E+03  0.40637461550E+03 -0.52060578724E+03  0.74230654725E+03  0.92272243782E+02 0.  0.
          4    1    3    3  502    0  0.40054441328E+02 -0.47041967421E+03  0.22540033059E+02  0.47265958283E+03  0.00000000000E+00 0. -1.
         -1    1    3    3    0  502 -0.21653594974E+01 -0.66002905110E+02 -0.25673057564E+02  0.70853215519E+02  0.00000000000E+00 0.  1.
         11    1    5    5    0    0  0.91897109946E+02  0.23576356552E+02  0.32167870657E+01  0.94927715256E+02  0.00000000000E+00 0.  1.
        -11    1    5    5    0    0  0.19630295137E+03  0.10647160727E+03  0.13093535529E+03  0.25887278562E+03  0.00000000000E+00 0. -1.
          2    1    6    6  503    0 -0.14934990123E+03  0.11559542463E+03 -0.18476167168E+03  0.26420554596E+03  0.00000000000E+00 0.  1.
         -2    1    6    6    0  503 -0.17673924192E+03  0.29077919087E+03 -0.33584411557E+03  0.47810100129E+03  0.00000000000E+00 0. -1.
<mgrwt>
<rscale>  0 0.15926630E+04</rscale>
<asrwt>0</asrwt>
<pdfrwt beam="1">  1        2 0.15609281E+00 0.15926630E+04</pdfrwt>
<pdfrwt beam="2">  1       -1 0.96156399E-01 0.15926630E+04</pdfrwt>
<totfact> 0.28122063E+01</totfact>
</mgrwt>
</event>
<event>
12    6  0.1510140E-007  0.1698664E+04  0.7818608E-02  0.8762127E-01
          2   -1    0    0  501    0  0.00000000000E+00  0.00000000000E+00  0.11072637665E+04  0.11072637665E+04  0.00000000000E+00 0. -1.
         -3   -1    0    0    0  501 -0.00000000000E+00 -0.00000000000E+00 -0.65148404008E+03  0.65148404008E+03  0.00000000000E+00 0.  1.
         24    2    1    2    0    0  0.15706151887E+03 -0.29865038782E+03 -0.36443357152E+03  0.50276307870E+03  0.78092959976E+02 0.  0.
        254    2    1    2    0    0 -0.15706151887E+03  0.29865038782E+03  0.82021329798E+03  0.12559847279E+04  0.88931850747E+03 0.  0.
         23    2    4    4    0    0  0.25744549539E+03  0.15248614409E+03 -0.86932385615E+01  0.31304277133E+03  0.91596927079E+02 0.  0.
         23    2    4    4    0    0 -0.41450701426E+03  0.14616424373E+03  0.82890653654E+03  0.94294195659E+03  0.94198918018E+02 0.  0.
          2    1    3    3  502    0  0.55851614118E+02 -0.40282482864E+02 -0.73420136076E+02  0.10066080472E+03  0.00000000000E+00 0. -1.
         -1    1    3    3    0  502  0.10120990475E+03 -0.25836790496E+03 -0.29101343544E+03  0.40210227398E+03  0.00000000000E+00 0.  1.
         11    1    5    5    0    0  0.21790597553E+03  0.16092097805E+03 -0.18251772197E+02  0.27149899178E+03  0.00000000000E+00 0. -1.
        -11    1    5    5    0    0  0.39539519860E+02 -0.84348339540E+01  0.95585336359E+01  0.41543779556E+02  0.00000000000E+00 0.  1.
          4    1    6    6  503    0 -0.37044020482E+03  0.15970724589E+03  0.74310860453E+03  0.84554287169E+03  0.00000000000E+00 0. -1.
         -4    1    6    6    0  503 -0.44066809438E+02 -0.13543002159E+02  0.85797932010E+02  0.97399084897E+02  0.00000000000E+00 0.  1.
<mgrwt>
<rscale>  0 0.16986638E+04</rscale>
<asrwt>0</asrwt>
<pdfrwt beam="1">  1        2 0.17034827E+00 0.16986638E+04</pdfrwt>
<pdfrwt beam="2">  1       -3 0.10022831E+00 0.16986638E+04</pdfrwt>
<totfact> 0.11317415E+01</totfact>
</mgrwt>
</event>
<event>
12    6  0.1510140E-007  0.1916601E+04  0.7818608E-02  0.8646637E-01
         -1   -1    0    0    0  501 -0.00000000000E+00  0.00000000000E+00  0.64206554350E+03  0.64206554350E+03  0.00000000000E+00 0.  1.
          2   -1    0    0  501    0  0.00000000000E+00 -0.00000000000E+00 -0.14302901025E+04  0.14302901025E+04  0.00000000000E+00 0. -1.
         24    2    1    2    0    0  0.65022440694E+03  0.19957526654E+03 -0.64987912974E+03  0.94417864545E+03  0.80674437452E+02 0.  0.
        254    2    1    2    0    0 -0.65022440694E+03 -0.19957526654E+03 -0.13834542924E+03  0.11281770005E+04  0.88939407485E+03 0.  0.
         23    2    4    4    0    0 -0.72871019686E+03 -0.40373134620E+03  0.28385207539E+02  0.83848646590E+03  0.90753967276E+02 0.  0.
         23    2    4    4    0    0  0.78485789923E+02  0.20415607965E+03 -0.16673063678E+03  0.28969053465E+03  0.91004266617E+02 0.  0.
          4    1    3    3  502    0  0.61548921826E+03  0.17274670660E+03 -0.58990139163E+03  0.86985749079E+03  0.00000000000E+00 0. -1.
         -1    1    3    3    0  502  0.34735188674E+02  0.26828559943E+02 -0.59977738111E+02  0.74321154658E+02  0.00000000000E+00 0.  1.
         11    1    5    5    0    0 -0.60012166657E+03 -0.33493196908E+03 -0.11279460754E+02  0.68735192211E+03  0.00000000000E+00 0. -1.
        -11    1    5    5    0    0 -0.12858853029E+03 -0.68799377118E+02  0.39664668294E+02  0.15113454378E+03  0.00000000000E+00 0.  1.
          2    1    6    6  503    0  0.36172617459E+02  0.41180454251E+02 -0.30979068140E+01  0.54898862400E+02  0.00000000000E+00 0. -1.
         -2    1    6    6    0  503  0.42313172464E+02  0.16297562540E+03 -0.16363272997E+03  0.23479167225E+03  0.00000000000E+00 0.  1.
<mgrwt>
<rscale>  0 0.19166011E+04</rscale>
<asrwt>0</asrwt>
<pdfrwt beam="1">  1        2 0.22004463E+00 0.19166011E+04</pdfrwt>
<pdfrwt beam="2">  1       -1 0.98779316E-01 0.19166011E+04</pdfrwt>
<totfact> 0.14528659E+01</totfact>
</mgrwt>
</event>
<event>
12    6  0.1510140E-007  0.1367082E+04  0.7818608E-02  0.8977997E-01
         -1   -1    0    0    0  501 -0.00000000000E+00  0.00000000000E+00  0.58130916601E+03  0.58130916601E+03  0.00000000000E+00 0.  1.
          2   -1    0    0  501    0  0.00000000000E+00 -0.00000000000E+00 -0.80375196359E+03  0.80375196359E+03  0.00000000000E+00 0. -1.
         24    2    1    2    0    0 -0.29227969316E+03 -0.23825077453E+03  0.75112110466E+01  0.38576056092E+03  0.81018155200E+02 0.  0.
        254    2    1    2    0    0  0.29227969316E+03  0.23825077453E+03 -0.22995400863E+03  0.99930056868E+03  0.89639942541E+03 0.  0.
         23    2    4    4    0    0 -0.30320732657E+03  0.23871654483E+02 -0.16480483081E+03  0.35603598423E+03  0.84240435885E+02 0.  0.
         23    2    4    4    0    0  0.59548701973E+03  0.21437912004E+03 -0.65149177821E+02  0.64326458445E+03  0.94771896967E+02 0.  0.
          4    1    3    3  502    0 -0.11330773573E+02  0.33591936581E+01  0.95656760967E+01  0.15204366839E+02  0.00000000000E+00 0. -1.
         -3    1    3    3    0  502 -0.28094891959E+03 -0.24160996818E+03 -0.20544650501E+01  0.37055619408E+03  0.00000000000E+00 0.  1.
         11    1    5    5    0    0 -0.36600538859E+02  0.26250868756E+02 -0.53083197953E+01  0.45352903041E+02  0.00000000000E+00 0.  1.
        -11    1    5    5    0    0 -0.26660678771E+03 -0.23792142731E+01 -0.15949651101E+03  0.31068308119E+03  0.00000000000E+00 0. -1.
          4    1    6    6  503    0  0.58620388046E+03  0.21750086168E+03 -0.74558691656E+02  0.62968294625E+03  0.00000000000E+00 0. -1.
         -4    1    6    6    0  503  0.92831392730E+01 -0.31217416331E+01  0.94095138342E+01  0.13581638199E+02  0.00000000000E+00 0.  1.
<mgrwt>
<rscale>  0 0.13670821E+04</rscale>
<asrwt>0</asrwt>
<pdfrwt beam="1">  1        2 0.12365415E+00 0.13670821E+04</pdfrwt>
<pdfrwt beam="2">  1       -1 0.89432180E-01 0.13670821E+04</pdfrwt>
<totfact> 0.46725233E+01</totfact>
</mgrwt>
</event>
<event>
12    6  0.1510140E-007  0.1682247E+04  0.7818608E-02  0.8771555E-01
          2   -1    0    0  501    0  0.00000000000E+00  0.00000000000E+00  0.12867140988E+04  0.12867140988E+04  0.00000000000E+00 0. -1.
         -1   -1    0    0    0  501 -0.00000000000E+00 -0.00000000000E+00 -0.54984141260E+03  0.54984141260E+03  0.00000000000E+00 0.  1.
         24    2    1    2    0    0 -0.28901664684E+03  0.43986558148E+03  0.56558768542E+03  0.77882170491E+03  0.98292757697E+02 0.  0.
        254    2    1    2    0    0  0.28901664684E+03 -0.43986558148E+03  0.17128500077E+03  0.10577338065E+04  0.90136002905E+03 0.  0.
         23    2    4    4    0    0  0.10591652806E+03 -0.54887796814E+03  0.42970836341E+03  0.71093850098E+03  0.91098516806E+02 0.  0.
         23    2    4    4    0    0  0.18310011878E+03  0.10901238666E+03 -0.25842336263E+03  0.34679530551E+03  0.89860979421E+02 0.  0.
          4    1    3    3  502    0 -0.18787205363E+03  0.31040080097E+03  0.44946315001E+03  0.57763456355E+03  0.00000000000E+00 0. -1.
         -3    1    3    3    0  502 -0.10114459321E+03  0.12946478051E+03  0.11612453541E+03  0.20118714137E+03  0.00000000000E+00 0.  1.
         11    1    5    5    0    0  0.38664867882E+02 -0.74378260942E+02  0.93199568959E+02  0.12535253234E+03  0.00000000000E+00 0.  1.
        -11    1    5    5    0    0  0.67251660177E+02 -0.47449970720E+03  0.33650879445E+03  0.58558596864E+03  0.00000000000E+00 0. -1.
          1    1    6    6  503    0  0.14587364020E+03  0.12368103633E+03 -0.21463250950E+03  0.28747735874E+03  0.00000000000E+00 0. -1.
         -1    1    6    6    0  503  0.37226478581E+02 -0.14668649667E+02 -0.43790853132E+02  0.59317946767E+02  0.00000000000E+00 0.  1.
<mgrwt>
<rscale>  0 0.16822469E+04</rscale>
<asrwt>0</asrwt>
<pdfrwt beam="1">  1        2 0.19795601E+00 0.16822469E+04</pdfrwt>
<pdfrwt beam="2">  1       -1 0.84590987E-01 0.16822469E+04</pdfrwt>
<totfact> 0.25295302E+01</totfact>
</mgrwt>
</event>
<event>
12    6  0.1510140E-007  0.1437763E+04  0.7818608E-02  0.8926929E-01
          2   -1    0    0  501    0  0.00000000000E+00  0.00000000000E+00  0.13401089251E+04  0.13401089251E+04  0.00000000000E+00 0. -1.
         -1   -1    0    0    0  501 -0.00000000000E+00 -0.00000000000E+00 -0.38563307220E+03  0.38563307220E+03  0.00000000000E+00 0.  1.
         24    2    1    2    0    0  0.37677547355E+03 -0.82228803477E+02  0.62096754184E+02  0.39850857864E+03  0.78941413578E+02 0.  0.
        254    2    1    2    0    0 -0.37677547355E+03  0.82228803477E+02  0.89237909872E+03  0.13272334187E+04  0.90359656827E+03 0.  0.
         23    2    4    4    0    0  0.19702479171E+02  0.42200415524E+03  0.53565698270E+03  0.68823346956E+03  0.90891202926E+02 0.  0.
         23    2    4    4    0    0 -0.39647795273E+03 -0.33977535177E+03  0.35672211601E+03  0.63899994911E+03  0.91805284372E+02 0.  0.
          2    1    3    3  502    0  0.52653170589E+02 -0.16442410170E+02  0.37833491245E+02  0.66888581126E+02  0.00000000000E+00 0. -1.
         -1    1    3    3    0  502  0.32412230297E+03 -0.65786393307E+02  0.24263262938E+02  0.33161999752E+03  0.00000000000E+00 0.  1.
         11    1    5    5    0    0  0.42683641822E+02  0.93220722531E+02  0.12970494478E+03  0.16533411351E+03  0.00000000000E+00 0. -1.
        -11    1    5    5    0    0 -0.22981162651E+02  0.32878343271E+03  0.40595203792E+03  0.52289935605E+03  0.00000000000E+00 0.  1.
          1    1    6    6  503    0 -0.17379163763E+01 -0.12001438821E+01 -0.50623461660E+01  0.54852572750E+01  0.00000000000E+00 0. -1.
         -1    1    6    6    0  503 -0.39474003635E+03 -0.33857520789E+03  0.36178446218E+03  0.63351469183E+03  0.00000000000E+00 0.  1.
<mgrwt>
<rscale>  0 0.14377626E+04</rscale>
<asrwt>0</asrwt>
<pdfrwt beam="1">  1        2 0.20617060E+00 0.14377626E+04</pdfrwt>
<pdfrwt beam="2">  1       -1 0.59328166E-01 0.14377626E+04</pdfrwt>
<totfact> 0.49918920E+01</totfact>
</mgrwt>
</event>
<event>
12    6  0.1510140E-007  0.1266501E+04  0.7818608E-02  0.9056560E-01
          2   -1    0    0  501    0  0.00000000000E+00  0.00000000000E+00  0.19226688924E+04  0.19226688924E+04  0.00000000000E+00 0. -1.
         -1   -1    0    0    0  501 -0.00000000000E+00 -0.00000000000E+00 -0.20856747129E+03  0.20856747129E+03  0.00000000000E+00 0.  1.
         24    2    1    2    0    0  0.24736390509E+03 -0.17349398895E+03  0.46643602798E+03  0.56145012044E+03  0.79841116024E+02 0.  0.
        254    2    1    2    0    0 -0.24736390509E+03  0.17349398895E+03  0.12476653931E+04  0.15697862432E+04  0.90347708908E+03 0.  0.
         23    2    4    4    0    0 -0.36258356149E+03 -0.22567859429E+03  0.29624828467E+03  0.52764464378E+03  0.90819364415E+02 0.  0.
         23    2    4    4    0    0  0.11521965640E+03  0.39917258324E+03  0.95141710841E+03  0.10421415994E+04  0.90831044392E+02 0.  0.
          2    1    3    3  502    0  0.19002889950E+03 -0.12067022393E+03  0.27927373438E+03  0.35870057751E+03  0.00000000000E+00 0. -1.
         -1    1    3    3    0  502  0.57335005590E+02 -0.52823765017E+02  0.18716229360E+03  0.20274954294E+03  0.00000000000E+00 0.  1.
         11    1    5    5    0    0 -0.47915753661E+02 -0.19504373649E+02  0.75312822195E+02  0.91369367007E+02  0.00000000000E+00 0. -1.
        -11    1    5    5    0    0 -0.31466780783E+03 -0.20617422064E+03  0.22093546248E+03  0.43627527677E+03  0.00000000000E+00 0.  1.
          3    1    6    6  503    0 -0.15372965538E+02  0.53691727437E+02  0.13250355927E+03  0.14379263849E+03  0.00000000000E+00 0. -1.
         -3    1    6    6    0  503  0.13059262194E+03  0.34548085580E+03  0.81891354915E+03  0.89834896093E+03  0.00000000000E+00 0.  1.
<mgrwt>
<rscale>  0 0.12665010E+04</rscale>
<asrwt>0</asrwt>
<pdfrwt beam="1">  1        2 0.29579520E+00 0.12665010E+04</pdfrwt>
<pdfrwt beam="2">  1       -1 0.32087305E-01 0.12665010E+04</pdfrwt>
<totfact> 0.74848253E+01</totfact>
</mgrwt>
</event>
<event>
12    6  0.1510140E-007  0.2621195E+04  0.7818608E-02  0.8361037E-01
          2   -1    0    0  501    0  0.00000000000E+00  0.00000000000E+00  0.26932564376E+04  0.26932564376E+04  0.00000000000E+00 0. -1.
         -1   -1    0    0    0  501 -0.00000000000E+00 -0.00000000000E+00 -0.63776519836E+03  0.63776519836E+03  0.00000000000E+00 0.  1.
         24    2    1    2    0    0  0.98321773279E+03  0.40879830284E+03  0.14895188544E+04  0.18326184500E+04  0.77400278394E+02 0.  0.
        254    2    1    2    0    0 -0.98321773279E+03 -0.40879830284E+03  0.56597238488E+03  0.14984031860E+04  0.88941228065E+03 0.  0.
         23    2    4    4    0    0  0.21077283742E+02 -0.35660937758E+03  0.23002850992E+03  0.43398767810E+03  0.88417697872E+02 0.  0.
         23    2    4    4    0    0 -0.10042950165E+04 -0.52188925256E+02  0.33594387496E+03  0.10644155079E+04  0.93754585186E+02 0.  0.
          2    1    3    3  502    0  0.79302514169E+03  0.30537481162E+03  0.12229530323E+04  0.14892134736E+04  0.00000000000E+00 0. -1.
         -1    1    3    3    0  502  0.19019259110E+03  0.10342349122E+03  0.26656582213E+03  0.34340497634E+03  0.00000000000E+00 0.  1.
         11    1    5    5    0    0  0.55659637642E+02 -0.22273772128E+03  0.14970307512E+03  0.27408228407E+03  0.00000000000E+00 0. -1.
        -11    1    5    5    0    0 -0.34582353901E+02 -0.13387165630E+03  0.80325434808E+02  0.15990539403E+03  0.00000000000E+00 0.  1.
          4    1    6    6  503    0 -0.91970992532E+03 -0.21318653227E+02  0.30453190256E+03  0.96905134610E+03  0.00000000000E+00 0. -1.
         -4    1    6    6    0  503 -0.84585091217E+02 -0.30870272029E+02  0.31411972398E+02  0.95364161828E+02  0.00000000000E+00 0.  1.
<mgrwt>
<rscale>  0 0.26211946E+04</rscale>
<asrwt>0</asrwt>
<pdfrwt beam="1">  1        2 0.41434714E+00 0.26211946E+04</pdfrwt>
<pdfrwt beam="2">  1       -1 0.98117725E-01 0.26211946E+04</pdfrwt>
<totfact> 0.26778051E+00</totfact>
</mgrwt>
</event>
<event>
12    6  0.1510140E-007  0.2089137E+04  0.7818608E-02  0.8566044E-01
         -1   -1    0    0    0  501 -0.00000000000E+00  0.00000000000E+00  0.64931940129E+03  0.64931940129E+03  0.00000000000E+00 0.  1.
          2   -1    0    0  501    0  0.00000000000E+00 -0.00000000000E+00 -0.16804103756E+04  0.16804103756E+04  0.00000000000E+00 0. -1.
         24    2    1    2    0    0  0.60490533132E+03 -0.59896675391E+03 -0.43099598244E+03  0.95743983323E+03  0.79131948193E+02 0.  0.
        254    2    1    2    0    0 -0.60490533132E+03  0.59896675391E+03 -0.60009499191E+03  0.13722899437E+04  0.89352899121E+03 0.  0.
         23    2    4    4    0    0  0.19815085570E+03 -0.88848165184E+01 -0.15369916948E+03  0.26699123109E+03  0.91204063513E+02 0.  0.
         23    2    4    4    0    0 -0.80305618702E+03  0.60785157043E+03 -0.44639582243E+03  0.11052987126E+04  0.89628358479E+02 0.  0.
          2    1    3    3  502    0  0.61410111042E+02 -0.44232592386E+02 -0.17771977459E+02  0.77740383008E+02  0.00000000000E+00 0. -1.
         -3    1    3    3    0  502  0.54349522028E+03 -0.55473416152E+03 -0.41322400498E+03  0.87969945022E+03  0.00000000000E+00 0.  1.
         11    1    5    5    0    0  0.13538771457E+03 -0.48819190755E+02 -0.10192650750E+03  0.17635804369E+03  0.00000000000E+00 0.  1.
        -11    1    5    5    0    0  0.62763141124E+02  0.39934374236E+02 -0.51772661985E+02  0.90633187401E+02  0.00000000000E+00 0. -1.
          4    1    6    6  503    0 -0.97574707048E+02  0.11187141349E+03 -0.55813137870E+02  0.15859111883E+03  0.00000000000E+00 0.  1.
         -4    1    6    6    0  503 -0.70548147997E+03  0.49598015694E+03 -0.39058268456E+03  0.94670759379E+03  0.00000000000E+00 0. -1.
<mgrwt>
<rscale>  0 0.20891367E+04</rscale>
<asrwt>0</asrwt>
<pdfrwt beam="1">  1        2 0.25852467E+00 0.20891367E+04</pdfrwt>
<pdfrwt beam="2">  1       -1 0.99895294E-01 0.20891367E+04</pdfrwt>
<totfact> 0.10092966E+01</totfact>
</mgrwt>
</event>
<event>
12    6  0.1510140E-007  0.2771276E+04  0.7818608E-02  0.8312242E-01
         -1   -1    0    0    0  501 -0.00000000000E+00  0.00000000000E+00  0.82936710917E+03  0.82936710917E+03  0.00000000000E+00 0.  1.
          2   -1    0    0  501    0  0.00000000000E+00 -0.00000000000E+00 -0.23150087417E+04  0.23150087417E+04  0.00000000000E+00 0. -1.
         24    2    1    2    0    0  0.11305890592E+03 -0.76280145806E+03  0.44007777233E+03  0.89121937992E+03  0.77169662653E+02 0.  0.
        254    2    1    2    0    0 -0.11305890592E+03  0.76280145806E+03 -0.19257194048E+04  0.22531564709E+04  0.87958539986E+03 0.  0.
         23    2    4    4    0    0 -0.16205962366E+03  0.53577497239E+03 -0.36916427872E+03  0.67668292828E+03  0.91100922524E+02 0.  0.
         23    2    4    4    0    0  0.49000717746E+02  0.22702648567E+03 -0.15565551261E+04  0.15764735426E+04  0.91993882706E+02 0.  0.
          4    1    3    3  502    0  0.22804342463E+02 -0.54873063729E+02  0.18004368932E+02  0.62090647112E+02  0.00000000000E+00 0. -1.
         -3    1    3    3    0  502  0.90254563454E+02 -0.70792839433E+03  0.42207340339E+03  0.82912873281E+03  0.00000000000E+00 0.  1.
         11    1    5    5    0    0 -0.85476030967E+01  0.40024327050E+02 -0.20306277282E+01  0.40977209806E+02  0.00000000000E+00 0.  1.
        -11    1    5    5    0    0 -0.15351202057E+03  0.49575064534E+03 -0.36713365099E+03  0.63570571848E+03  0.00000000000E+00 0. -1.
          1    1    6    6  503    0  0.66245356924E+01  0.18352817317E+03 -0.12952571373E+04  0.13082115756E+04  0.00000000000E+00 0. -1.
         -1    1    6    6    0  503  0.42376182054E+02  0.43498312494E+02 -0.26129798883E+03  0.26826196704E+03  0.00000000000E+00 0.  1.
<mgrwt>
<rscale>  0 0.27712756E+04</rscale>
<asrwt>0</asrwt>
<pdfrwt beam="1">  1        2 0.35615519E+00 0.27712756E+04</pdfrwt>
<pdfrwt beam="2">  1       -1 0.12759494E+00 0.27712756E+04</pdfrwt>
<totfact> 0.23433627E+00</totfact>
</mgrwt>
</event>
<event>
12    6  0.1510140E-007  0.1603471E+04  0.7818608E-02  0.8818418E-01
         -1   -1    0    0    0  501 -0.00000000000E+00  0.00000000000E+00  0.70618316387E+03  0.70618316387E+03  0.00000000000E+00 0.  1.
          2   -1    0    0  501    0  0.00000000000E+00 -0.00000000000E+00 -0.91021709743E+03  0.91021709743E+03  0.00000000000E+00 0. -1.
         24    2    1    2    0    0 -0.12090681004E+03  0.39807553623E+03 -0.42591511940E+03  0.60059815088E+03  0.78942134866E+02 0.  0.
        254    2    1    2    0    0  0.12090681004E+03 -0.39807553623E+03  0.22188118583E+03  0.10158021104E+04  0.89974445130E+03 0.  0.
         23    2    4    4    0    0 -0.36334344664E+03 -0.16628830526E+03  0.22827909384E+03  0.47134517795E+03  0.10190520795E+03 0.  0.
         23    2    4    4    0    0  0.48425025667E+03 -0.23178723097E+03 -0.63979080014E+01  0.54445693247E+03  0.90381339657E+02 0.  0.
          2    1    3    3  502    0 -0.16387428465E+02  0.16760523017E+03 -0.14210490910E+03  0.22034941839E+03  0.00000000000E+00 0. -1.
         -1    1    3    3    0  502 -0.10451938157E+03  0.23047030606E+03 -0.28381021029E+03  0.38024873250E+03  0.00000000000E+00 0.  1.
         11    1    5    5    0    0 -0.28619977662E+03 -0.17159636880E+03  0.19979815203E+03  0.38894077631E+03  0.00000000000E+00 0.  1.
        -11    1    5    5    0    0 -0.77143670017E+02  0.53080635401E+01  0.28480941808E+02  0.82404401633E+02  0.00000000000E+00 0. -1.
          1    1    6    6  503    0  0.38356983423E+03 -0.20325982711E+03  0.26104929931E+02  0.43488141190E+03  0.00000000000E+00 0.  1.
         -1    1    6    6    0  503  0.10068042244E+03 -0.28527403852E+02 -0.32502837933E+02  0.10957552057E+03  0.00000000000E+00 0. -1.
<mgrwt>
<rscale>  0 0.16034712E+04</rscale>
<asrwt>0</asrwt>
<pdfrwt beam="1">  1        2 0.14003340E+00 0.16034712E+04</pdfrwt>
<pdfrwt beam="2">  1       -1 0.10864356E+00 0.16034712E+04</pdfrwt>
<totfact> 0.24820300E+01</totfact>
</mgrwt>
</event>
<event>
12    6  0.1510140E-007  0.1384501E+04  0.7818608E-02  0.8965115E-01
          2   -1    0    0  501    0  0.00000000000E+00  0.00000000000E+00  0.17213085503E+04  0.17213085503E+04  0.00000000000E+00 0. -1.
         -1   -1    0    0    0  501 -0.00000000000E+00 -0.00000000000E+00 -0.27839911164E+03  0.27839911164E+03  0.00000000000E+00 0.  1.
         24    2    1    2    0    0  0.58668062304E+02  0.20768067939E+03  0.88658265424E+03  0.91595202689E+03  0.79787885337E+02 0.  0.
        254    2    1    2    0    0 -0.58668062304E+02 -0.20768067939E+03  0.55632678441E+03  0.10837556350E+04  0.90468424286E+03 0.  0.
         23    2    4    4    0    0 -0.28710110049E+03  0.19080886582E+03  0.13884516702E+01  0.35779473498E+03  0.95812730904E+02 0.  0.
         23    2    4    4    0    0  0.22843303818E+03 -0.39848954521E+03  0.55493833274E+03  0.72596090006E+03  0.89928330821E+02 0.  0.
          2    1    3    3  502    0  0.44759396946E+02  0.11145662167E+03  0.63454690974E+03  0.64581403111E+03  0.00000000000E+00 0. -1.
         -3    1    3    3    0  502  0.13908665359E+02  0.96224057722E+02  0.25203574450E+03  0.27013799578E+03  0.00000000000E+00 0.  1.
         11    1    5    5    0    0 -0.25311074122E+03  0.17035523919E+03 -0.30879339585E+02  0.30665858614E+03  0.00000000000E+00 0.  1.
        -11    1    5    5    0    0 -0.33990359271E+02  0.20453626629E+02  0.32267791256E+02  0.51136148839E+02  0.00000000000E+00 0. -1.
          3    1    6    6  503    0  0.15516304053E+02 -0.24416709403E+01  0.71495439922E+01  0.17257851191E+02  0.00000000000E+00 0. -1.
         -3    1    6    6    0  503  0.21291673413E+03 -0.39604787427E+03  0.54778878875E+03  0.70870304886E+03  0.00000000000E+00 0.  1.
<mgrwt>
<rscale>  0 0.13845010E+04</rscale>
<asrwt>0</asrwt>
<pdfrwt beam="1">  1        2 0.26481669E+00 0.13845010E+04</pdfrwt>
<pdfrwt beam="2">  1       -1 0.42830634E-01 0.13845010E+04</pdfrwt>
<totfact> 0.56878090E+01</totfact>
</mgrwt>
</event>
<event>
12    6  0.1510140E-007  0.1551848E+04  0.7818608E-02  0.8850688E-01
          2   -1    0    0  501    0  0.00000000000E+00  0.00000000000E+00  0.30952875786E+04  0.30952875786E+04  0.00000000000E+00 0. -1.
         -1   -1    0    0    0  501 -0.00000000000E+00 -0.00000000000E+00 -0.19450801247E+03  0.19450801247E+03  0.00000000000E+00 0.  1.
         24    2    1    2    0    0 -0.86978952482E+02 -0.32063845064E+03  0.17821137961E+04  0.18145072966E+04  0.78312151811E+02 0.  0.
        254    2    1    2    0    0  0.86978952482E+02  0.32063845064E+03  0.11186657701E+04  0.14752882945E+04  0.90260073812E+03 0.  0.
         23    2    4    4    0    0 -0.16394302817E+03  0.22471527807E+03  0.11533833503E+04  0.11897939167E+04  0.89118677899E+02 0.  0.
         23    2    4    4    0    0  0.25092198065E+03  0.95923172570E+02 -0.34717580261E+02  0.28549437775E+03  0.90214377660E+02 0.  0.
          4    1    3    3  502    0 -0.25218820375E+02 -0.23133921363E+03  0.12289538910E+04  0.12507923436E+04  0.00000000000E+00 0. -1.
         -3    1    3    3    0  502 -0.61760132107E+02 -0.89299237008E+02  0.55315990512E+03  0.56371495304E+03  0.00000000000E+00 0.  1.
         11    1    5    5    0    0 -0.12981165116E+03  0.11823016823E+03  0.59699681133E+03  0.62228179324E+03  0.00000000000E+00 0. -1.
        -11    1    5    5    0    0 -0.34131377013E+02  0.10648510984E+03  0.55638653900E+03  0.56751212348E+03  0.00000000000E+00 0.  1.
          1    1    6    6  503    0  0.19970493112E+03  0.65300877619E+02  0.10883759644E+02  0.21039182578E+03  0.00000000000E+00 0. -1.
         -1    1    6    6    0  503  0.51217049532E+02  0.30622294951E+02 -0.45601339905E+02  0.75102551967E+02  0.00000000000E+00 0.  1.
<mgrwt>
<rscale>  0 0.15518482E+04</rscale>
<asrwt>0</asrwt>
<pdfrwt beam="1">  1        2 0.47619805E+00 0.15518482E+04</pdfrwt>
<pdfrwt beam="2">  1       -1 0.29924312E-01 0.15518482E+04</pdfrwt>
<totfact> 0.17151035E+01</totfact>
</mgrwt>
</event>
<event>
12    6  0.1510140E-007  0.2192981E+04  0.7818608E-02  0.8521355E-01
          2   -1    0    0  501    0  0.00000000000E+00  0.00000000000E+00  0.12756625042E+04  0.12756625042E+04  0.00000000000E+00 0. -1.
         -1   -1    0    0    0  501 -0.00000000000E+00 -0.00000000000E+00 -0.94248432415E+03  0.94248432415E+03  0.00000000000E+00 0.  1.
         24    2    1    2    0    0 -0.18010083305E+03  0.58653780679E+03 -0.53251868376E+03  0.81641914844E+03  0.80629824082E+02 0.  0.
        254    2    1    2    0    0  0.18010083305E+03 -0.58653780679E+03  0.86569686379E+03  0.14017276799E+04  0.91594023810E+03 0.  0.
         23    2    4    4    0    0  0.44001990954E+03 -0.62494779885E+03  0.41908044176E+03  0.87646395533E+03  0.91560779020E+02 0.  0.
         23    2    4    4    0    0 -0.25991907649E+03  0.38409992067E+02  0.44661642203E+03  0.52526372457E+03  0.86037771414E+02 0.  0.
          4    1    3    3  502    0 -0.37260140002E+02  0.11345787369E+03 -0.64172942161E+02  0.13556981095E+03  0.00000000000E+00 0. -1.
         -3    1    3    3    0  502 -0.14284069305E+03  0.47307993310E+03 -0.46834574160E+03  0.68084933749E+03  0.00000000000E+00 0.  1.
         11    1    5    5    0    0  0.13667134171E+03 -0.18201652515E+03  0.17301465110E+03  0.28590757347E+03  0.00000000000E+00 0. -1.
        -11    1    5    5    0    0  0.30334856783E+03 -0.44293127371E+03  0.24606579066E+03  0.59055638187E+03  0.00000000000E+00 0.  1.
          3    1    6    6  503    0 -0.53408583446E+01 -0.15317210557E+02  0.23669638251E+02  0.28694833717E+02  0.00000000000E+00 0. -1.
         -3    1    6    6    0  503 -0.25457821814E+03  0.53727202624E+02  0.42294678378E+03  0.49656889085E+03  0.00000000000E+00 0.  1.
<mgrwt>
<rscale>  0 0.21929815E+04</rscale>
<asrwt>0</asrwt>
<pdfrwt beam="1">  1        2 0.19625577E+00 0.21929815E+04</pdfrwt>
<pdfrwt beam="2">  1       -1 0.14499759E+00 0.21929815E+04</pdfrwt>
<totfact> 0.68046518E+00</totfact>
</mgrwt>
</event>
<event>
12    6  0.1510140E-007  0.1500318E+04  0.7818608E-02  0.8884241E-01
         -1   -1    0    0    0  501 -0.00000000000E+00  0.00000000000E+00  0.37847770879E+03  0.37847770879E+03  0.00000000000E+00 0.  1.
          2   -1    0    0  501    0  0.00000000000E+00 -0.00000000000E+00 -0.14868479449E+04  0.14868479449E+04  0.00000000000E+00 0. -1.
         24    2    1    2    0    0 -0.74510960643E+01  0.35130292873E+03 -0.68681001679E+03  0.77612278993E+03  0.84789853859E+02 0.  0.
        254    2    1    2    0    0  0.74510960643E+01 -0.35130292873E+03 -0.42156021932E+03  0.10892028638E+04  0.94084036550E+03 0.  0.
         23    2    4    4    0    0  0.47967990605E+01  0.20105318665E+03 -0.47748967890E+03  0.52618144657E+03  0.91788496648E+02 0.  0.
         23    2    4    4    0    0  0.26542970038E+01 -0.55235611538E+03  0.55929459582E+02  0.56302141719E+03  0.93598548503E+02 0.  0.
          2    1    3    3  502    0 -0.58160039256E+01  0.15696853840E+03 -0.21860094269E+03  0.26918268907E+03  0.00000000000E+00 0. -1.
         -1    1    3    3    0  502 -0.16350921387E+01  0.19433439033E+03 -0.46820907410E+03  0.50694010086E+03  0.00000000000E+00 0.  1.
         11    1    5    5    0    0  0.22725914813E+02  0.94012482542E+02 -0.12932188842E+03  0.16148982910E+03  0.00000000000E+00 0.  1.
        -11    1    5    5    0    0 -0.17929115752E+02  0.10704070410E+03 -0.34816779048E+03  0.36469161747E+03  0.00000000000E+00 0. -1.
          4    1    6    6  503    0  0.42618462272E+02 -0.25355769548E+03  0.47363919891E+02  0.26144058440E+03  0.00000000000E+00 0. -1.
         -4    1    6    6    0  503 -0.39964165268E+02 -0.29879841989E+03  0.85655396915E+01  0.30158083279E+03  0.00000000000E+00 0.  1.
<mgrwt>
<rscale>  0 0.15003184E+04</rscale>
<asrwt>0</asrwt>
<pdfrwt beam="1">  1        2 0.22874584E+00 0.15003184E+04</pdfrwt>
<pdfrwt beam="2">  1       -1 0.58227340E-01 0.15003184E+04</pdfrwt>
<totfact> 0.42484811E+01</totfact>
</mgrwt>
</event>
<event>
12    6  0.1510140E-007  0.1259612E+04  0.7818608E-02  0.9062221E-01
          2   -1    0    0  501    0  0.00000000000E+00  0.00000000000E+00  0.15311487850E+04  0.15311487850E+04  0.00000000000E+00 0. -1.
         -1   -1    0    0    0  501 -0.00000000000E+00 -0.00000000000E+00 -0.25905748970E+03  0.25905748970E+03  0.00000000000E+00 0.  1.
         24    2    1    2    0    0 -0.27728055927E+03 -0.21442248215E+02  0.49501492480E+03  0.57317968688E+03  0.78427668083E+02 0.  0.
        254    2    1    2    0    0  0.27728055927E+03  0.21442248215E+02  0.77707637048E+03  0.12170265878E+04  0.89440580905E+03 0.  0.
         23    2    4    4    0    0 -0.26647710593E+03 -0.13737339942E+03  0.47212042705E+03  0.56727505754E+03  0.94983127004E+02 0.  0.
         23    2    4    4    0    0  0.54375766520E+03  0.15881564763E+03  0.30495594342E+03  0.64975153025E+03  0.91017115057E+02 0.  0.
          4    1    3    3  502    0 -0.26558274627E+03 -0.37792049960E+02  0.45022391616E+03  0.52408397117E+03  0.00000000000E+00 0. -1.
         -3    1    3    3    0  502 -0.11697813004E+02  0.16349801746E+02  0.44791008647E+02  0.49095715718E+02  0.00000000000E+00 0.  1.
         11    1    5    5    0    0 -0.27159617046E+03 -0.12451737580E+03  0.43559186619E+03  0.52821333813E+03  0.00000000000E+00 0. -1.
        -11    1    5    5    0    0  0.51190645304E+01 -0.12856023616E+02  0.36528560858E+02  0.39061719409E+02  0.00000000000E+00 0.  1.
          3    1    6    6  503    0  0.27727058833E+03  0.12328235400E+03  0.13858689660E+03  0.33359233485E+03  0.00000000000E+00 0. -1.
         -3    1    6    6    0  503  0.26648707686E+03  0.35533293637E+02  0.16636904682E+03  0.31615919539E+03  0.00000000000E+00 0.  1.
<mgrwt>
<rscale>  0 0.12596119E+04</rscale>
<asrwt>0</asrwt>
<pdfrwt beam="1">  1        2 0.23556135E+00 0.12596119E+04</pdfrwt>
<pdfrwt beam="2">  1       -1 0.39854999E-01 0.12596119E+04</pdfrwt>
<totfact> 0.83677835E+01</totfact>
</mgrwt>
</event>
<event>
12    6  0.1510140E-007  0.1712614E+04  0.7818608E-02  0.8754203E-01
          2   -1    0    0  501    0  0.00000000000E+00  0.00000000000E+00  0.43075174948E+03  0.43075174948E+03  0.00000000000E+00 0. -1.
         -1   -1    0    0    0  501 -0.00000000000E+00 -0.00000000000E+00 -0.17022831541E+04  0.17022831541E+04  0.00000000000E+00 0.  1.
         24    2    1    2    0    0 -0.67427148200E+02  0.22102401464E+03 -0.11737185975E+04  0.11989651247E+04  0.80647311323E+02 0.  0.
        254    2    1    2    0    0  0.67427148200E+02 -0.22102401464E+03 -0.97812807140E+02  0.93406977887E+03  0.89973383352E+03 0.  0.
         23    2    4    4    0    0 -0.34968507369E+01 -0.49871416795E+03  0.16624631678E+03  0.53350314282E+03  0.90882981186E+02 0.  0.
         23    2    4    4    0    0  0.70923998937E+02  0.27769015331E+03 -0.26405912392E+03  0.40056663605E+03  0.92651897556E+02 0.  0.
          2    1    3    3  502    0 -0.18779962975E+02  0.15476779562E+02 -0.26061954880E+03  0.26175325582E+03  0.00000000000E+00 0. -1.
         -1    1    3    3    0  502 -0.48647185225E+02  0.20554723508E+03 -0.91309904865E+03  0.93721186886E+03  0.00000000000E+00 0.  1.
         11    1    5    5    0    0 -0.38517597977E+02 -0.16693657030E+03  0.34211018035E+02  0.17470494444E+03  0.00000000000E+00 0. -1.
        -11    1    5    5    0    0  0.35020747240E+02 -0.33177759765E+03  0.13203529875E+03  0.35879819837E+03  0.00000000000E+00 0.  1.
          3    1    6    6  503    0  0.31238919792E+02  0.14852112638E+03 -0.78072949100E+02  0.17067448688E+03  0.00000000000E+00 0. -1.
         -3    1    6    6    0  503  0.39685079144E+02  0.12916902693E+03 -0.18598617482E+03  0.22989214917E+03  0.00000000000E+00 0.  1.
<mgrwt>
<rscale>  0 0.17126137E+04</rscale>
<asrwt>0</asrwt>
<pdfrwt beam="1">  1        2 0.66269500E-01 0.17126137E+04</pdfrwt>
<pdfrwt beam="2">  1       -1 0.26188972E+00 0.17126137E+04</pdfrwt>
<totfact> 0.46370255E+00</totfact>
</mgrwt>
</event>
<event>
12    6  0.1510140E-007  0.1876329E+04  0.7818608E-02  0.8666730E-01
          2   -1    0    0  501    0  0.00000000000E+00  0.00000000000E+00  0.77944234705E+03  0.77944234705E+03  0.00000000000E+00 0. -1.
         -1   -1    0    0    0  501 -0.00000000000E+00 -0.00000000000E+00 -0.11292078452E+04  0.11292078452E+04  0.00000000000E+00 0.  1.
         24    2    1    2    0    0 -0.49737759140E+03  0.37850001223E+03 -0.50091302331E+03  0.80494922325E+03  0.79891597844E+02 0.  0.
        254    2    1    2    0    0  0.49737759140E+03 -0.37850001223E+03  0.15114752516E+03  0.11037009690E+04  0.89703039356E+03 0.  0.
         23    2    4    4    0    0 -0.13637745892E+03  0.94323553349E+02 -0.16107564053E+03  0.24856258891E+03  0.91335943735E+02 0.  0.
         23    2    4    4    0    0  0.63375505032E+03 -0.47282356557E+03  0.31222316568E+03  0.85513838010E+03  0.92578377430E+02 0.  0.
          4    1    3    3  502    0 -0.79124250189E+02  0.63376114030E+02 -0.46207972199E+02  0.11141075124E+03  0.00000000000E+00 0. -1.
         -3    1    3    3    0  502 -0.41825334121E+03  0.31512389820E+03 -0.45470505111E+03  0.69353847201E+03  0.00000000000E+00 0.  1.
         11    1    5    5    0    0 -0.10428488799E+03  0.11108724331E+03 -0.13840377440E+03  0.20584294561E+03  0.00000000000E+00 0.  1.
        -11    1    5    5    0    0 -0.32092570934E+02 -0.16763689963E+02 -0.22671866127E+02  0.42719643304E+02  0.00000000000E+00 0. -1.
          3    1    6    6  503    0  0.15996601950E+02 -0.36254581473E+02  0.17001324181E+02  0.43119960293E+02  0.00000000000E+00 0. -1.
         -3    1    6    6    0  503  0.61775844837E+03 -0.43656898410E+03  0.29522184150E+03  0.81201841981E+03  0.00000000000E+00 0.  1.
<mgrwt>
<rscale>  0 0.18763288E+04</rscale>
<asrwt>0</asrwt>
<pdfrwt beam="1">  1        2 0.11991421E+00 0.18763288E+04</pdfrwt>
<pdfrwt beam="2">  1       -1 0.17372429E+00 0.18763288E+04</pdfrwt>
<totfact> 0.88249605E+00</totfact>
</mgrwt>
</event>
<event>
12    6  0.1510140E-007  0.2012227E+04  0.7818608E-02  0.8600925E-01
         -1   -1    0    0    0  501 -0.00000000000E+00  0.00000000000E+00  0.46958602839E+03  0.46958602839E+03  0.00000000000E+00 0.  1.
          2   -1    0    0  501    0  0.00000000000E+00 -0.00000000000E+00 -0.21556535126E+04  0.21556535126E+04  0.00000000000E+00 0. -1.
         24    2    1    2    0    0 -0.37162516848E+03 -0.68834727803E+03 -0.35215050168E+03  0.86113344592E+03  0.74923926983E+02 0.  0.
        254    2    1    2    0    0  0.37162516848E+03  0.68834727803E+03 -0.13339169826E+04  0.17641060951E+04  0.84900445076E+03 0.  0.
         23    2    4    4    0    0  0.29571012906E+03  0.68946030233E+02 -0.35103059773E+02  0.32025427055E+03  0.95564310731E+02 0.  0.
         23    2    4    4    0    0  0.75915039410E+02  0.61940124780E+03 -0.12988139228E+04  0.14438518246E+04  0.91484896299E+02 0.  0.
          4    1    3    3  502    0 -0.40190476209E+02 -0.58706999024E+02 -0.55471209819E+02  0.90215526552E+02  0.00000000000E+00 0. -1.
         -3    1    3    3    0  502 -0.33143469227E+03 -0.62964027901E+03 -0.29667929186E+03  0.77091791937E+03  0.00000000000E+00 0.  1.
         11    1    5    5    0    0  0.22859167391E+03  0.15679473342E+02 -0.46540325174E+02  0.23380761564E+03  0.00000000000E+00 0. -1.
        -11    1    5    5    0    0  0.67118455158E+02  0.53266556891E+02  0.11437265402E+02  0.86446654914E+02  0.00000000000E+00 0.  1.
          1    1    6    6  503    0  0.23612625361E+02  0.49033698497E+03 -0.10360069550E+04  0.11464285087E+04  0.00000000000E+00 0. -1.
         -1    1    6    6    0  503  0.52302414049E+02  0.12906426283E+03 -0.26280696783E+03  0.29742331582E+03  0.00000000000E+00 0.  1.
<mgrwt>
<rscale>  0 0.20122274E+04</rscale>
<asrwt>0</asrwt>
<pdfrwt beam="1">  1        2 0.33163900E+00 0.20122274E+04</pdfrwt>
<pdfrwt beam="2">  1       -1 0.72244005E-01 0.20122274E+04</pdfrwt>
<totfact> 0.11170225E+01</totfact>
</mgrwt>
</event>
<event>
12    6  0.1510140E-007  0.2750049E+04  0.7818608E-02  0.8318946E-01
         -1   -1    0    0    0  501 -0.00000000000E+00  0.00000000000E+00  0.68911162960E+03  0.68911162960E+03  0.00000000000E+00 0.  1.
          2   -1    0    0  501    0  0.00000000000E+00 -0.00000000000E+00 -0.27436671393E+04  0.27436671393E+04  0.00000000000E+00 0. -1.
         24    2    1    2    0    0 -0.11833527728E+03  0.12181228537E+04 -0.10191310778E+04  0.15947723210E+04  0.82728938326E+02 0.  0.
        254    2    1    2    0    0  0.11833527728E+03 -0.12181228537E+04 -0.10354244318E+04  0.18380064479E+04  0.89907587214E+03 0.  0.
         23    2    4    4    0    0  0.47344589466E+03 -0.57646288739E+03 -0.69687131648E+03  0.10249379862E+04  0.91693882279E+02 0.  0.
         23    2    4    4    0    0 -0.35511061738E+03 -0.64165996635E+03 -0.33855311537E+03  0.81306846175E+03  0.92903436847E+02 0.  0.
          4    1    3    3  502    0 -0.75355541748E+02  0.96996711370E+03 -0.84461344608E+03  0.12883658380E+04  0.00000000000E+00 0. -1.
         -3    1    3    3    0  502 -0.42979735533E+02  0.24815574004E+03 -0.17451763176E+03  0.30640648292E+03  0.00000000000E+00 0.  1.
         11    1    5    5    0    0  0.26682379793E+03 -0.36255289296E+03 -0.36706743461E+03  0.58084252676E+03  0.00000000000E+00 0. -1.
        -11    1    5    5    0    0  0.20662209673E+03 -0.21390999443E+03 -0.32980388187E+03  0.44409545941E+03  0.00000000000E+00 0.  1.
          4    1    6    6  503    0 -0.19856891365E+02 -0.73310889101E+01 -0.45020967733E+01  0.21640468448E+02  0.00000000000E+00 0. -1.
         -4    1    6    6    0  503 -0.33525372601E+03 -0.63432887744E+03 -0.33405101859E+03  0.79142799330E+03  0.00000000000E+00 0.  1.
<mgrwt>
<rscale>  0 0.27500494E+04</rscale>
<asrwt>0</asrwt>
<pdfrwt beam="1">  1        2 0.42210264E+00 0.27500494E+04</pdfrwt>
<pdfrwt beam="2">  1       -1 0.10601717E+00 0.27500494E+04</pdfrwt>
<totfact> 0.20665623E+00</totfact>
</mgrwt>
</event>
<event>
12    6  0.1510140E-007  0.1951235E+04  0.7818608E-02  0.8629766E-01
          2   -1    0    0  501    0  0.00000000000E+00  0.00000000000E+00  0.30457463019E+04  0.30457463019E+04  0.00000000000E+00 0. -1.
         -3   -1    0    0    0  501 -0.00000000000E+00 -0.00000000000E+00 -0.31251103455E+03  0.31251103455E+03  0.00000000000E+00 0.  1.
         24    2    1    2    0    0  0.41480335483E+03 -0.48361779335E+03  0.35974884982E+03  0.73639144762E+03  0.83097147685E+02 0.  0.
        254    2    1    2    0    0 -0.41480335483E+03  0.48361779335E+03  0.23734864176E+04  0.26218658889E+04  0.91367115068E+03 0.  0.
         23    2    4    4    0    0 -0.51432923064E+03  0.22309056099E+03  0.22190125493E+04  0.22904516643E+04  0.88589935048E+02 0.  0.
         23    2    4    4    0    0  0.99525875808E+02  0.26052723236E+03  0.15447386822E+03  0.33141422453E+03  0.90517255258E+02 0.  0.
          4    1    3    3  502    0  0.10567717153E+03 -0.89910398641E+02  0.10952929272E+03  0.17677163327E+03  0.00000000000E+00 0. -1.
         -3    1    3    3    0  502  0.30912618331E+03 -0.39370739471E+03  0.25021955710E+03  0.55961981435E+03  0.00000000000E+00 0.  1.
         11    1    5    5    0    0 -0.37985747658E+03  0.17277487561E+03  0.17919978681E+04  0.18399454392E+04  0.00000000000E+00 0. -1.
        -11    1    5    5    0    0 -0.13447175406E+03  0.50315685376E+02  0.42701468128E+03  0.45050622511E+03  0.00000000000E+00 0.  1.
          2    1    6    6  503    0  0.85759287930E+02  0.24465438436E+03  0.10882919560E+03  0.28116581774E+03  0.00000000000E+00 0. -1.
         -2    1    6    6    0  503  0.13766587878E+02  0.15872848002E+02  0.45644672624E+02  0.50248406786E+02  0.00000000000E+00 0.  1.
<mgrwt>
<rscale>  0 0.19512348E+04</rscale>
<asrwt>0</asrwt>
<pdfrwt beam="1">  1        2 0.46857634E+00 0.19512348E+04</pdfrwt>
<pdfrwt beam="2">  1       -3 0.48078623E-01 0.19512348E+04</pdfrwt>
<totfact> 0.42304070E+00</totfact>
</mgrwt>
</event>
<event>
12    6  0.1510140E-007  0.1630585E+04  0.7818608E-02  0.8801976E-01
          2   -1    0    0  501    0  0.00000000000E+00  0.00000000000E+00  0.17013174927E+04  0.17013174927E+04  0.00000000000E+00 0. -1.
         -1   -1    0    0    0  501 -0.00000000000E+00 -0.00000000000E+00 -0.39069832052E+03  0.39069832052E+03  0.00000000000E+00 0.  1.
         24    2    1    2    0    0  0.65717989521E+00  0.62131801620E+02 -0.25338323680E+03  0.27481467352E+03  0.86366934832E+02 0.  0.
        254    2    1    2    0    0 -0.65717989521E+00 -0.62131801620E+02  0.15640024090E+04  0.18172011397E+04  0.92317693545E+03 0.  0.
         23    2    4    4    0    0 -0.28424985916E+03  0.86862616483E+02  0.14209746080E+04  0.14545785008E+04  0.91031213105E+02 0.  0.
         23    2    4    4    0    0  0.28359267927E+03 -0.14899441810E+03  0.14302780100E+03  0.36262263894E+03  0.91728305622E+02 0.  0.
          2    1    3    3  502    0 -0.33711750854E+02  0.59328720684E+01 -0.46796854418E+02  0.57979536908E+02  0.00000000000E+00 0. -1.
         -1    1    3    3    0  502  0.34368930749E+02  0.56198929551E+02 -0.20658638239E+03  0.21683513662E+03  0.00000000000E+00 0.  1.
         11    1    5    5    0    0 -0.28975640153E+03  0.91238692097E+02  0.13852634337E+04  0.14181812479E+04  0.00000000000E+00 0.  1.
        -11    1    5    5    0    0  0.55065423666E+01 -0.43760756135E+01  0.35711174255E+02  0.36397252826E+02  0.00000000000E+00 0. -1.
          4    1    6    6  503    0  0.73974927479E+02 -0.66227449624E+01  0.59062213960E+01  0.74505262214E+02  0.00000000000E+00 0. -1.
         -4    1    6    6    0  503  0.20961775179E+03 -0.14237167314E+03  0.13712157961E+03  0.28811737673E+03  0.00000000000E+00 0.  1.
<mgrwt>
<rscale>  0 0.16305850E+04</rscale>
<asrwt>0</asrwt>
<pdfrwt beam="1">  1        2 0.26174115E+00 0.16305850E+04</pdfrwt>
<pdfrwt beam="2">  1       -1 0.60107435E-01 0.16305850E+04</pdfrwt>
<totfact> 0.29945139E+01</totfact>
</mgrwt>
</event>
<event>
12    6  0.1510140E-007  0.2682859E+04  0.7818608E-02  0.8340588E-01
         -1   -1    0    0    0  501 -0.00000000000E+00  0.00000000000E+00  0.83226011172E+03  0.83226011172E+03  0.00000000000E+00 0.  1.
          2   -1    0    0  501    0  0.00000000000E+00 -0.00000000000E+00 -0.21621039642E+04  0.21621039642E+04  0.00000000000E+00 0. -1.
         24    2    1    2    0    0 -0.68703325583E+03 -0.27476744903E+03  0.44913821213E+03  0.86926773458E+03  0.79933817216E+02 0.  0.
        254    2    1    2    0    0  0.68703325583E+03  0.27476744903E+03 -0.17789820646E+04  0.21250963413E+04  0.89651850407E+03 0.  0.
         23    2    4    4    0    0 -0.20842845818E+03  0.53984623545E+02 -0.43820866527E+03  0.49518013521E+03  0.82581900131E+02 0.  0.
         23    2    4    4    0    0  0.89546171400E+03  0.22078282549E+03 -0.13407733993E+04  0.16299162061E+04  0.91415498523E+02 0.  0.
          2    1    3    3  502    0 -0.20726080045E+02 -0.18732755530E+02  0.44853190979E+01  0.28294957346E+02  0.00000000000E+00 0. -1.
         -1    1    3    3    0  502 -0.66630717578E+03 -0.25603469350E+03  0.44465289303E+03  0.84097277724E+03  0.00000000000E+00 0.  1.
         11    1    5    5    0    0  0.48812284388E+01  0.74144244794E+01 -0.53232804361E+01  0.10350719590E+02  0.00000000000E+00 0.  1.
        -11    1    5    5    0    0 -0.21330968662E+03  0.46570199066E+02 -0.43288538483E+03  0.48482941562E+03  0.00000000000E+00 0. -1.
          4    1    6    6  503    0  0.71437051515E+03  0.21323761206E+03 -0.10839178093E+04  0.13155505803E+04  0.00000000000E+00 0. -1.
         -4    1    6    6    0  503  0.18109119885E+03  0.75452134266E+01 -0.25685559005E+03  0.31436562580E+03  0.00000000000E+00 0.  1.
<mgrwt>
<rscale>  0 0.26828588E+04</rscale>
<asrwt>0</asrwt>
<pdfrwt beam="1">  1        2 0.33263137E+00 0.26828588E+04</pdfrwt>
<pdfrwt beam="2">  1       -1 0.12804002E+00 0.26828588E+04</pdfrwt>
<totfact> 0.28554781E+00</totfact>
</mgrwt>
</event>
<event>
12    6  0.1510140E-007  0.2887367E+04  0.7818608E-02  0.8276646E-01
         -1   -1    0    0    0  501 -0.00000000000E+00  0.00000000000E+00  0.81805988764E+03  0.81805988764E+03  0.00000000000E+00 0.  1.
          2   -1    0    0  501    0  0.00000000000E+00 -0.00000000000E+00 -0.25477619029E+04  0.25477619029E+04  0.00000000000E+00 0. -1.
         24    2    1    2    0    0  0.10317752696E+04  0.74873685264E+02 -0.17171152560E+04  0.20062461528E+04  0.79828237882E+02 0.  0.
        254    2    1    2    0    0 -0.10317752696E+04 -0.74873685264E+02 -0.12586759239E+02  0.13595756377E+04  0.88211179133E+03 0.  0.
         23    2    4    4    0    0 -0.44786165614E+03  0.33671464253E+03 -0.22355871810E+03  0.60891360833E+03  0.82707124432E+02 0.  0.
         23    2    4    4    0    0 -0.58391361348E+03 -0.41158832779E+03  0.21097195886E+03  0.75066202938E+03  0.92866868979E+02 0.  0.
          4    1    3    3  502    0  0.70599529490E+03  0.63015447023E+02 -0.12425111598E+04  0.14304664572E+04  0.00000000000E+00 0. -1.
         -3    1    3    3    0  502  0.32577997472E+03  0.11858238241E+02 -0.47460409624E+03  0.57577969564E+03  0.00000000000E+00 0.  1.
         11    1    5    5    0    0 -0.39283493145E+03  0.31059311874E+03 -0.17323818491E+03  0.52990455507E+03  0.00000000000E+00 0. -1.
        -11    1    5    5    0    0 -0.55026724691E+02  0.26121523787E+02 -0.50320533193E+02  0.79009053253E+02  0.00000000000E+00 0.  1.
          1    1    6    6  503    0 -0.38858078474E+03 -0.30187643075E+03  0.10644782194E+03  0.50344368554E+03  0.00000000000E+00 0. -1.
         -1    1    6    6    0  503 -0.19533282873E+03 -0.10971189704E+03  0.10452413692E+03  0.24721834384E+03  0.00000000000E+00 0.  1.
<mgrwt>
<rscale>  0 0.28873668E+04</rscale>
<asrwt>0</asrwt>
<pdfrwt beam="1">  1        2 0.39196337E+00 0.28873668E+04</pdfrwt>
<pdfrwt beam="2">  1       -1 0.12585537E+00 0.28873668E+04</pdfrwt>
<totfact> 0.17638242E+00</totfact>
</mgrwt>
</event>
<event>
12    6  0.1510140E-007  0.2119440E+04  0.7818608E-02  0.8552728E-01
          2   -1    0    0  501    0  0.00000000000E+00  0.00000000000E+00  0.10648587189E+04  0.10648587189E+04  0.00000000000E+00 0. -1.
         -1   -1    0    0    0  501 -0.00000000000E+00 -0.00000000000E+00 -0.10546065284E+04  0.10546065284E+04  0.00000000000E+00 0.  1.
         24    2    1    2    0    0  0.76037316780E+03  0.20634680318E+03  0.34413445820E+03  0.86356272016E+03  0.81028938275E+02 0.  0.
        254    2    1    2    0    0 -0.76037316780E+03 -0.20634680318E+03 -0.33388226778E+03  0.12559025271E+04  0.91927549266E+03 0.  0.
         23    2    4    4    0    0  0.11734575449E+03 -0.27276595471E+03 -0.17657258240E+03  0.35712402185E+03  0.90489767254E+02 0.  0.
         23    2    4    4    0    0 -0.87771892229E+03  0.66419151529E+02 -0.15730968537E+03  0.89877850528E+03  0.90854026936E+02 0.  0.
          2    1    3    3  502    0  0.73093402902E+03  0.18414506306E+03  0.31669126444E+03  0.81759850538E+03  0.00000000000E+00 0. -1.
         -1    1    3    3    0  502  0.29439138781E+02  0.22201740126E+02  0.27443193760E+02  0.45964214782E+02  0.00000000000E+00 0.  1.
         11    1    5    5    0    0  0.63897378786E+02 -0.17333500687E+03 -0.15723921477E+03  0.24259445641E+03  0.00000000000E+00 0.  1.
        -11    1    5    5    0    0  0.53448375701E+02 -0.99430947844E+02 -0.19333367635E+02  0.11452956543E+03  0.00000000000E+00 0. -1.
          4    1    6    6  503    0 -0.60497665976E+03  0.27361037658E+02 -0.14639112515E+03  0.62303751633E+03  0.00000000000E+00 0. -1.
         -4    1    6    6    0  503 -0.27274226253E+03  0.39058113872E+02 -0.10918560219E+02  0.27574098895E+03  0.00000000000E+00 0.  1.
<mgrwt>
<rscale>  0 0.21194405E+04</rscale>
<asrwt>0</asrwt>
<pdfrwt beam="1">  1        2 0.16382442E+00 0.21194405E+04</pdfrwt>
<pdfrwt beam="2">  1       -1 0.16224716E+00 0.21194405E+04</pdfrwt>
<totfact> 0.67561898E+00</totfact>
</mgrwt>
</event>
<event>
12    6  0.1510140E-007  0.1012104E+04  0.7818608E-02  0.9295368E-01
          2   -1    0    0  501    0  0.00000000000E+00  0.00000000000E+00  0.19937986255E+04  0.19937986255E+04  0.00000000000E+00 0. -1.
         -1   -1    0    0    0  501 -0.00000000000E+00 -0.00000000000E+00 -0.12844255917E+03  0.12844255917E+03  0.00000000000E+00 0.  1.
         24    2    1    2    0    0 -0.34979541409E+02 -0.33861240708E+02  0.51194892614E+02  0.10666968138E+03  0.79920910628E+02 0.  0.
        254    2    1    2    0    0  0.34979541409E+02  0.33861240708E+02  0.18141611737E+04  0.20155715033E+04  0.87691366095E+03 0.  0.
         23    2    4    4    0    0 -0.30331784977E+03  0.30179996717E+03  0.88346922386E+03  0.98581706631E+03  0.90733017900E+02 0.  0.
         23    2    4    4    0    0  0.33829739118E+03 -0.26793872647E+03  0.93069194984E+03  0.10297544370E+04  0.89277146897E+02 0.  0.
          4    1    3    3  502    0 -0.40731991568E+02  0.15147065857E+02  0.17144092425E+02  0.46716684881E+02  0.00000000000E+00 0. -1.
         -3    1    3    3    0  502  0.57524501594E+01 -0.49008306565E+02  0.34050800189E+02  0.59952996495E+02  0.00000000000E+00 0.  1.
         11    1    5    5    0    0 -0.22418932298E+03  0.16429224766E+03  0.53323208475E+03  0.60132291773E+03  0.00000000000E+00 0.  1.
        -11    1    5    5    0    0 -0.79128526791E+02  0.13750771952E+03  0.35023713911E+03  0.38449414858E+03  0.00000000000E+00 0. -1.
          3    1    6    6  503    0  0.80595572971E+02 -0.11644176948E+03  0.31146481522E+03  0.34214713675E+03  0.00000000000E+00 0. -1.
         -3    1    6    6    0  503  0.25770181821E+03 -0.15149695699E+03  0.61922713462E+03  0.68760730023E+03  0.00000000000E+00 0.  1.
<mgrwt>
<rscale>  0 0.10121039E+04</rscale>
<asrwt>0</asrwt>
<pdfrwt beam="1">  1        2 0.30673823E+00 0.10121039E+04</pdfrwt>
<pdfrwt beam="2">  1       -1 0.19760395E-01 0.10121039E+04</pdfrwt>
<totfact> 0.16030963E+02</totfact>
</mgrwt>
</event>
<event>
12    6  0.2356377E-007  0.1977880E+04  0.7818608E-02  0.8617033E-01
         -1   -1    0    0    0  501 -0.00000000000E+00  0.00000000000E+00  0.38345604276E+03  0.38345604276E+03  0.00000000000E+00 0.  1.
          2   -1    0    0  501    0  0.00000000000E+00 -0.00000000000E+00 -0.25504941492E+04  0.25504941492E+04  0.00000000000E+00 0. -1.
         24    2    1    2    0    0  0.52169834796E+03  0.29360642719E+03 -0.14910242018E+04  0.16086593402E+04  0.79106272089E+02 0.  0.
        254    2    1    2    0    0 -0.52169834796E+03 -0.29360642719E+03 -0.67601390464E+03  0.13252908517E+04  0.97006553491E+03 0.  0.
         23    2    4    4    0    0 -0.30358601895E+03 -0.63153319459E+03 -0.30296855670E+03  0.76924738836E+03  0.94620036929E+02 0.  0.
         23    2    4    4    0    0 -0.21811232901E+03  0.33792676740E+03 -0.37304534794E+03  0.55604346335E+03  0.90851600561E+02 0.  0.
          2    1    3    3  502    0  0.48290850964E+03  0.25920855178E+03 -0.14063489093E+04  0.15093730343E+04  0.00000000000E+00 0. -1.
         -1    1    3    3    0  502  0.38789838315E+02  0.34397875410E+02 -0.84675292527E+02  0.99286305973E+02  0.00000000000E+00 0.  1.
         11    1    5    5    0    0 -0.30868830300E+03 -0.60026212013E+03 -0.28383005832E+03  0.73223123620E+03  0.00000000000E+00 0. -1.
        -11    1    5    5    0    0  0.51022840502E+01 -0.31271074461E+02 -0.19138498378E+02  0.37016152159E+02  0.00000000000E+00 0.  1.
          4    1    6    6  503    0 -0.20902557274E+03  0.30073231996E+03 -0.29942273508E+03  0.47305981927E+03  0.00000000000E+00 0. -1.
         -4    1    6    6    0  503 -0.90867562668E+01  0.37194447439E+02 -0.73622612863E+02  0.82983644078E+02  0.00000000000E+00 0.  1.
<mgrwt>
<rscale>  0 0.19778801E+04</rscale>
<asrwt>0</asrwt>
<pdfrwt beam="1">  1        2 0.39238370E+00 0.19778801E+04</pdfrwt>
<pdfrwt beam="2">  1       -1 0.58993239E-01 0.19778801E+04</pdfrwt>
<totfact> 0.10046323E+01</totfact>
</mgrwt>
</event>
<event>
12    6  0.1510140E-007  0.1475231E+04  0.7818608E-02  0.8901093E-01
          2   -1    0    0  501    0  0.00000000000E+00  0.00000000000E+00  0.35555913654E+04  0.35555913654E+04  0.00000000000E+00 0. -1.
         -1   -1    0    0    0  501 -0.00000000000E+00 -0.00000000000E+00 -0.15301997473E+03  0.15301997473E+03  0.00000000000E+00 0.  1.
         24    2    1    2    0    0 -0.34584323887E+03  0.17492064645E+03  0.52836022888E+03  0.66016851763E+03  0.80331573987E+02 0.  0.
        254    2    1    2    0    0  0.34584323887E+03 -0.17492064645E+03  0.28742111618E+04  0.30484428225E+04  0.93899364270E+03 0.  0.
         23    2    4    4    0    0 -0.24663211335E+03  0.37234363425E+02  0.16258999600E+04  0.16474851201E+04  0.91884405158E+02 0.  0.
         23    2    4    4    0    0  0.59247535221E+03 -0.21215500987E+03  0.12483112018E+04  0.14009577024E+04  0.91459478190E+02 0.  0.
          4    1    3    3  502    0 -0.32624367062E+03  0.13853411494E+03  0.47056412430E+03  0.58911563271E+03  0.00000000000E+00 0. -1.
         -3    1    3    3    0  502 -0.19599568248E+02  0.36386531511E+02  0.57796104582E+02  0.71052884923E+02  0.00000000000E+00 0.  1.
         11    1    5    5    0    0 -0.80598876074E+02 -0.28211097060E+02  0.43702102807E+03  0.44528577767E+03  0.00000000000E+00 0. -1.
        -11    1    5    5    0    0 -0.16603323727E+03  0.65445460485E+02  0.11888789320E+04  0.12021993425E+04  0.00000000000E+00 0.  1.
          3    1    6    6  503    0  0.18108495037E+03 -0.34110943643E+02  0.43214944266E+03  0.46979618615E+03  0.00000000000E+00 0. -1.
         -3    1    6    6    0  503  0.41139040184E+03 -0.17804406623E+03  0.81616175911E+03  0.93116151621E+03  0.00000000000E+00 0.  1.
<mgrwt>
<rscale>  0 0.14752308E+04</rscale>
<asrwt>0</asrwt>
<pdfrwt beam="1">  1        2 0.54701399E+00 0.14752308E+04</pdfrwt>
<pdfrwt beam="2">  1       -1 0.23541537E-01 0.14752308E+04</pdfrwt>
<totfact> 0.12914512E+01</totfact>
</mgrwt>
</event>
<event>
12    6  0.1510140E-007  0.1530320E+04  0.7818608E-02  0.8864537E-01
         -1   -1    0    0    0  501 -0.00000000000E+00  0.00000000000E+00  0.43426813561E+03  0.43426813561E+03  0.00000000000E+00 0.  1.
          2   -1    0    0  501    0  0.00000000000E+00 -0.00000000000E+00 -0.13481752727E+04  0.13481752727E+04  0.00000000000E+00 0. -1.
         24    2    1    2    0    0  0.15791772731E+03 -0.32608661118E+03 -0.69848807375E+03  0.79060150037E+03  0.76776667200E+02 0.  0.
        254    2    1    2    0    0 -0.15791772731E+03  0.32608661118E+03 -0.21541906331E+03  0.99184190791E+03  0.89781652405E+03 0.  0.
         23    2    4    4    0    0  0.86935946064E+02 -0.14094221392E+03 -0.38613765684E+03  0.43007123560E+03  0.91849938903E+02 0.  0.
         23    2    4    4    0    0 -0.24485367337E+03  0.46702882510E+03  0.17071859352E+03  0.56177067231E+03  0.91499755481E+02 0.  0.
          4    1    3    3  502    0  0.13135856555E+03 -0.24269210285E+03 -0.58890976387E+03  0.65036085330E+03  0.00000000000E+00 0. -1.
         -3    1    3    3    0  502  0.26559161758E+02 -0.83394508335E+02 -0.10957830988E+03  0.14024064707E+03  0.00000000000E+00 0.  1.
         11    1    5    5    0    0  0.85294096927E+02 -0.14687112919E+03 -0.38808143278E+03  0.42361941649E+03  0.00000000000E+00 0. -1.
        -11    1    5    5    0    0  0.16418491371E+01  0.59289152664E+01  0.19437759446E+01  0.64518191038E+01  0.00000000000E+00 0.  1.
          4    1    6    6  503    0 -0.20733717752E+03  0.30886017084E+03  0.13141986494E+03  0.39453072278E+03  0.00000000000E+00 0. -1.
         -4    1    6    6    0  503 -0.37516495851E+02  0.15816865426E+03  0.39298728587E+02  0.16723994953E+03  0.00000000000E+00 0.  1.
<mgrwt>
<rscale>  0 0.15303197E+04</rscale>
<asrwt>0</asrwt>
<pdfrwt beam="1">  1        2 0.20741158E+00 0.15303197E+04</pdfrwt>
<pdfrwt beam="2">  1       -1 0.66810483E-01 0.15303197E+04</pdfrwt>
<totfact> 0.38655724E+01</totfact>
</mgrwt>
</event>
<event>
12    6  0.1510140E-007  0.1662060E+04  0.7818608E-02  0.8783304E-01
          2   -1    0    0  501    0  0.00000000000E+00  0.00000000000E+00  0.65433653973E+03  0.65433653973E+03  0.00000000000E+00 0. -1.
         -1   -1    0    0    0  501 -0.00000000000E+00 -0.00000000000E+00 -0.10554364362E+04  0.10554364362E+04  0.00000000000E+00 0.  1.
         24    2    1    2    0    0 -0.50051956922E+02  0.56979864694E+03 -0.22222769866E+02  0.57907855772E+03  0.87535296113E+02 0.  0.
        254    2    1    2    0    0  0.50051956922E+02 -0.56979864694E+03 -0.37887712660E+03  0.11306944182E+04  0.89874706891E+03 0.  0.
         23    2    4    4    0    0 -0.16393967197E+03 -0.48492842349E+03 -0.60463882642E+03  0.79750763203E+03  0.91643443684E+02 0.  0.
         23    2    4    4    0    0  0.21399162889E+03 -0.84870223453E+02  0.22576169982E+03  0.33318678619E+03  0.83962594753E+02 0.  0.
          2    1    3    3  502    0 -0.10363882026E+02  0.32099636612E+03 -0.52111918236E+02  0.32536399484E+03  0.00000000000E+00 0. -1.
         -1    1    3    3    0  502 -0.39688074895E+02  0.24880228082E+03  0.29889148370E+02  0.25371456289E+03  0.00000000000E+00 0.  1.
         11    1    5    5    0    0  0.95394751136E+01 -0.86763476021E+01 -0.19317149049E+02  0.23225693543E+02  0.00000000000E+00 0. -1.
        -11    1    5    5    0    0 -0.17347914708E+03 -0.47625207589E+03 -0.58532167737E+03  0.77428193848E+03  0.00000000000E+00 0.  1.
          1    1    6    6  503    0  0.80287487618E+02 -0.70715442993E+02  0.12868898457E+03  0.16735474088E+03  0.00000000000E+00 0. -1.
         -1    1    6    6    0  503  0.13370414128E+03 -0.14154780460E+02  0.97072715253E+02  0.16583204531E+03  0.00000000000E+00 0.  1.
<mgrwt>
<rscale>  0 0.16620597E+04</rscale>
<asrwt>0</asrwt>
<pdfrwt beam="1">  1        2 0.10066716E+00 0.16620597E+04</pdfrwt>
<pdfrwt beam="2">  1       -1 0.16237484E+00 0.16620597E+04</pdfrwt>
<totfact> 0.13630697E+01</totfact>
</mgrwt>
</event>
<event>
12    6  0.1510140E-007  0.1714117E+04  0.7818608E-02  0.8753354E-01
         -1   -1    0    0    0  501 -0.00000000000E+00  0.00000000000E+00  0.39111607668E+03  0.39111607668E+03  0.00000000000E+00 0.  1.
          2   -1    0    0  501    0  0.00000000000E+00 -0.00000000000E+00 -0.18780849082E+04  0.18780849082E+04  0.00000000000E+00 0. -1.
         24    2    1    2    0    0 -0.57866439689E+03 -0.17038290470E+03 -0.49434995205E+03  0.78391967396E+03  0.79154037692E+02 0.  0.
        254    2    1    2    0    0  0.57866439689E+03  0.17038290470E+03 -0.99261887943E+03  0.14852813109E+04  0.92568110829E+03 0.  0.
         23    2    4    4    0    0  0.49425277875E+02 -0.21082410396E+03  0.60647620955E+02  0.24317553605E+03  0.92555640014E+02 0.  0.
         23    2    4    4    0    0  0.52923911901E+03  0.38120700866E+03 -0.10532665004E+04  0.12421057749E+04  0.89686155747E+02 0.  0.
          2    1    3    3  502    0 -0.56418584526E+03 -0.15490664350E+03 -0.46312207360E+03  0.74617946317E+03  0.00000000000E+00 0. -1.
         -1    1    3    3    0  502 -0.14478551623E+02 -0.15476261197E+02 -0.31227878453E+02  0.37740210789E+02  0.00000000000E+00 0.  1.
         11    1    5    5    0    0  0.68398578764E+02 -0.10626435229E+03  0.14091983677E+02  0.12715762717E+03  0.00000000000E+00 0.  1.
        -11    1    5    5    0    0 -0.18973300889E+02 -0.10455975167E+03  0.46555637278E+02  0.11601790887E+03  0.00000000000E+00 0. -1.
          2    1    6    6  503    0  0.14863261105E+03  0.15707371524E+03 -0.36742017234E+03  0.42633483101E+03  0.00000000000E+00 0. -1.
         -2    1    6    6    0  503  0.38060650796E+03  0.22413329342E+03 -0.68584632804E+03  0.81577094384E+03  0.00000000000E+00 0.  1.
<mgrwt>
<rscale>  0 0.17141169E+04</rscale>
<asrwt>0</asrwt>
<pdfrwt beam="1">  1        2 0.28893614E+00 0.17141169E+04</pdfrwt>
<pdfrwt beam="2">  1       -1 0.60171705E-01 0.17141169E+04</pdfrwt>
<totfact> 0.23677324E+01</totfact>
</mgrwt>
</event>
<event>
12    6  0.1510140E-007  0.1805744E+04  0.7818608E-02  0.8703251E-01
          2   -1    0    0  501    0  0.00000000000E+00  0.00000000000E+00  0.25983279097E+04  0.25983279097E+04  0.00000000000E+00 0. -1.
         -1   -1    0    0    0  501 -0.00000000000E+00 -0.00000000000E+00 -0.31373172406E+03  0.31373172406E+03  0.00000000000E+00 0.  1.
         24    2    1    2    0    0  0.47723511219E+03 -0.12187079719E+03  0.15988947217E+04  0.16749967155E+04  0.80893894114E+02 0.  0.
        254    2    1    2    0    0 -0.47723511219E+03  0.12187079719E+03  0.68570146386E+03  0.12370629183E+04  0.90417494031E+03 0.  0.
         23    2    4    4    0    0 -0.28613217387E+03 -0.37817007460E+03  0.26863767656E+03  0.55244054078E+03  0.90222633435E+02 0.  0.
         23    2    4    4    0    0 -0.19110293832E+03  0.50004087179E+03  0.41706378730E+03  0.68462237748E+03  0.90578091042E+02 0.  0.
          2    1    3    3  502    0  0.28220807894E+03 -0.92389835443E+02  0.84215344782E+03  0.89297240226E+03  0.00000000000E+00 0. -1.
         -1    1    3    3    0  502  0.19502703325E+03 -0.29480961751E+02  0.75674127392E+03  0.78202431322E+03  0.00000000000E+00 0.  1.
         11    1    5    5    0    0 -0.38985465273E+02 -0.18502011619E+02  0.43963464515E+02  0.61603385853E+02  0.00000000000E+00 0.  1.
        -11    1    5    5    0    0 -0.24714670860E+03 -0.35966806298E+03  0.22467421205E+03  0.49083715493E+03  0.00000000000E+00 0. -1.
          3    1    6    6  503    0 -0.13356513300E+03  0.24310641741E+03  0.24499729987E+03  0.37008654648E+03  0.00000000000E+00 0. -1.
         -3    1    6    6    0  503 -0.57537805313E+02  0.25693445439E+03  0.17206648743E+03  0.31453583101E+03  0.00000000000E+00 0.  1.
<mgrwt>
<rscale>  0 0.18057441E+04</rscale>
<asrwt>0</asrwt>
<pdfrwt beam="1">  1        2 0.39974274E+00 0.18057441E+04</pdfrwt>
<pdfrwt beam="2">  1       -1 0.48266421E-01 0.18057441E+04</pdfrwt>
<totfact> 0.14087869E+01</totfact>
</mgrwt>
</event>
<event>
12    6  0.1510140E-007  0.2920479E+04  0.7818608E-02  0.8266810E-01
          2   -1    0    0  501    0  0.00000000000E+00  0.00000000000E+00  0.16498100091E+04  0.16498100091E+04  0.00000000000E+00 0. -1.
         -1   -1    0    0    0  501 -0.00000000000E+00 -0.00000000000E+00 -0.12924516135E+04  0.12924516135E+04  0.00000000000E+00 0.  1.
         24    2    1    2    0    0  0.11032568343E+04  0.68588357549E+03 -0.78913369193E+02  0.13043154327E+04  0.86020384780E+02 0.  0.
        254    2    1    2    0    0 -0.11032568343E+04 -0.68588357549E+03  0.43627176480E+03  0.16379461899E+04  0.89717486975E+03 0.  0.
         23    2    4    4    0    0 -0.58649515839E+03  0.29982450770E+02 -0.95061102875E+02  0.60375056915E+03  0.10296901623E+03 0.  0.
         23    2    4    4    0    0 -0.51676167586E+03 -0.71586602626E+03  0.53133286768E+03  0.10341956208E+04  0.87972544487E+02 0.  0.
          4    1    3    3  502    0  0.53323502601E+03  0.28783059647E+03 -0.58362491664E+02  0.60876286488E+03  0.00000000000E+00 0. -1.
         -3    1    3    3    0  502  0.57002180824E+03  0.39805297902E+03 -0.20550877528E+02  0.69555256778E+03  0.00000000000E+00 0.  1.
         11    1    5    5    0    0 -0.35459464085E+03  0.68397541708E+02 -0.54714959769E+02  0.36525239199E+03  0.00000000000E+00 0. -1.
        -11    1    5    5    0    0 -0.23190051754E+03 -0.38415090937E+02 -0.40346143107E+02  0.23849817716E+03  0.00000000000E+00 0.  1.
          2    1    6    6  503    0 -0.40281043897E+03 -0.49335600937E+03  0.39483557368E+03  0.74936742121E+03  0.00000000000E+00 0. -1.
         -2    1    6    6    0  503 -0.11395123690E+03 -0.22251001689E+03  0.13649729399E+03  0.28482819958E+03  0.00000000000E+00 0.  1.
<mgrwt>
<rscale>  0 0.29204791E+04</rscale>
<asrwt>0</asrwt>
<pdfrwt beam="1">  1        2 0.25381693E+00 0.29204791E+04</pdfrwt>
<pdfrwt beam="2">  1       -1 0.19883871E+00 0.29204791E+04</pdfrwt>
<totfact> 0.15728658E+00</totfact>
</mgrwt>
</event>
<event>
12    6  0.1510140E-007  0.1548069E+04  0.7818608E-02  0.8853102E-01
          2   -1    0    0  501    0  0.00000000000E+00  0.00000000000E+00  0.17630916649E+04  0.17630916649E+04  0.00000000000E+00 0. -1.
         -1   -1    0    0    0  501 -0.00000000000E+00 -0.00000000000E+00 -0.33981755512E+03  0.33981755512E+03  0.00000000000E+00 0.  1.
         24    2    1    2    0    0  0.15170693548E+03 -0.27916440152E+03  0.10150421337E+04  0.10667122406E+04  0.81343185188E+02 0.  0.
        254    2    1    2    0    0 -0.15170693548E+03  0.27916440152E+03  0.40823197612E+03  0.10361969794E+04  0.89783243231E+03 0.  0.
         23    2    4    4    0    0 -0.15717164971E+03 -0.42890455593E+02 -0.24171087609E+03  0.30541042580E+03  0.91152958894E+02 0.  0.
         23    2    4    4    0    0  0.54647142263E+01  0.32205485712E+03  0.64994285222E+03  0.73078655363E+03  0.88736022712E+02 0.  0.
          2    1    3    3  502    0  0.14427214502E+03 -0.27718424130E+03  0.92528128624E+03  0.97662224740E+03  0.00000000000E+00 0. -1.
         -1    1    3    3    0  502  0.74347904576E+01 -0.19801602211E+01  0.89760847415E+02  0.90089993186E+02  0.00000000000E+00 0.  1.
         11    1    5    5    0    0 -0.14556533263E+03 -0.38050088061E+02 -0.14865047963E+03  0.21150423248E+03  0.00000000000E+00 0. -1.
        -11    1    5    5    0    0 -0.11606317081E+02 -0.48403675328E+01 -0.93060396464E+02  0.93906193322E+02  0.00000000000E+00 0.  1.
          3    1    6    6  503    0  0.35899104706E+02  0.19257853731E+03  0.44825696358E+03  0.48919274744E+03  0.00000000000E+00 0. -1.
         -3    1    6    6    0  503 -0.30434390480E+02  0.12947631980E+03  0.20168588864E+03  0.24159380619E+03  0.00000000000E+00 0.  1.
<mgrwt>
<rscale>  0 0.15480691E+04</rscale>
<asrwt>0</asrwt>
<pdfrwt beam="1">  1        2 0.27124487E+00 0.15480691E+04</pdfrwt>
<pdfrwt beam="2">  1       -1 0.52279625E-01 0.15480691E+04</pdfrwt>
<totfact> 0.36560657E+01</totfact>
</mgrwt>
</event>
<event>
12    6  0.1510140E-007  0.1793393E+04  0.7818608E-02  0.8709821E-01
          2   -1    0    0  501    0  0.00000000000E+00  0.00000000000E+00  0.14193147293E+04  0.14193147293E+04  0.00000000000E+00 0. -1.
         -1   -1    0    0    0  501 -0.00000000000E+00 -0.00000000000E+00 -0.56651582322E+03  0.56651582322E+03  0.00000000000E+00 0.  1.
         24    2    1    2    0    0  0.22253185841E+03 -0.24335733319E+03 -0.32407187968E+03  0.46916608997E+03  0.79693269201E+02 0.  0.
        254    2    1    2    0    0 -0.22253185841E+03  0.24335733319E+03  0.11768707858E+04  0.15166644625E+04  0.89805513523E+03 0.  0.
         23    2    4    4    0    0  0.17549790475E+03  0.24780005208E+03  0.10369960003E+04  0.10843367820E+04  0.90670677237E+02 0.  0.
         23    2    4    4    0    0 -0.39802976316E+03 -0.44427188946E+01  0.13987478540E+03  0.43232768051E+03  0.94312446860E+02 0.  0.
          4    1    3    3  502    0  0.94773942980E+01  0.59759859088E+01 -0.88620170399E+01  0.14285263605E+02  0.00000000000E+00 0. -1.
         -3    1    3    3    0  502  0.21305446411E+03 -0.24933331909E+03 -0.31520986264E+03  0.45488082637E+03  0.00000000000E+00 0.  1.
         11    1    5    5    0    0 -0.43802818912E+01  0.11364367390E+02  0.11539623348E+03  0.11603717688E+03  0.00000000000E+00 0.  1.
        -11    1    5    5    0    0  0.17987818664E+03  0.23643568469E+03  0.92159976686E+03  0.96829960514E+03  0.00000000000E+00 0. -1.
          1    1    6    6  503    0 -0.34381200697E+03 -0.12821523667E+02  0.15201712225E+03  0.37613866202E+03  0.00000000000E+00 0. -1.
         -1    1    6    6    0  503 -0.54217756189E+02  0.83788047722E+01 -0.12142336843E+02  0.56189018496E+02  0.00000000000E+00 0.  1.
<mgrwt>
<rscale>  0 0.17933926E+04</rscale>
<asrwt>0</asrwt>
<pdfrwt beam="1">  1        2 0.21835611E+00 0.17933926E+04</pdfrwt>
<pdfrwt beam="2">  1       -1 0.87156281E-01 0.17933926E+04</pdfrwt>
<totfact> 0.19686470E+01</totfact>
</mgrwt>
</event>
<event>
12    6  0.1510140E-007  0.1510380E+04  0.7818608E-02  0.8877579E-01
         -1   -1    0    0    0  501 -0.00000000000E+00  0.00000000000E+00  0.34657788933E+03  0.34657788933E+03  0.00000000000E+00 0.  1.
          2   -1    0    0  501    0  0.00000000000E+00 -0.00000000000E+00 -0.16455525107E+04  0.16455525107E+04  0.00000000000E+00 0. -1.
         24    2    1    2    0    0  0.10138523001E+03  0.18892641748E+03 -0.98717953485E+03  0.10130323515E+04  0.75755891993E+02 0.  0.
        254    2    1    2    0    0 -0.10138523001E+03 -0.18892641748E+03 -0.31179508647E+03  0.97909804844E+03  0.90301974309E+03 0.  0.
         23    2    4    4    0    0  0.22634950150E+03 -0.24865217923E+03 -0.48215394213E+03  0.59446132537E+03  0.88599324968E+02 0.  0.
         23    2    4    4    0    0 -0.32773473151E+03  0.59725761750E+02  0.17035885566E+03  0.38463672306E+03  0.89140608987E+02 0.  0.
          2    1    3    3  502    0  0.91908657085E+02  0.18675915257E+03 -0.97711538653E+03  0.99903986953E+03  0.00000000000E+00 0. -1.
         -1    1    3    3    0  502  0.94765729278E+01  0.21672649164E+01 -0.10064148317E+02  0.13992482018E+02  0.00000000000E+00 0.  1.
         11    1    5    5    0    0  0.17897110357E+03 -0.13508606056E+03 -0.32545927760E+03  0.39522479811E+03  0.00000000000E+00 0. -1.
        -11    1    5    5    0    0  0.47378397934E+02 -0.11356611867E+03 -0.15669466453E+03  0.19923652726E+03  0.00000000000E+00 0.  1.
          1    1    6    6  503    0 -0.23693742940E+03  0.58831892578E+01  0.13784828126E+03  0.27418261435E+03  0.00000000000E+00 0. -1.
         -1    1    6    6    0  503 -0.90797302112E+02  0.53842572492E+02  0.32510574404E+02  0.11045410871E+03  0.00000000000E+00 0.  1.
<mgrwt>
<rscale>  0 0.15103802E+04</rscale>
<asrwt>0</asrwt>
<pdfrwt beam="1">  1        2 0.25316193E+00 0.15103802E+04</pdfrwt>
<pdfrwt beam="2">  1       -1 0.53319675E-01 0.15103802E+04</pdfrwt>
<totfact> 0.41040486E+01</totfact>
</mgrwt>
</event>
<event>
12    6  0.1510140E-007  0.1110814E+04  0.7818608E-02  0.9194715E-01
          2   -1    0    0  501    0  0.00000000000E+00  0.00000000000E+00  0.39183828990E+04  0.39183828990E+04  0.00000000000E+00 0. -1.
         -1   -1    0    0    0  501 -0.00000000000E+00 -0.00000000000E+00 -0.78725614007E+02  0.78725614007E+02  0.00000000000E+00 0.  1.
         24    2    1    2    0    0  0.15522917554E+03 -0.69970948112E+02  0.54353833358E+03  0.57514135094E+03  0.79759782961E+02 0.  0.
        254    2    1    2    0    0 -0.15522917554E+03  0.69970948112E+02  0.32961189514E+04  0.34219671621E+04  0.90358568263E+03 0.  0.
         23    2    4    4    0    0  0.11331528520E+03 -0.19221613938E+03  0.23520601722E+03  0.33676848227E+03  0.91124870436E+02 0.  0.
         23    2    4    4    0    0 -0.26854446074E+03  0.26218708749E+03  0.30609129342E+04  0.30851986798E+04  0.91677188365E+02 0.  0.
          2    1    3    3  502    0  0.15382046727E+02  0.33537677130E+01  0.15418849632E+03  0.15499015297E+03  0.00000000000E+00 0. -1.
         -1    1    3    3    0  502  0.13984712881E+03 -0.73324715825E+02  0.38934983725E+03  0.42015119797E+03  0.00000000000E+00 0.  1.
         11    1    5    5    0    0  0.85141330035E+02 -0.17814915424E+03  0.23269619053E+03  0.30517811901E+03  0.00000000000E+00 0.  1.
        -11    1    5    5    0    0  0.28173955167E+02 -0.14066985138E+02  0.25098266965E+01  0.31590363257E+02  0.00000000000E+00 0. -1.
          1    1    6    6  503    0 -0.43330946411E+02  0.52480348331E+02  0.88788445052E+03  0.89048894173E+03  0.00000000000E+00 0. -1.
         -1    1    6    6    0  503 -0.22521351433E+03  0.20970673916E+03  0.21730284837E+04  0.21947097381E+04  0.00000000000E+00 0.  1.
<mgrwt>
<rscale>  0 0.11108143E+04</rscale>
<asrwt>0</asrwt>
<pdfrwt beam="1">  1        2 0.60282799E+00 0.11108143E+04</pdfrwt>
<pdfrwt beam="2">  1       -1 0.12111636E-01 0.11108143E+04</pdfrwt>
<totfact> 0.21837681E+01</totfact>
</mgrwt>
</event>
<event>
12    6  0.1510140E-007  0.1299691E+04  0.7818608E-02  0.9029810E-01
         -1   -1    0    0    0  501 -0.00000000000E+00  0.00000000000E+00  0.29677389272E+03  0.29677389272E+03  0.00000000000E+00 0.  1.
          2   -1    0    0  501    0  0.00000000000E+00 -0.00000000000E+00 -0.14229663389E+04  0.14229663389E+04  0.00000000000E+00 0. -1.
         24    2    1    2    0    0  0.12041054615E+03  0.16625487988E+03 -0.63913902792E+03  0.67585271985E+03  0.78350604425E+02 0.  0.
        254    2    1    2    0    0 -0.12041054615E+03 -0.16625487988E+03 -0.48705341826E+03  0.10438875118E+04  0.90018926915E+03 0.  0.
         23    2    4    4    0    0  0.37126931756E+03 -0.17586221993E+03 -0.25860176213E+03  0.49402666220E+03  0.91755354212E+02 0.  0.
         23    2    4    4    0    0 -0.49167986371E+03  0.96073400509E+01 -0.22845165612E+03  0.54986084957E+03  0.91188844422E+02 0.  0.
          2    1    3    3  502    0  0.47815311443E+02  0.66640730086E+02 -0.38188551863E+03  0.39059421431E+03  0.00000000000E+00 0. -1.
         -1    1    3    3    0  502  0.72595234706E+02  0.99614149794E+02 -0.25725350929E+03  0.28525850554E+03  0.00000000000E+00 0.  1.
         11    1    5    5    0    0  0.15075685153E+03 -0.87509654991E+02 -0.16070993207E+03  0.23709333661E+03  0.00000000000E+00 0.  1.
        -11    1    5    5    0    0  0.22051246603E+03 -0.88352564940E+02 -0.97891830067E+02  0.25693332559E+03  0.00000000000E+00 0. -1.
          2    1    6    6  503    0 -0.80871248190E+02 -0.19056469574E+02 -0.69924056206E+02  0.10859411334E+03  0.00000000000E+00 0. -1.
         -2    1    6    6    0  503 -0.41080861552E+03  0.28663809625E+02 -0.15852759992E+03  0.44126673623E+03  0.00000000000E+00 0.  1.
<mgrwt>
<rscale>  0 0.12996911E+04</rscale>
<asrwt>0</asrwt>
<pdfrwt beam="1">  1        2 0.21891790E+00 0.12996911E+04</pdfrwt>
<pdfrwt beam="2">  1       -1 0.45657522E-01 0.12996911E+04</pdfrwt>
<totfact> 0.74722857E+01</totfact>
</mgrwt>
</event>
<event>
12    6  0.1510140E-007  0.1660710E+04  0.7818608E-02  0.8784096E-01
         -1   -1    0    0    0  501 -0.00000000000E+00  0.00000000000E+00  0.34012352101E+03  0.34012352101E+03  0.00000000000E+00 0.  1.
          2   -1    0    0  501    0  0.00000000000E+00 -0.00000000000E+00 -0.20271727164E+04  0.20271727164E+04  0.00000000000E+00 0. -1.
         24    2    1    2    0    0 -0.37532642577E+03 -0.26179434966E+03 -0.87906388164E+02  0.47261565206E+03  0.78941839973E+02 0.  0.
        254    2    1    2    0    0  0.37532642577E+03  0.26179434966E+03 -0.15991428072E+04  0.18946805854E+04  0.90727647122E+03 0.  0.
         23    2    4    4    0    0  0.63801650333E+01  0.53733019443E+03 -0.80905832999E+03  0.97573082384E+03  0.93331746542E+02 0.  0.
         23    2    4    4    0    0  0.36894626074E+03 -0.27553584477E+03 -0.79008447726E+03  0.91894976153E+03  0.90519820766E+02 0.  0.
          4    1    3    3  502    0 -0.12153929450E+03 -0.54262810868E+02 -0.51678626216E+02  0.14278281815E+03  0.00000000000E+00 0. -1.
         -3    1    3    3    0  502 -0.25378713128E+03 -0.20753153879E+03 -0.36227761947E+02  0.32983283392E+03  0.00000000000E+00 0.  1.
         11    1    5    5    0    0  0.16612462738E+02  0.20291037116E+02 -0.60193702799E+02  0.65658068522E+02  0.00000000000E+00 0. -1.
        -11    1    5    5    0    0 -0.10232297705E+02  0.51703915731E+03 -0.74886462719E+03  0.91007275532E+03  0.00000000000E+00 0.  1.
          4    1    6    6  503    0  0.67115016821E+02 -0.20047258937E+02 -0.81284965651E+02  0.10730127546E+03  0.00000000000E+00 0. -1.
         -4    1    6    6    0  503  0.30183124392E+03 -0.25548858583E+03 -0.70879951161E+03  0.81164848608E+03  0.00000000000E+00 0.  1.
<mgrwt>
<rscale>  0 0.16607096E+04</rscale>
<asrwt>0</asrwt>
<pdfrwt beam="1">  1        2 0.31187272E+00 0.16607096E+04</pdfrwt>
<pdfrwt beam="2">  1       -1 0.52326696E-01 0.16607096E+04</pdfrwt>
<totfact> 0.25811439E+01</totfact>
</mgrwt>
</event>
<event>
12    6  0.1510140E-007  0.2245744E+04  0.7818608E-02  0.8499626E-01
         -1   -1    0    0    0  501 -0.00000000000E+00  0.00000000000E+00  0.89940722916E+03  0.89940722916E+03  0.00000000000E+00 0.  1.
          2   -1    0    0  501    0  0.00000000000E+00 -0.00000000000E+00 -0.14018579395E+04  0.14018579395E+04  0.00000000000E+00 0. -1.
         24    2    1    2    0    0  0.34099381812E+03 -0.78248422497E+03 -0.61353078122E+03  0.10542550908E+04  0.80470061237E+02 0.  0.
        254    2    1    2    0    0 -0.34099381812E+03  0.78248422497E+03  0.11108007088E+03  0.12470100778E+04  0.90229540934E+03 0.  0.
         23    2    4    4    0    0 -0.10252247529E+03 -0.13347008995E+03 -0.16981969864E+03  0.25543039069E+03  0.89893445762E+02 0.  0.
         23    2    4    4    0    0 -0.23847134283E+03  0.91595431492E+03  0.28089976952E+03  0.99157968713E+03  0.92112469532E+02 0.  0.
          4    1    3    3  502    0  0.22268482877E+03 -0.57233326466E+03 -0.47268228406E+03  0.77497254175E+03  0.00000000000E+00 0. -1.
         -3    1    3    3    0  502  0.11830898934E+03 -0.21015096031E+03 -0.14084849715E+03  0.27928254909E+03  0.00000000000E+00 0.  1.
         11    1    5    5    0    0 -0.11604198238E+03 -0.96945263914E+02 -0.12619488945E+03  0.19694993271E+03  0.00000000000E+00 0.  1.
        -11    1    5    5    0    0  0.13519507090E+02 -0.36524826036E+02 -0.43624809193E+02  0.58480457984E+02  0.00000000000E+00 0. -1.
          3    1    6    6  503    0 -0.75918885921E+02  0.17912438645E+03  0.32825665313E+02  0.19729862484E+03  0.00000000000E+00 0. -1.
         -3    1    6    6    0  503 -0.16255245691E+03  0.73682992847E+03  0.24807410421E+03  0.79428106229E+03  0.00000000000E+00 0.  1.
<mgrwt>
<rscale>  0 0.22457437E+04</rscale>
<asrwt>0</asrwt>
<pdfrwt beam="1">  1        2 0.21567045E+00 0.22457437E+04</pdfrwt>
<pdfrwt beam="2">  1       -1 0.13837034E+00 0.22457437E+04</pdfrwt>
<totfact> 0.64735566E+00</totfact>
</mgrwt>
</event>
<event>
12    6  0.1510140E-007  0.3059980E+04  0.7818608E-02  0.8226808E-01
         -1   -1    0    0    0  501 -0.00000000000E+00  0.00000000000E+00  0.64753320229E+03  0.64753320229E+03  0.00000000000E+00 0.  1.
          2   -1    0    0  501    0  0.00000000000E+00 -0.00000000000E+00 -0.36150561167E+04  0.36150561167E+04  0.00000000000E+00 0. -1.
         24    2    1    2    0    0 -0.58353032957E+02  0.68382485139E+03  0.33679425588E+03  0.76860357324E+03  0.79369882060E+02 0.  0.
        254    2    1    2    0    0  0.58353032957E+02 -0.68382485139E+03 -0.33043171703E+04  0.34939857458E+04  0.90465624733E+03 0.  0.
         23    2    4    4    0    0  0.42054803339E+03 -0.54334104261E+03 -0.16032434797E+04  0.17466494899E+04  0.91184694289E+02 0.  0.
         23    2    4    4    0    0 -0.36219500043E+03 -0.14048380878E+03 -0.17010736906E+04  0.17473362559E+04  0.92797474440E+02 0.  0.
          2    1    3    3  502    0 -0.74022829694E+02  0.57811940938E+03  0.30051850928E+03  0.65575361626E+03  0.00000000000E+00 0. -1.
         -1    1    3    3    0  502  0.15669796737E+02  0.10570544201E+03  0.36275746600E+02  0.11284995699E+03  0.00000000000E+00 0.  1.
         11    1    5    5    0    0  0.22350077899E+03 -0.21672402925E+03 -0.74733684856E+03  0.80958895019E+03  0.00000000000E+00 0.  1.
        -11    1    5    5    0    0  0.19704725440E+03 -0.32661701336E+03 -0.85590663111E+03  0.93706053970E+03  0.00000000000E+00 0. -1.
          1    1    6    6  503    0 -0.14573182025E+03 -0.22601466617E+02 -0.78206861778E+03  0.79585169010E+03  0.00000000000E+00 0. -1.
         -1    1    6    6    0  503 -0.21646318018E+03 -0.11788234216E+03 -0.91900507285E+03  0.95148456577E+03  0.00000000000E+00 0.  1.
<mgrwt>
<rscale>  0 0.30599796E+04</rscale>
<asrwt>0</asrwt>
<pdfrwt beam="1">  1        2 0.55616247E+00 0.30599796E+04</pdfrwt>
<pdfrwt beam="2">  1       -1 0.99620494E-01 0.30599796E+04</pdfrwt>
<totfact> 0.62579559E-01</totfact>
</mgrwt>
</event>
<event>
12    6  0.1510140E-007  0.2369247E+04  0.7818608E-02  0.8451108E-01
         -1   -1    0    0    0  501 -0.00000000000E+00  0.00000000000E+00  0.79733021593E+03  0.79733021593E+03  0.00000000000E+00 0.  1.
          2   -1    0    0  501    0  0.00000000000E+00 -0.00000000000E+00 -0.17600394753E+04  0.17600394753E+04  0.00000000000E+00 0. -1.
         24    2    1    2    0    0 -0.61981329287E+02  0.67887689711E+03  0.40126997738E+03  0.79519853743E+03  0.81287099667E+02 0.  0.
        254    2    1    2    0    0  0.61981329287E+02 -0.67887689711E+03 -0.13639792368E+04  0.17621711538E+04  0.88322833426E+03 0.  0.
         23    2    4    4    0    0 -0.87994737413E+02 -0.60109875638E+03 -0.14320918518E+04  0.15586157548E+04  0.96608542545E+02 0.  0.
         23    2    4    4    0    0  0.14997606670E+03 -0.77778140727E+02  0.68112614997E+02  0.20355539902E+03  0.90847192537E+02 0.  0.
          4    1    3    3  502    0  0.11186140701E+02  0.15817896042E+03  0.67128197797E+02  0.17219729441E+03  0.00000000000E+00 0. -1.
         -3    1    3    3    0  502 -0.73167469988E+02  0.52069793669E+03  0.33414177958E+03  0.62300124301E+03  0.00000000000E+00 0.  1.
         11    1    5    5    0    0  0.50893897867E+01 -0.21247483382E+03 -0.57240525926E+03  0.61058925451E+03  0.00000000000E+00 0. -1.
        -11    1    5    5    0    0 -0.93084127200E+02 -0.38862392256E+03 -0.85968659251E+03  0.94802650030E+03  0.00000000000E+00 0.  1.
          2    1    6    6  503    0 -0.51411092279E+01 -0.12103996023E+02 -0.11289772919E+02  0.17331955930E+02  0.00000000000E+00 0. -1.
         -2    1    6    6    0  503  0.15511717593E+03 -0.65674144705E+02  0.79402387916E+02  0.18622344309E+03  0.00000000000E+00 0.  1.
<mgrwt>
<rscale>  0 0.23692468E+04</rscale>
<asrwt>0</asrwt>
<pdfrwt beam="1">  1        2 0.27077530E+00 0.23692468E+04</pdfrwt>
<pdfrwt beam="2">  1       -1 0.12266619E+00 0.23692468E+04</pdfrwt>
<totfact> 0.54658884E+00</totfact>
</mgrwt>
</event>
<event>
12    6  0.1510140E-007  0.2931723E+04  0.7818608E-02  0.8263501E-01
          2   -1    0    0  501    0  0.00000000000E+00  0.00000000000E+00  0.18091033083E+04  0.18091033083E+04  0.00000000000E+00 0. -1.
         -1   -1    0    0    0  501 -0.00000000000E+00 -0.00000000000E+00 -0.11877431282E+04  0.11877431282E+04  0.00000000000E+00 0.  1.
         24    2    1    2    0    0 -0.81611152847E+03  0.86155051997E+03  0.88763245751E+03  0.14844263616E+04  0.85574049174E+02 0.  0.
        254    2    1    2    0    0  0.81611152847E+03 -0.86155051997E+03 -0.26627227742E+03  0.15124200750E+04  0.89900291005E+03 0.  0.
         23    2    4    4    0    0  0.64823001667E+03 -0.10532434422E+03  0.62113160296E+02  0.66626194125E+03  0.93549760446E+02 0.  0.
         23    2    4    4    0    0  0.16788151179E+03 -0.75622617575E+03 -0.32838543772E+03  0.84615813378E+03  0.89913073322E+02 0.  0.
          2    1    3    3  502    0 -0.56472891823E+03  0.59430798327E+03  0.66166828363E+03  0.10535300886E+04  0.00000000000E+00 0. -1.
         -1    1    3    3    0  502 -0.25138261023E+03  0.26724253670E+03  0.22596417388E+03  0.43089627293E+03  0.00000000000E+00 0.  1.
         11    1    5    5    0    0  0.25178467765E+03 -0.45436733024E+02  0.69952601815E+02  0.26524212921E+03  0.00000000000E+00 0. -1.
        -11    1    5    5    0    0  0.39644533903E+03 -0.59887611192E+02 -0.78394415186E+01  0.40101981205E+03  0.00000000000E+00 0.  1.
          1    1    6    6  503    0  0.16473176391E+03 -0.57634357209E+03 -0.26528222479E+03  0.65550219368E+03  0.00000000000E+00 0. -1.
         -1    1    6    6    0  503  0.31497478858E+01 -0.17988260366E+03 -0.63103212934E+02  0.19065594010E+03  0.00000000000E+00 0.  1.
<mgrwt>
<rscale>  0 0.29317231E+04</rscale>
<asrwt>0</asrwt>
<pdfrwt beam="1">  1        2 0.27832359E+00 0.29317231E+04</pdfrwt>
<pdfrwt beam="2">  1       -1 0.18272971E+00 0.29317231E+04</pdfrwt>
<totfact> 0.16622439E+00</totfact>
</mgrwt>
</event>
<event>
12    6  0.1510140E-007  0.1190590E+04  0.7818608E-02  0.9121133E-01
         -1   -1    0    0    0  501 -0.00000000000E+00  0.00000000000E+00  0.33381098250E+03  0.33381098250E+03  0.00000000000E+00 0.  1.
          2   -1    0    0  501    0  0.00000000000E+00 -0.00000000000E+00 -0.10616071382E+04  0.10616071382E+04  0.00000000000E+00 0. -1.
         24    2    1    2    0    0  0.12227180761E+03 -0.11147323788E+02  0.94075051277E+02  0.17391864277E+03  0.79516798658E+02 0.  0.
        254    2    1    2    0    0 -0.12227180761E+03  0.11147323788E+02 -0.82187120699E+03  0.12214994779E+04  0.89527316276E+03 0.  0.
         23    2    4    4    0    0  0.25864731711E+02  0.14781651960E+03 -0.94868895511E+03  0.96478246245E+03  0.90971195967E+02 0.  0.
         23    2    4    4    0    0 -0.14813653932E+03 -0.13666919581E+03  0.12681774812E+03  0.25671701548E+03  0.95906107402E+02 0.  0.
          2    1    3    3  502    0  0.51167745773E+02  0.17490758667E+02  0.20000801003E+01  0.54111599188E+02  0.00000000000E+00 0. -1.
         -1    1    3    3    0  502  0.71104061832E+02 -0.28638082454E+02  0.92074971176E+02  0.11980704359E+03  0.00000000000E+00 0.  1.
         11    1    5    5    0    0  0.24372164260E+02  0.10523275902E+03 -0.85576051973E+03  0.86255086986E+03  0.00000000000E+00 0. -1.
        -11    1    5    5    0    0  0.14925674507E+01  0.42583760577E+02 -0.92928435378E+02  0.10223159259E+03  0.00000000000E+00 0.  1.
          3    1    6    6  503    0 -0.10404256005E+03 -0.14403597271E+03  0.10986444921E+03  0.20890527264E+03  0.00000000000E+00 0. -1.
         -3    1    6    6    0  503 -0.44093979271E+02  0.73667769031E+01  0.16953298906E+02  0.47811742843E+02  0.00000000000E+00 0.  1.
<mgrwt>
<rscale>  0 0.11905900E+04</rscale>
<asrwt>0</asrwt>
<pdfrwt beam="1">  1        2 0.16332417E+00 0.11905900E+04</pdfrwt>
<pdfrwt beam="2">  1       -1 0.51355536E-01 0.11905900E+04</pdfrwt>
<totfact> 0.98822513E+01</totfact>
</mgrwt>
</event>
<event>
12    6  0.1510140E-007  0.1383853E+04  0.7818608E-02  0.8965590E-01
          2   -1    0    0  501    0  0.00000000000E+00  0.00000000000E+00  0.81419708001E+03  0.81419708001E+03  0.00000000000E+00 0. -1.
         -1   -1    0    0    0  501 -0.00000000000E+00 -0.00000000000E+00 -0.58801808761E+03  0.58801808761E+03  0.00000000000E+00 0.  1.
         24    2    1    2    0    0 -0.32908986617E+02 -0.25658575348E+03 -0.23323741282E+03  0.35738382653E+03  0.80026610826E+02 0.  0.
        254    2    1    2    0    0  0.32908986617E+02  0.25658575348E+03  0.45941640522E+03  0.10448313411E+04  0.90204758613E+03 0.  0.
         23    2    4    4    0    0  0.21471124158E+03 -0.71951491086E+02 -0.17572326810E+03  0.30172849231E+03  0.94252224320E+02 0.  0.
         23    2    4    4    0    0 -0.18180225496E+03  0.32853724456E+03  0.63513967332E+03  0.74310284878E+03  0.88377928637E+02 0.  0.
          2    1    3    3  502    0 -0.47108304034E+02 -0.91233559569E+02 -0.67757520141E+02  0.12301965793E+03  0.00000000000E+00 0. -1.
         -1    1    3    3    0  502  0.14199317418E+02 -0.16535219391E+03 -0.16547989268E+03  0.23436416860E+03  0.00000000000E+00 0.  1.
         11    1    5    5    0    0  0.13635109892E+03 -0.85471360057E+02 -0.88330618849E+02  0.18357361955E+03  0.00000000000E+00 0. -1.
        -11    1    5    5    0    0  0.78360142656E+02  0.13519868971E+02 -0.87392649250E+02  0.11815487276E+03  0.00000000000E+00 0.  1.
          3    1    6    6  503    0 -0.11390211528E+03  0.27582784076E+03  0.51795074848E+03  0.59776890807E+03  0.00000000000E+00 0. -1.
         -3    1    6    6    0  503 -0.67900139682E+02  0.52709403802E+02  0.11718892483E+03  0.14533394071E+03  0.00000000000E+00 0.  1.
<mgrwt>
<rscale>  0 0.13838535E+04</rscale>
<asrwt>0</asrwt>
<pdfrwt beam="1">  1        2 0.12526109E+00 0.13838535E+04</pdfrwt>
<pdfrwt beam="2">  1       -1 0.90464321E-01 0.13838535E+04</pdfrwt>
<totfact> 0.44718500E+01</totfact>
</mgrwt>
</event>
<event>
12    6  0.1510140E-007  0.1180832E+04  0.7818608E-02  0.9129802E-01
          2   -1    0    0  501    0  0.00000000000E+00  0.00000000000E+00  0.11367799059E+04  0.11367799059E+04  0.00000000000E+00 0. -1.
         -1   -1    0    0    0  501 -0.00000000000E+00 -0.00000000000E+00 -0.30664764443E+03  0.30664764443E+03  0.00000000000E+00 0.  1.
         24    2    1    2    0    0  0.17950215611E+03 -0.18835892526E+03  0.77036518265E+02  0.28250839575E+03  0.78589183404E+02 0.  0.
        254    2    1    2    0    0 -0.17950215611E+03  0.18835892526E+03  0.75309574316E+03  0.11609191545E+04  0.84432219930E+03 0.  0.
         23    2    4    4    0    0  0.87379208354E+02 -0.29019660687E+03  0.18575986641E+03  0.36708285043E+03  0.91618199163E+02 0.  0.
         23    2    4    4    0    0 -0.26688136447E+03  0.47855553212E+03  0.56733587674E+03  0.79383630411E+03  0.89805460048E+02 0.  0.
          2    1    3    3  502    0  0.13046193340E+03 -0.17798510984E+03  0.72016206804E+02  0.23213218095E+03  0.00000000000E+00 0. -1.
         -1    1    3    3    0  502  0.49040222712E+02 -0.10373815419E+02  0.50203114607E+01  0.50376214796E+02  0.00000000000E+00 0.  1.
         11    1    5    5    0    0  0.75446265525E+02 -0.27415425734E+03  0.13957343228E+03  0.31675454030E+03  0.00000000000E+00 0. -1.
        -11    1    5    5    0    0  0.11932942828E+02 -0.16042349528E+02  0.46186434131E+02  0.50328310131E+02  0.00000000000E+00 0.  1.
          1    1    6    6  503    0 -0.15993633039E+03  0.24657196428E+03  0.36069795321E+03  0.46527451767E+03  0.00000000000E+00 0. -1.
         -1    1    6    6    0  503 -0.10694503408E+03  0.23198356784E+03  0.20663792354E+03  0.32856178644E+03  0.00000000000E+00 0.  1.
<mgrwt>
<rscale>  0 0.11808317E+04</rscale>
<asrwt>0</asrwt>
<pdfrwt beam="1">  1        2 0.17488921E+00 0.11808317E+04</pdfrwt>
<pdfrwt beam="2">  1       -1 0.47176561E-01 0.11808317E+04</pdfrwt>
<totfact> 0.10436618E+02</totfact>
</mgrwt>
</event>
<event>
12    6  0.1510140E-007  0.1322591E+04  0.7818608E-02  0.9011840E-01
         -1   -1    0    0    0  501 -0.00000000000E+00  0.00000000000E+00  0.59563291113E+03  0.59563291113E+03  0.00000000000E+00 0.  1.
          4   -1    0    0  501    0  0.00000000000E+00 -0.00000000000E+00 -0.73419623375E+03  0.73419623375E+03  0.00000000000E+00 0. -1.
         24    2    1    2    0    0 -0.35141030859E+03 -0.39720299426E+02  0.14663308741E+02  0.36235218322E+03  0.77570515597E+02 0.  0.
        254    2    1    2    0    0  0.35141030859E+03  0.39720299426E+02 -0.15322663136E+03  0.96747696166E+03  0.88739301531E+03 0.  0.
         23    2    4    4    0    0 -0.27155563962E+03 -0.63945029288E+02  0.49913511376E+02  0.29790486307E+03  0.91785165705E+02 0.  0.
         23    2    4    4    0    0  0.62296594821E+03  0.10366532871E+03 -0.20314014273E+03  0.66957209859E+03  0.90707246777E+02 0.  0.
          4    1    3    3  502    0 -0.39629389861E+01 -0.14649085102E+01 -0.11080219179E+02  0.11858418925E+02  0.00000000000E+00 0. -1.
         -3    1    3    3    0  502 -0.34744736961E+03 -0.38255390916E+02  0.25743527919E+02  0.35049376430E+03  0.00000000000E+00 0.  1.
         11    1    5    5    0    0 -0.12818987155E+03 -0.75283939562E+02  0.38919010494E+02  0.15367174139E+03  0.00000000000E+00 0. -1.
        -11    1    5    5    0    0 -0.14336576806E+03  0.11338910274E+02  0.10994500881E+02  0.14423312168E+03  0.00000000000E+00 0.  1.
          2    1    6    6  503    0  0.43325062143E+03  0.68427067871E+02 -0.96522168211E+02  0.44911567947E+03  0.00000000000E+00 0. -1.
         -2    1    6    6    0  503  0.18971532678E+03  0.35238260844E+02 -0.10661797452E+03  0.22045641912E+03  0.00000000000E+00 0.  1.
<mgrwt>
<rscale>  0 0.13225905E+04</rscale>
<asrwt>0</asrwt>
<pdfrwt beam="1">  1        4 0.11295327E+00 0.13225905E+04</pdfrwt>
<pdfrwt beam="2">  1       -1 0.91635832E-01 0.13225905E+04</pdfrwt>
<totfact> 0.28837443E+00</totfact>
</mgrwt>
</event>
<event>
12    6  0.1510140E-007  0.1706021E+04  0.7818608E-02  0.8757938E-01
         -1   -1    0    0    0  501 -0.00000000000E+00  0.00000000000E+00  0.60925324196E+03  0.60925324196E+03  0.00000000000E+00 0.  1.
          2   -1    0    0  501    0  0.00000000000E+00 -0.00000000000E+00 -0.11942925185E+04  0.11942925185E+04  0.00000000000E+00 0. -1.
         24    2    1    2    0    0  0.44356871568E+01 -0.20860318132E+03  0.39657602095E+03  0.45543481251E+03  0.81322601274E+02 0.  0.
        254    2    1    2    0    0 -0.44356871568E+01  0.20860318132E+03 -0.98161529746E+03  0.13481109479E+04  0.90016641412E+03 0.  0.
         23    2    4    4    0    0 -0.14919969401E+03 -0.16855233547E+03 -0.89246936492E+03  0.92482462451E+03  0.90158639551E+02 0.  0.
         23    2    4    4    0    0  0.14476400686E+03  0.37715551679E+03 -0.89145932537E+02  0.42328632341E+03  0.89562340150E+02 0.  0.
          4    1    3    3  502    0 -0.28825737074E+02 -0.27769850638E+02  0.74458816804E+02  0.84535218236E+02  0.00000000000E+00 0. -1.
         -3    1    3    3    0  502  0.33261424231E+02 -0.18083333068E+03  0.32211720415E+03  0.37089959428E+03  0.00000000000E+00 0.  1.
         11    1    5    5    0    0 -0.14435387397E+03 -0.17684429461E+03 -0.80228110570E+03  0.83412644007E+03  0.00000000000E+00 0. -1.
        -11    1    5    5    0    0 -0.48458200438E+01  0.82919591392E+01 -0.90188259225E+02  0.90698184437E+02  0.00000000000E+00 0.  1.
          4    1    6    6  503    0  0.12582412717E+03  0.34374531831E+03 -0.10637563022E+03  0.38119329682E+03  0.00000000000E+00 0. -1.
         -4    1    6    6    0  503  0.18939879684E+02  0.33410198478E+02  0.17229697685E+02  0.42093026585E+02  0.00000000000E+00 0.  1.
<mgrwt>
<rscale>  0 0.17060206E+04</rscale>
<asrwt>0</asrwt>
<pdfrwt beam="1">  1        2 0.18373731E+00 0.17060206E+04</pdfrwt>
<pdfrwt beam="2">  1       -1 0.93731268E-01 0.17060206E+04</pdfrwt>
<totfact> 0.22851321E+01</totfact>
</mgrwt>
</event>
<event>
12    6  0.1510140E-007  0.1139742E+04  0.7818608E-02  0.9167299E-01
         -1   -1    0    0    0  501 -0.00000000000E+00  0.00000000000E+00  0.16291374943E+03  0.16291374943E+03  0.00000000000E+00 0.  1.
          2   -1    0    0  501    0  0.00000000000E+00 -0.00000000000E+00 -0.19934054895E+04  0.19934054895E+04  0.00000000000E+00 0. -1.
         24    2    1    2    0    0 -0.97588138631E+02  0.24887723545E+02 -0.67418468720E+03  0.68630289993E+03  0.79648191528E+02 0.  0.
        254    2    1    2    0    0  0.97588138631E+02 -0.24887723545E+02 -0.11563070529E+04  0.14700163390E+04  0.90208602297E+03 0.  0.
         23    2    4    4    0    0  0.29930385786E+03  0.16737692350E+03 -0.11196415527E+04  0.11744961210E+04  0.90808027590E+02 0.  0.
         23    2    4    4    0    0 -0.20171571923E+03 -0.19226464705E+03 -0.36665500185E+02  0.29552021800E+03  0.91284798589E+02 0.  0.
          4    1    3    3  502    0 -0.28588132301E+02  0.44963672594E+02 -0.36554207425E+03  0.36940495559E+03  0.00000000000E+00 0. -1.
         -3    1    3    3    0  502 -0.69000006330E+02 -0.20075949049E+02 -0.30864261294E+03  0.31689794434E+03  0.00000000000E+00 0.  1.
         11    1    5    5    0    0  0.20764064227E+03  0.96657771059E+02 -0.60276153893E+03  0.64480914529E+03  0.00000000000E+00 0.  1.
        -11    1    5    5    0    0  0.91663215593E+02  0.70719152446E+02 -0.51688001379E+03  0.52968697575E+03  0.00000000000E+00 0. -1.
          3    1    6    6  503    0 -0.14158187056E+03 -0.11558770057E+03 -0.65085908210E+02  0.19401576750E+03  0.00000000000E+00 0. -1.
         -3    1    6    6    0  503 -0.60133848676E+02 -0.76676946485E+02  0.28420408025E+02  0.10150445050E+03  0.00000000000E+00 0.  1.
<mgrwt>
<rscale>  0 0.11397424E+04</rscale>
<asrwt>0</asrwt>
<pdfrwt beam="1">  1        2 0.30667778E+00 0.11397424E+04</pdfrwt>
<pdfrwt beam="2">  1       -1 0.25063653E-01 0.11397424E+04</pdfrwt>
<totfact> 0.10621239E+02</totfact>
</mgrwt>
</event>
<event>
12    6  0.1510140E-007  0.1561248E+04  0.7818608E-02  0.8844715E-01
          2   -1    0    0  501    0  0.00000000000E+00  0.00000000000E+00  0.68536859221E+03  0.68536859221E+03  0.00000000000E+00 0. -1.
         -1   -1    0    0    0  501 -0.00000000000E+00 -0.00000000000E+00 -0.88911828297E+03  0.88911828297E+03  0.00000000000E+00 0.  1.
         24    2    1    2    0    0  0.13832183413E+03  0.29667268295E+03 -0.46549744703E+03  0.57461640444E+03  0.79677653451E+02 0.  0.
        254    2    1    2    0    0 -0.13832183413E+03 -0.29667268295E+03  0.26174775627E+03  0.99987047074E+03  0.90778932563E+03 0.  0.
         23    2    4    4    0    0 -0.38647158967E+03 -0.48589182729E+03  0.93196015955E+02  0.63397868007E+03  0.88274072850E+02 0.  0.
         23    2    4    4    0    0  0.24814975554E+03  0.18921914434E+03  0.16855174031E+03  0.36589179067E+03  0.89916225199E+02 0.  0.
          4    1    3    3  502    0  0.76538671220E+02  0.20388143347E+03 -0.24679208739E+03  0.32913848378E+03  0.00000000000E+00 0. -1.
         -3    1    3    3    0  502  0.61783162910E+02  0.92791249479E+02 -0.21870535963E+03  0.24547792066E+03  0.00000000000E+00 0.  1.
         11    1    5    5    0    0 -0.83339606003E+02 -0.60932838481E+02  0.33717817555E+02  0.10860567184E+03  0.00000000000E+00 0. -1.
        -11    1    5    5    0    0 -0.30313198367E+03 -0.42495898881E+03  0.59478198400E+02  0.52537300823E+03  0.00000000000E+00 0.  1.
          1    1    6    6  503    0 -0.53594668797E+01  0.52026514803E+01  0.15586985243E+02  0.17284258058E+02  0.00000000000E+00 0. -1.
         -1    1    6    6    0  503  0.25350922242E+03  0.18401649286E+03  0.15296475507E+03  0.34860753261E+03  0.00000000000E+00 0.  1.
<mgrwt>
<rscale>  0 0.15612479E+04</rscale>
<asrwt>0</asrwt>
<pdfrwt beam="1">  1        2 0.10544132E+00 0.15612479E+04</pdfrwt>
<pdfrwt beam="2">  1       -1 0.13678743E+00 0.15612479E+04</pdfrwt>
<totfact> 0.20588565E+01</totfact>
</mgrwt>
</event>
<event>
12    6  0.1510140E-007  0.1364940E+04  0.7818608E-02  0.8979595E-01
         -1   -1    0    0    0  501 -0.00000000000E+00  0.00000000000E+00  0.78249020142E+03  0.78249020142E+03  0.00000000000E+00 0.  1.
          2   -1    0    0  501    0  0.00000000000E+00 -0.00000000000E+00 -0.59523491250E+03  0.59523491250E+03  0.00000000000E+00 0. -1.
         24    2    1    2    0    0 -0.12340606649E+03  0.31664287165E+03  0.24068153039E+03  0.42379667798E+03  0.78640064753E+02 0.  0.
        254    2    1    2    0    0  0.12340606649E+03 -0.31664287165E+03 -0.53426241470E+02  0.95392843594E+03  0.88973778846E+03 0.  0.
         23    2    4    4    0    0  0.87310194412E+02 -0.54733366201E+03 -0.26886367547E+03  0.62286935806E+03  0.92094264736E+02 0.  0.
         23    2    4    4    0    0  0.36095872079E+02  0.23069079036E+03  0.21543743400E+03  0.33105907789E+03  0.93089593088E+02 0.  0.
          2    1    3    3  502    0 -0.23753762048E+02  0.10374921994E+03  0.36744293521E+02  0.11259789054E+03  0.00000000000E+00 0. -1.
         -1    1    3    3    0  502 -0.99652304444E+02  0.21289365171E+03  0.20393723687E+03  0.31119878743E+03  0.00000000000E+00 0.  1.
         11    1    5    5    0    0  0.32785135338E+02 -0.12246648017E+03 -0.10366537188E+03  0.16376633717E+03  0.00000000000E+00 0. -1.
        -11    1    5    5    0    0  0.54525059074E+02 -0.42486718184E+03 -0.16519830359E+03  0.45910302088E+03  0.00000000000E+00 0.  1.
          1    1    6    6  503    0  0.44228510375E+02  0.92206917447E+02  0.13932356039E+03  0.17282746088E+03  0.00000000000E+00 0. -1.
         -1    1    6    6    0  503 -0.81326382958E+01  0.13848387292E+03  0.76113873613E+02  0.15823161701E+03  0.00000000000E+00 0.  1.
<mgrwt>
<rscale>  0 0.13649403E+04</rscale>
<asrwt>0</asrwt>
<pdfrwt beam="1">  1        2 0.91574603E-01 0.13649403E+04</pdfrwt>
<pdfrwt beam="2">  1       -1 0.12038311E+00 0.13649403E+04</pdfrwt>
<totfact> 0.34313591E+01</totfact>
</mgrwt>
</event>
<event>
12    6  0.1510140E-007  0.1505327E+04  0.7818608E-02  0.8880918E-01
          2   -1    0    0  501    0  0.00000000000E+00  0.00000000000E+00  0.57263001648E+03  0.57263001648E+03  0.00000000000E+00 0. -1.
         -1   -1    0    0    0  501 -0.00000000000E+00 -0.00000000000E+00 -0.98929890898E+03  0.98929890898E+03  0.00000000000E+00 0.  1.
         24    2    1    2    0    0 -0.51000561532E+02  0.43413239494E+03 -0.30359362455E+03  0.53835780391E+03  0.81166757697E+02 0.  0.
        254    2    1    2    0    0  0.51000561532E+02 -0.43413239494E+03 -0.11307526795E+03  0.10235711216E+04  0.91860755007E+03 0.  0.
         23    2    4    4    0    0  0.40512476994E+03 -0.49481183005E+03 -0.79573124624E+02  0.65069170051E+03  0.90016557205E+02 0.  0.
         23    2    4    4    0    0 -0.35412420841E+03  0.60679435114E+02 -0.33502143325E+02  0.37287942104E+03  0.93971911771E+02 0.  0.
          4    1    3    3  502    0 -0.39804131637E+02  0.11184758410E+03 -0.11225115363E+03  0.16338473753E+03  0.00000000000E+00 0. -1.
         -1    1    3    3    0  502 -0.11196429895E+02  0.32228481083E+03 -0.19134247091E+03  0.37497306638E+03  0.00000000000E+00 0.  1.
         11    1    5    5    0    0  0.38392383821E+03 -0.42587157706E+03 -0.76923596946E+02  0.57851651097E+03  0.00000000000E+00 0.  1.
        -11    1    5    5    0    0  0.21200931731E+02 -0.68940252989E+02 -0.26495276781E+01  0.72175189541E+02  0.00000000000E+00 0. -1.
          1    1    6    6  503    0 -0.22730818151E+03  0.84043648267E+02 -0.18334821881E+02  0.24304014049E+03  0.00000000000E+00 0. -1.
         -1    1    6    6    0  503 -0.12681602690E+03 -0.23364213153E+02 -0.15167321443E+02  0.12983928055E+03  0.00000000000E+00 0.  1.
<mgrwt>
<rscale>  0 0.15053269E+04</rscale>
<asrwt>0</asrwt>
<pdfrwt beam="1">  1        2 0.88096926E-01 0.15053269E+04</pdfrwt>
<pdfrwt beam="2">  1       -1 0.15219983E+00 0.15053269E+04</pdfrwt>
<totfact> 0.19424545E+01</totfact>
</mgrwt>
</event>
<event>
12    6  0.1510140E-007  0.1652499E+04  0.7818608E-02  0.8788929E-01
          2   -1    0    0  501    0  0.00000000000E+00  0.00000000000E+00  0.15957264625E+04  0.15957264625E+04  0.00000000000E+00 0. -1.
         -1   -1    0    0    0  501 -0.00000000000E+00 -0.00000000000E+00 -0.42782303345E+03  0.42782303345E+03  0.00000000000E+00 0.  1.
         24    2    1    2    0    0 -0.16860427972E+03 -0.26150081285E+03  0.10081373272E+04  0.10580365922E+04  0.79312557091E+02 0.  0.
        254    2    1    2    0    0  0.16860427972E+03  0.26150081285E+03  0.15976610184E+03  0.96551290372E+03  0.89993326513E+03 0.  0.
         23    2    4    4    0    0 -0.18464387402E+03  0.41544473622E+03 -0.12010227472E+03  0.48037560996E+03  0.98226682641E+02 0.  0.
         23    2    4    4    0    0  0.35324815374E+03 -0.15394392337E+03  0.27986837656E+03  0.48513729376E+03  0.92460239720E+02 0.  0.
          2    1    3    3  502    0 -0.15573090993E+03 -0.17845884379E+03  0.72718991798E+03  0.76479072434E+03  0.00000000000E+00 0. -1.
         -1    1    3    3    0  502 -0.12873369793E+02 -0.83041969063E+02  0.28094740924E+03  0.29324586789E+03  0.00000000000E+00 0.  1.
         11    1    5    5    0    0 -0.14852880573E+03  0.35116568729E+03 -0.13625072427E+03  0.40489801917E+03  0.00000000000E+00 0.  1.
        -11    1    5    5    0    0 -0.36115068292E+02  0.64279048931E+02  0.16148449545E+02  0.75477590793E+02  0.00000000000E+00 0. -1.
          4    1    6    6  503    0  0.52765281152E+02 -0.61673953563E+02  0.45487658072E+02  0.93042885166E+02  0.00000000000E+00 0. -1.
         -4    1    6    6    0  503  0.30048287259E+03 -0.92269969808E+02  0.23438071849E+03  0.39209440859E+03  0.00000000000E+00 0.  1.
<mgrwt>
<rscale>  0 0.16524994E+04</rscale>
<asrwt>0</asrwt>
<pdfrwt beam="1">  1        2 0.24549638E+00 0.16524994E+04</pdfrwt>
<pdfrwt beam="2">  1       -1 0.65818929E-01 0.16524994E+04</pdfrwt>
<totfact> 0.28547532E+01</totfact>
</mgrwt>
</event>
<event>
12    6  0.1510140E-007  0.2533666E+04  0.7818608E-02  0.8391089E-01
          2   -1    0    0  501    0  0.00000000000E+00  0.00000000000E+00  0.11298928293E+04  0.11298928293E+04  0.00000000000E+00 0. -1.
         -1   -1    0    0    0  501 -0.00000000000E+00 -0.00000000000E+00 -0.14203698705E+04  0.14203698705E+04  0.00000000000E+00 0.  1.
         24    2    1    2    0    0  0.57130511829E+03 -0.56252863000E+02 -0.10752751095E+04  0.12215462494E+04  0.80029717266E+02 0.  0.
        254    2    1    2    0    0 -0.57130511829E+03  0.56252863000E+02  0.78479806821E+03  0.13287164504E+04  0.90555257994E+03 0.  0.
         23    2    4    4    0    0  0.20094458260E+03 -0.13908263971E+03  0.11868372437E+03  0.28637359708E+03  0.90561055238E+02 0.  0.
         23    2    4    4    0    0 -0.77224970090E+03  0.19533550271E+03  0.66611434383E+03  0.10423428534E+04  0.90800582285E+02 0.  0.
          4    1    3    3  502    0  0.11886656196E+02  0.10567023101E+02 -0.23420936304E+02  0.28310684027E+02  0.00000000000E+00 0. -1.
         -3    1    3    3    0  502  0.55941846210E+03 -0.66819886101E+02 -0.10518541731E+04  0.11932355654E+04  0.00000000000E+00 0.  1.
         11    1    5    5    0    0  0.82880202517E+02 -0.73817174970E+02  0.10146368891E+03  0.15037613992E+03  0.00000000000E+00 0. -1.
        -11    1    5    5    0    0  0.11806438008E+03 -0.65265464744E+02  0.17220035468E+02  0.13599745716E+03  0.00000000000E+00 0.  1.
          2    1    6    6  503    0 -0.16209306475E+03  0.58706518208E+02  0.10262040181E+03  0.20062792375E+03  0.00000000000E+00 0. -1.
         -2    1    6    6    0  503 -0.61015663614E+03  0.13662898451E+03  0.56349394202E+03  0.84171492961E+03  0.00000000000E+00 0.  1.
<mgrwt>
<rscale>  0 0.25336659E+04</rscale>
<asrwt>0</asrwt>
<pdfrwt beam="1">  1        2 0.17382967E+00 0.25336659E+04</pdfrwt>
<pdfrwt beam="2">  1       -1 0.21851844E+00 0.25336659E+04</pdfrwt>
<totfact> 0.23837600E+00</totfact>
</mgrwt>
</event>
<event>
12    6  0.1510140E-007  0.1986229E+04  0.7818608E-02  0.8613086E-01
         -1   -1    0    0    0  501 -0.00000000000E+00  0.00000000000E+00  0.50889595828E+03  0.50889595828E+03  0.00000000000E+00 0.  1.
          2   -1    0    0  501    0  0.00000000000E+00 -0.00000000000E+00 -0.19380702072E+04  0.19380702072E+04  0.00000000000E+00 0. -1.
         24    2    1    2    0    0 -0.25149362794E+03  0.39812288364E+03  0.20191994664E+03  0.51907099494E+03  0.83139386354E+02 0.  0.
        254    2    1    2    0    0  0.25149362794E+03 -0.39812288364E+03 -0.16310941955E+04  0.19278951705E+04  0.91354290453E+03 0.  0.
         23    2    4    4    0    0  0.47193466181E+03  0.54524151971E+02 -0.55354589818E+03  0.73507995957E+03  0.90742919325E+02 0.  0.
         23    2    4    4    0    0 -0.22044103387E+03 -0.45264703561E+03 -0.10775482974E+04  0.11928152109E+04  0.90632257301E+02 0.  0.
          2    1    3    3  502    0 -0.22321597128E+03  0.36247890254E+03  0.15323436696E+03  0.45243463156E+03  0.00000000000E+00 0. -1.
         -1    1    3    3    0  502 -0.28277656660E+02  0.35643981099E+02  0.48685579683E+02  0.66636363375E+02  0.00000000000E+00 0.  1.
         11    1    5    5    0    0  0.23136559004E+03  0.35342864252E+02 -0.34038802725E+03  0.41308977644E+03  0.00000000000E+00 0. -1.
        -11    1    5    5    0    0  0.24056907177E+03  0.19181287719E+02 -0.21315787093E+03  0.32199018313E+03  0.00000000000E+00 0.  1.
          1    1    6    6  503    0 -0.22066734051E+02 -0.43704657685E+02 -0.54015963674E+02  0.72902415507E+02  0.00000000000E+00 0. -1.
         -1    1    6    6    0  503 -0.19837429982E+03 -0.40894237792E+03 -0.10235323337E+04  0.11199127954E+04  0.00000000000E+00 0.  1.
<mgrwt>
<rscale>  0 0.19862287E+04</rscale>
<asrwt>0</asrwt>
<pdfrwt beam="1">  1        2 0.29816465E+00 0.19862287E+04</pdfrwt>
<pdfrwt beam="2">  1       -1 0.78291685E-01 0.19862287E+04</pdfrwt>
<totfact> 0.12508717E+01</totfact>
</mgrwt>
</event>
<event>
12    6  0.1720362E-007  0.1555859E+04  0.7818608E-02  0.8848134E-01
         -1   -1    0    0    0  501 -0.00000000000E+00  0.00000000000E+00  0.25553005083E+03  0.25553005083E+03  0.00000000000E+00 0.  1.
          2   -1    0    0  501    0  0.00000000000E+00 -0.00000000000E+00 -0.23683085371E+04  0.23683085371E+04  0.00000000000E+00 0. -1.
         24    2    1    2    0    0  0.34377327069E+03 -0.12805279066E+02 -0.12136024239E+04  0.12635847051E+04  0.73969094354E+02 0.  0.
        254    2    1    2    0    0 -0.34377327069E+03  0.12805279066E+02 -0.89917606238E+03  0.13602538828E+04  0.96095213084E+03 0.  0.
         23    2    4    4    0    0 -0.45305557332E+03  0.39608538142E+03 -0.48210276949E+03  0.77630027407E+03  0.89866864169E+02 0.  0.
         23    2    4    4    0    0  0.10928230264E+03 -0.38328010235E+03 -0.41707329289E+03  0.58395360876E+03  0.90583812078E+02 0.  0.
          4    1    3    3  502    0  0.31516372248E+03  0.50595543348E+00 -0.11524969110E+04  0.11948127710E+04  0.00000000000E+00 0. -1.
         -3    1    3    3    0  502  0.28609548203E+02 -0.13311234500E+02 -0.61105512938E+02  0.68771934128E+02  0.00000000000E+00 0.  1.
         11    1    5    5    0    0 -0.42583665217E+03  0.38272404883E+03 -0.47769749122E+03  0.74566040863E+03  0.00000000000E+00 0.  1.
        -11    1    5    5    0    0 -0.27218921153E+02  0.13361332587E+02 -0.44052782709E+01  0.30639865435E+02  0.00000000000E+00 0. -1.
          3    1    6    6  503    0  0.12105041044E+03 -0.31687425087E+03 -0.32457279478E+03  0.46947842532E+03  0.00000000000E+00 0.  1.
         -3    1    6    6    0  503 -0.11768107800E+02 -0.66405851485E+02 -0.92500498107E+02  0.11447518344E+03  0.00000000000E+00 0. -1.
<mgrwt>
<rscale>  0 0.15558586E+04</rscale>
<asrwt>0</asrwt>
<pdfrwt beam="1">  1        2 0.36435515E+00 0.15558586E+04</pdfrwt>
<pdfrwt beam="2">  1       -1 0.39312316E-01 0.15558586E+04</pdfrwt>
<totfact> 0.28604959E+01</totfact>
</mgrwt>
</event>
<event>
12    6  0.1510140E-007  0.1734834E+04  0.7818608E-02  0.8741743E-01
          2   -1    0    0  501    0  0.00000000000E+00  0.00000000000E+00  0.21791620629E+04  0.21791620629E+04  0.00000000000E+00 0. -1.
         -1   -1    0    0    0  501 -0.00000000000E+00 -0.00000000000E+00 -0.34527591921E+03  0.34527591921E+03  0.00000000000E+00 0.  1.
         24    2    1    2    0    0 -0.39423796402E+03 -0.79350663771E+02  0.13778513893E+04  0.14375683736E+04  0.80051718461E+02 0.  0.
        254    2    1    2    0    0  0.39423796402E+03  0.79350663771E+02  0.45603475442E+03  0.10868696086E+04  0.90088720084E+03 0.  0.
         23    2    4    4    0    0 -0.13073728094E+03  0.89313738999E+02  0.51884668683E+03  0.55003174593E+03  0.90905756125E+02 0.  0.
         23    2    4    4    0    0  0.52497524496E+03 -0.99630752279E+01 -0.62811932408E+02  0.53683786262E+03  0.92473137736E+02 0.  0.
          2    1    3    3  502    0 -0.32100184707E+03 -0.54914081823E+02  0.12055047781E+04  0.12487191487E+04  0.00000000000E+00 0. -1.
         -1    1    3    3    0  502 -0.73236116957E+02 -0.24436581948E+02  0.17234661117E+03  0.18884922490E+03  0.00000000000E+00 0.  1.
         11    1    5    5    0    0 -0.88075210918E+01  0.31299719085E+02  0.21617378659E+03  0.21860546849E+03  0.00000000000E+00 0.  1.
        -11    1    5    5    0    0 -0.12192975984E+03  0.58014019914E+02  0.30267290024E+03  0.33142627744E+03  0.00000000000E+00 0. -1.
          2    1    6    6  503    0  0.38531515221E+03 -0.16724871532E+02 -0.54805900145E+01  0.38571689711E+03  0.00000000000E+00 0. -1.
         -2    1    6    6    0  503  0.13966009275E+03  0.67617963039E+01 -0.57331342394E+02  0.15112096551E+03  0.00000000000E+00 0.  1.
<mgrwt>
<rscale>  0 0.17348339E+04</rscale>
<asrwt>0</asrwt>
<pdfrwt beam="1">  1        2 0.33525569E+00 0.17348339E+04</pdfrwt>
<pdfrwt beam="2">  1       -1 0.53119374E-01 0.17348339E+04</pdfrwt>
<totfact> 0.20497746E+01</totfact>
</mgrwt>
</event>
<event>
12    6  0.1510140E-007  0.1968715E+04  0.7818608E-02  0.8621389E-01
         -1   -1    0    0    0  501 -0.00000000000E+00  0.00000000000E+00  0.34631365860E+03  0.34631365860E+03  0.00000000000E+00 0.  1.
          2   -1    0    0  501    0  0.00000000000E+00 -0.00000000000E+00 -0.27979249159E+04  0.27979249159E+04  0.00000000000E+00 0. -1.
         24    2    1    2    0    0  0.37281959728E+03 -0.26591105432E+03 -0.19704243817E+04  0.20245369330E+04  0.80463708115E+02 0.  0.
        254    2    1    2    0    0 -0.37281959728E+03  0.26591105432E+03 -0.48118687557E+03  0.11197016414E+04  0.90138106020E+03 0.  0.
         23    2    4    4    0    0  0.12572988861E+03  0.39207934302E+03 -0.19705719697E+02  0.42240448914E+03  0.92211826507E+02 0.  0.
         23    2    4    4    0    0 -0.49854948589E+03 -0.12616828869E+03 -0.46148115587E+03  0.69729715229E+03  0.93746650176E+02 0.  0.
          4    1    3    3  502    0  0.18479444312E+03 -0.17785679071E+03 -0.11492736586E+04  0.11775448894E+04  0.00000000000E+00 0. -1.
         -3    1    3    3    0  502  0.18802515415E+03 -0.88054263608E+02 -0.82115072307E+03  0.84699204361E+03  0.00000000000E+00 0.  1.
         11    1    5    5    0    0  0.30798962887E+01  0.14191561667E+03 -0.22837556549E+02  0.14377441359E+03  0.00000000000E+00 0. -1.
        -11    1    5    5    0    0  0.12264999232E+03  0.25016372635E+03  0.31318368515E+01  0.27863007555E+03  0.00000000000E+00 0.  1.
          3    1    6    6  503    0 -0.88301894420E+01  0.10626302702E+02 -0.17314989457E+02  0.22151736153E+02  0.00000000000E+00 0. -1.
         -3    1    6    6    0  503 -0.48971929645E+03 -0.13679459140E+03 -0.44416616642E+03  0.67514541614E+03  0.00000000000E+00 0.  1.
<mgrwt>
<rscale>  0 0.19687149E+04</rscale>
<asrwt>0</asrwt>
<pdfrwt beam="1">  1        2 0.43044999E+00 0.19687149E+04</pdfrwt>
<pdfrwt beam="2">  1       -1 0.53279023E-01 0.19687149E+04</pdfrwt>
<totfact> 0.87511614E+00</totfact>
</mgrwt>
</event>
<event>
12    6  0.1510140E-007  0.1251869E+04  0.7818608E-02  0.9068629E-01
         -3   -1    0    0    0  501 -0.00000000000E+00  0.00000000000E+00  0.83763069555E+03  0.83763069555E+03  0.00000000000E+00 0.  1.
          2   -1    0    0  501    0  0.00000000000E+00 -0.00000000000E+00 -0.46774105124E+03  0.46774105124E+03  0.00000000000E+00 0. -1.
         24    2    1    2    0    0  0.93806866424E+02  0.11951589698E+03 -0.18071211986E+03  0.24876459212E+03  0.78378403975E+02 0.  0.
        254    2    1    2    0    0 -0.93806866424E+02 -0.11951589698E+03  0.55060176417E+03  0.10566071547E+04  0.88891653083E+03 0.  0.
         23    2    4    4    0    0 -0.40465753735E+03 -0.21144638518E+03  0.70201225259E+02  0.47001858930E+03  0.86786899497E+02 0.  0.
         23    2    4    4    0    0  0.31085067092E+03  0.91930488198E+02  0.48040053891E+03  0.58658856537E+03  0.90675867603E+02 0.  0.
          2    1    3    3  502    0  0.29710442966E+02  0.91439508740E+02 -0.74761672679E+02  0.12179163305E+03  0.00000000000E+00 0. -1.
         -1    1    3    3    0  502  0.64096423458E+02  0.28076388237E+02 -0.10595044718E+03  0.12697295906E+03  0.00000000000E+00 0.  1.
         11    1    5    5    0    0 -0.12881785332E+03 -0.11454707769E+03  0.26583017863E+02  0.17441825930E+03  0.00000000000E+00 0.  1.
        -11    1    5    5    0    0 -0.27583968403E+03 -0.96899307490E+02  0.43618207395E+02  0.29560033000E+03  0.00000000000E+00 0. -1.
          1    1    6    6  503    0  0.31047627887E+03  0.80742989760E+02  0.47708687606E+03  0.57491463492E+03  0.00000000000E+00 0. -1.
         -1    1    6    6    0  503  0.37439205479E+00  0.11187498438E+02  0.33136628496E+01  0.11673930452E+02  0.00000000000E+00 0.  1.
<mgrwt>
<rscale>  0 0.12518694E+04</rscale>
<asrwt>0</asrwt>
<pdfrwt beam="1">  1        2 0.71960162E-01 0.12518694E+04</pdfrwt>
<pdfrwt beam="2">  1       -3 0.12886626E+00 0.12518694E+04</pdfrwt>
<totfact> 0.19479722E+01</totfact>
</mgrwt>
</event>
<event>
12    6  0.1510140E-007  0.1479012E+04  0.7818608E-02  0.8898531E-01
         -1   -1    0    0    0  501 -0.00000000000E+00  0.00000000000E+00  0.56128320178E+03  0.56128320178E+03  0.00000000000E+00 0.  1.
          2   -1    0    0  501    0  0.00000000000E+00 -0.00000000000E+00 -0.97431960195E+03  0.97431960195E+03  0.00000000000E+00 0. -1.
         24    2    1    2    0    0  0.38118350976E+03  0.31725155814E+03 -0.16959771967E+03  0.53017910938E+03  0.79856635659E+02 0.  0.
        254    2    1    2    0    0 -0.38118350976E+03 -0.31725155814E+03 -0.24343868051E+03  0.10054236943E+04  0.84003868645E+03 0.  0.
         23    2    4    4    0    0  0.12779512128E+03 -0.39227350329E+03 -0.23414165644E+03  0.48312023555E+03  0.91502744863E+02 0.  0.
         23    2    4    4    0    0 -0.50897863104E+03  0.75021945154E+02 -0.92970240729E+01  0.52230345879E+03  0.89593131983E+02 0.  0.
          2    1    3    3  502    0  0.38350524415E+03  0.31527522857E+03 -0.17287767024E+03  0.52570089491E+03  0.00000000000E+00 0. -1.
         -1    1    3    3    0  502 -0.23217343920E+01  0.19763295677E+01  0.32799505706E+01  0.44782144760E+01  0.00000000000E+00 0.  1.
         11    1    5    5    0    0  0.11517251911E+03 -0.39031221232E+03 -0.21540356138E+03  0.46044220756E+03  0.00000000000E+00 0.  1.
        -11    1    5    5    0    0  0.12622602166E+02 -0.19612909744E+01 -0.18738095053E+02  0.22678028000E+02  0.00000000000E+00 0. -1.
          4    1    6    6  503    0 -0.31622423532E+03  0.57400688327E+02 -0.47876095663E+02  0.32493803495E+03  0.00000000000E+00 0.  1.
         -4    1    6    6    0  503 -0.19275439572E+03  0.17621256827E+02  0.38579071590E+02  0.19736542384E+03  0.00000000000E+00 0. -1.
<mgrwt>
<rscale>  0 0.14790121E+04</rscale>
<asrwt>0</asrwt>
<pdfrwt beam="1">  1        2 0.14989532E+00 0.14790121E+04</pdfrwt>
<pdfrwt beam="2">  1       -1 0.86351262E-01 0.14790121E+04</pdfrwt>
<totfact> 0.38238235E+01</totfact>
</mgrwt>
</event>
<event>
12    6  0.1510140E-007  0.1831860E+04  0.7818608E-02  0.8689538E-01
          2   -1    0    0  501    0  0.00000000000E+00  0.00000000000E+00  0.96152622781E+03  0.96152622781E+03  0.00000000000E+00 0. -1.
         -1   -1    0    0    0  501 -0.00000000000E+00 -0.00000000000E+00 -0.87249581096E+03  0.87249581096E+03  0.00000000000E+00 0.  1.
         24    2    1    2    0    0 -0.15741957400E+03 -0.66593319682E+03  0.36583056950E+02  0.69018050464E+03  0.82236634286E+02 0.  0.
        254    2    1    2    0    0  0.15741957400E+03  0.66593319682E+03  0.52447359894E+02  0.11438415341E+04  0.91508184593E+03 0.  0.
         23    2    4    4    0    0 -0.25178811250E+03 -0.50811935055E+01  0.20646766834E+03  0.33774575704E+03  0.89555715630E+02 0.  0.
         23    2    4    4    0    0  0.40920768650E+03  0.67101439033E+03 -0.15402030845E+03  0.80609577710E+03  0.91416102122E+02 0.  0.
          2    1    3    3  502    0  0.27900025337E+01 -0.12506474041E+03  0.85144403730E+01  0.12538528264E+03  0.00000000000E+00 0. -1.
         -1    1    3    3    0  502 -0.16020957653E+03 -0.54086845641E+03  0.28068616577E+02  0.56479522199E+03  0.00000000000E+00 0.  1.
         11    1    5    5    0    0 -0.24153954425E+03  0.16960708043E+02  0.19488030648E+03  0.31081723071E+03  0.00000000000E+00 0.  1.
        -11    1    5    5    0    0 -0.10248568245E+02 -0.22041901549E+02  0.11587361867E+02  0.26928526324E+02  0.00000000000E+00 0. -1.
          2    1    6    6  503    0  0.14771086552E+02  0.70188787837E+02 -0.37412015227E+01  0.71823725362E+02  0.00000000000E+00 0. -1.
         -2    1    6    6    0  503  0.39443659995E+03  0.60082560249E+03 -0.15027910693E+03  0.73427205174E+03  0.00000000000E+00 0.  1.
<mgrwt>
<rscale>  0 0.18318598E+04</rscale>
<asrwt>0</asrwt>
<pdfrwt beam="1">  1        2 0.14792711E+00 0.18318598E+04</pdfrwt>
<pdfrwt beam="2">  1       -1 0.13423012E+00 0.18318598E+04</pdfrwt>
<totfact> 0.13400988E+01</totfact>
</mgrwt>
</event>
<event>
12    6  0.1510140E-007  0.1616506E+04  0.7818608E-02  0.8810471E-01
         -1   -1    0    0    0  501 -0.00000000000E+00  0.00000000000E+00  0.59266054169E+03  0.59266054169E+03  0.00000000000E+00 0.  1.
          2   -1    0    0  501    0  0.00000000000E+00 -0.00000000000E+00 -0.11022715480E+04  0.11022715480E+04  0.00000000000E+00 0. -1.
         24    2    1    2    0    0  0.19420424050E+03 -0.22579789280E+03  0.31873781342E+03  0.44404035581E+03  0.82934121234E+02 0.  0.
        254    2    1    2    0    0 -0.19420424050E+03  0.22579789280E+03 -0.82834881977E+03  0.12508917339E+04  0.88874540076E+03 0.  0.
         23    2    4    4    0    0 -0.23977558399E+03  0.43332107615E+03 -0.13642457637E+03  0.52166185674E+03  0.90884223209E+02 0.  0.
         23    2    4    4    0    0  0.45571343490E+02 -0.20752318335E+03 -0.69192424340E+03  0.72922987718E+03  0.88738019981E+02 0.  0.
          4    1    3    3  502    0  0.24367517041E+02  0.21931513588E+01  0.31675341630E+02  0.40023906194E+02  0.00000000000E+00 0. -1.
         -3    1    3    3    0  502  0.16983672346E+03 -0.22799104416E+03  0.28706247179E+03  0.40401644962E+03  0.00000000000E+00 0.  1.
         11    1    5    5    0    0 -0.10342914810E+03  0.24413702246E+03 -0.10969356924E+03  0.28693754293E+03  0.00000000000E+00 0. -1.
        -11    1    5    5    0    0 -0.13634643589E+03  0.18918405370E+03 -0.26731007127E+02  0.23472431381E+03  0.00000000000E+00 0.  1.
          3    1    6    6  503    0  0.38592763361E+02 -0.19585043623E+03 -0.52365210752E+03  0.56040906887E+03  0.00000000000E+00 0. -1.
         -3    1    6    6    0  503  0.69785801297E+01 -0.11672747117E+02 -0.16827213588E+03  0.16882080832E+03  0.00000000000E+00 0.  1.
<mgrwt>
<rscale>  0 0.16165059E+04</rscale>
<asrwt>0</asrwt>
<pdfrwt beam="1">  1        2 0.16958024E+00 0.16165059E+04</pdfrwt>
<pdfrwt beam="2">  1       -1 0.91178546E-01 0.16165059E+04</pdfrwt>
<totfact> 0.27845182E+01</totfact>
</mgrwt>
</event>
<event>
12    6  0.1510140E-007  0.1518869E+04  0.7818608E-02  0.8872001E-01
         -1   -1    0    0    0  501 -0.00000000000E+00  0.00000000000E+00  0.41167533174E+03  0.41167533174E+03  0.00000000000E+00 0.  1.
          2   -1    0    0  501    0  0.00000000000E+00 -0.00000000000E+00 -0.14009605340E+04  0.14009605340E+04  0.00000000000E+00 0. -1.
         24    2    1    2    0    0  0.46860306923E+03  0.93667960979E+02 -0.22091848060E+03  0.53254290929E+03  0.80215034497E+02 0.  0.
        254    2    1    2    0    0 -0.46860306923E+03 -0.93667960979E+02 -0.76836672170E+03  0.12800929565E+04  0.90547668929E+03 0.  0.
         23    2    4    4    0    0  0.13223144024E+03  0.15172380072E+03 -0.54393818927E+03  0.58672680073E+03  0.88737362205E+02 0.  0.
         23    2    4    4    0    0 -0.60083450947E+03 -0.24539176170E+03 -0.22442853243E+03  0.69336615577E+03  0.95756124175E+02 0.  0.
          4    1    3    3  502    0  0.26637733581E+03  0.63790351561E+02 -0.16821250799E+03  0.32143668402E+03  0.00000000000E+00 0. -1.
         -3    1    3    3    0  502  0.20222573342E+03  0.29877609419E+02 -0.52705972610E+02  0.21110622528E+03  0.00000000000E+00 0.  1.
         11    1    5    5    0    0  0.14362370402E+03  0.13595007484E+03 -0.51669630008E+03  0.55324972455E+03  0.00000000000E+00 0. -1.
        -11    1    5    5    0    0 -0.11392263780E+02  0.15773725884E+02 -0.27241889190E+02  0.33477076171E+02  0.00000000000E+00 0.  1.
          1    1    6    6  503    0 -0.47786794062E+03 -0.23023320651E+03 -0.20117016429E+03  0.56730462104E+03  0.00000000000E+00 0. -1.
         -1    1    6    6    0  503 -0.12296656885E+03 -0.15158555197E+02 -0.23258368140E+02  0.12606153473E+03  0.00000000000E+00 0.  1.
<mgrwt>
<rscale>  0 0.15188692E+04</rscale>
<asrwt>0</asrwt>
<pdfrwt beam="1">  1        2 0.21553239E+00 0.15188692E+04</pdfrwt>
<pdfrwt beam="2">  1       -1 0.63334666E-01 0.15188692E+04</pdfrwt>
<totfact> 0.40181171E+01</totfact>
</mgrwt>
</event>
<event>
12    6  0.1510140E-007  0.2412516E+04  0.7818608E-02  0.8434833E-01
          2   -1    0    0  501    0  0.00000000000E+00  0.00000000000E+00  0.22057256200E+04  0.22057256200E+04  0.00000000000E+00 0. -1.
         -1   -1    0    0    0  501 -0.00000000000E+00 -0.00000000000E+00 -0.65967307625E+03  0.65967307625E+03  0.00000000000E+00 0.  1.
         24    2    1    2    0    0 -0.86670854291E+03 -0.55151417783E+03  0.47025412480E+03  0.11326036335E+04  0.79375449682E+02 0.  0.
        254    2    1    2    0    0  0.86670854291E+03  0.55151417783E+03  0.10757984189E+04  0.17327950627E+04  0.88875469313E+03 0.  0.
         23    2    4    4    0    0  0.84974798740E+03  0.74595668409E+03  0.97110180413E+03  0.14934773718E+04  0.94408312475E+02 0.  0.
         23    2    4    4    0    0  0.16960555512E+02 -0.19444250625E+03  0.10469661479E+03  0.23931769093E+03  0.90642304490E+02 0.  0.
          2    1    3    3  502    0 -0.78321619137E+03 -0.50943410925E+03  0.44953801975E+03  0.10368390161E+04  0.00000000000E+00 0. -1.
         -1    1    3    3    0  502 -0.83492351545E+02 -0.42080068586E+02  0.20716105046E+02  0.95764617407E+02  0.00000000000E+00 0.  1.
         11    1    5    5    0    0  0.60821892407E+03  0.51703535953E+03  0.62998490416E+03  0.10169251703E+04  0.00000000000E+00 0. -1.
        -11    1    5    5    0    0  0.24152906333E+03  0.22892132456E+03  0.34111689997E+03  0.47655220146E+03  0.00000000000E+00 0.  1.
          1    1    6    6  503    0  0.27105570494E+02 -0.13423011322E+03  0.11319644779E+03  0.17766786721E+03  0.00000000000E+00 0. -1.
         -1    1    6    6    0  503 -0.10145014983E+02 -0.60212393032E+02 -0.84998330020E+01  0.61649823720E+02  0.00000000000E+00 0.  1.
<mgrwt>
<rscale>  0 0.24125155E+04</rscale>
<asrwt>0</asrwt>
<pdfrwt beam="1">  1        2 0.33934240E+00 0.24125155E+04</pdfrwt>
<pdfrwt beam="2">  1       -1 0.10148817E+00 0.24125155E+04</pdfrwt>
<totfact> 0.48254947E+00</totfact>
</mgrwt>
</event>
<event>
12    6  0.1510140E-007  0.1869289E+04  0.7818608E-02  0.8670296E-01
          2   -1    0    0  501    0  0.00000000000E+00  0.00000000000E+00  0.16882551343E+04  0.16882551343E+04  0.00000000000E+00 0. -1.
         -1   -1    0    0    0  501 -0.00000000000E+00 -0.00000000000E+00 -0.51743395478E+03  0.51743395478E+03  0.00000000000E+00 0.  1.
         24    2    1    2    0    0 -0.68786554458E+03  0.17619515942E+03  0.44987458851E+03  0.84457604671E+03  0.81962257557E+02 0.  0.
        254    2    1    2    0    0  0.68786554458E+03 -0.17619515942E+03  0.72094659104E+03  0.13611130424E+04  0.91030818155E+03 0.  0.
         23    2    4    4    0    0 -0.83106842974E+02 -0.33768711702E+03  0.25669813953E+03  0.44230673226E+03  0.93818837197E+02 0.  0.
         23    2    4    4    0    0  0.77097238756E+03  0.16149195759E+03  0.46424845150E+03  0.91880631013E+03  0.90555707005E+02 0.  0.
          4    1    3    3  502    0 -0.40081040607E+03  0.10369758388E+03  0.30955101738E+03  0.51693713629E+03  0.00000000000E+00 0. -1.
         -3    1    3    3    0  502 -0.28705513851E+03  0.72497575545E+02  0.14032357113E+03  0.32763891042E+03  0.00000000000E+00 0.  1.
         11    1    5    5    0    0 -0.66663040994E+02 -0.13597182064E+03  0.69499739317E+02  0.16662085946E+03  0.00000000000E+00 0.  1.
        -11    1    5    5    0    0 -0.16443801980E+02 -0.20171529638E+03  0.18719840022E+03  0.27568587280E+03  0.00000000000E+00 0. -1.
          1    1    6    6  503    0  0.59290124610E+03  0.13853603940E+03  0.31611898658E+03  0.68604324610E+03  0.00000000000E+00 0. -1.
         -1    1    6    6    0  503  0.17807114146E+03  0.22955918194E+02  0.14812946492E+03  0.23276306403E+03  0.00000000000E+00 0.  1.
<mgrwt>
<rscale>  0 0.18692892E+04</rscale>
<asrwt>0</asrwt>
<pdfrwt beam="1">  1        2 0.25973156E+00 0.18692892E+04</pdfrwt>
<pdfrwt beam="2">  1       -1 0.79605224E-01 0.18692892E+04</pdfrwt>
<totfact> 0.16783466E+01</totfact>
</mgrwt>
</event>
<event>
12    6  0.1510140E-007  0.1366365E+04  0.7818608E-02  0.8978532E-01
          2   -1    0    0  501    0  0.00000000000E+00  0.00000000000E+00  0.62494497606E+03  0.62494497606E+03  0.00000000000E+00 0. -1.
         -1   -1    0    0    0  501 -0.00000000000E+00 -0.00000000000E+00 -0.74684667215E+03  0.74684667215E+03  0.00000000000E+00 0.  1.
         24    2    1    2    0    0 -0.30355013866E+03  0.18936243926E+03  0.79325941413E+02  0.37577504281E+03  0.83147205204E+02 0.  0.
        254    2    1    2    0    0  0.30355013866E+03 -0.18936243926E+03 -0.20122763750E+03  0.99601660539E+03  0.90749969479E+03 0.  0.
         23    2    4    4    0    0  0.22907841099E+03 -0.40647348978E+02 -0.54677845194E+03  0.60193846178E+03  0.96094281308E+02 0.  0.
         23    2    4    4    0    0  0.74471727675E+02 -0.14871509028E+03  0.34555081444E+03  0.39407814361E+03  0.90719356332E+02 0.  0.
          2    1    3    3  502    0 -0.14345547018E+03  0.12497239233E+03  0.70810748498E+02  0.20300673110E+03  0.00000000000E+00 0. -1.
         -1    1    3    3    0  502 -0.16009466848E+03  0.64390046925E+02  0.85151929149E+01  0.17276831171E+03  0.00000000000E+00 0.  1.
         11    1    5    5    0    0  0.20990313105E+03 -0.50334941431E+02 -0.53614846758E+03  0.57796895249E+03  0.00000000000E+00 0. -1.
        -11    1    5    5    0    0  0.19175279935E+02  0.96875924532E+01 -0.10629984370E+02  0.23969509295E+02  0.00000000000E+00 0.  1.
          4    1    6    6  503    0  0.77258203224E+02 -0.13214479804E+03  0.34480884842E+03  0.37725882304E+03  0.00000000000E+00 0. -1.
         -4    1    6    6    0  503 -0.27864755492E+01 -0.16570292237E+02  0.74196601889E+00  0.16819320569E+02  0.00000000000E+00 0.  1.
<mgrwt>
<rscale>  0 0.13663646E+04</rscale>
<asrwt>0</asrwt>
<pdfrwt beam="1">  1        2 0.96145381E-01 0.13663646E+04</pdfrwt>
<pdfrwt beam="2">  1       -1 0.11489949E+00 0.13663646E+04</pdfrwt>
<totfact> 0.36204446E+01</totfact>
</mgrwt>
</event>
<event>
12    6  0.1510140E-007  0.2727298E+04  0.7818608E-02  0.8326202E-01
          2   -1    0    0  501    0  0.00000000000E+00  0.00000000000E+00  0.20644299680E+04  0.20644299680E+04  0.00000000000E+00 0. -1.
         -1   -1    0    0    0  501 -0.00000000000E+00 -0.00000000000E+00 -0.90075156312E+03  0.90075156312E+03  0.00000000000E+00 0.  1.
         24    2    1    2    0    0 -0.78054565076E+02 -0.37288903407E+01  0.18307626321E+04  0.18341780908E+04  0.80068934225E+02 0.  0.
        254    2    1    2    0    0  0.78054565076E+02  0.37288903407E+01 -0.66708422717E+03  0.11310034403E+04  0.90997856901E+03 0.  0.
         23    2    4    4    0    0 -0.39850517794E+03 -0.80311651154E+02 -0.24869300286E+03  0.48531215253E+03  0.91778742447E+02 0.  0.
         23    2    4    4    0    0  0.47655974302E+03  0.84040541495E+02 -0.41839122431E+03  0.64569128776E+03  0.87715570051E+02 0.  0.
          2    1    3    3  502    0 -0.29751188684E+02 -0.41138259038E+02  0.81507646469E+03  0.81665606767E+03  0.00000000000E+00 0. -1.
         -1    1    3    3    0  502 -0.48303376391E+02  0.37409368698E+02  0.10156861674E+04  0.10175220232E+04  0.00000000000E+00 0.  1.
         11    1    5    5    0    0 -0.52431241125E+02 -0.44009590624E+02 -0.33928282758E+02  0.76400310757E+02  0.00000000000E+00 0.  1.
        -11    1    5    5    0    0 -0.34607393682E+03 -0.36302060530E+02 -0.21476472010E+03  0.40891184177E+03  0.00000000000E+00 0. -1.
          2    1    6    6  503    0  0.38014808298E+03  0.10187334800E+03 -0.32767439484E+03  0.51211449214E+03  0.00000000000E+00 0. -1.
         -2    1    6    6    0  503  0.96411660037E+02 -0.17832806504E+02 -0.90716829470E+02  0.13357679562E+03  0.00000000000E+00 0.  1.
<mgrwt>
<rscale>  0 0.27272979E+04</rscale>
<asrwt>0</asrwt>
<pdfrwt beam="1">  1        2 0.31760461E+00 0.27272979E+04</pdfrwt>
<pdfrwt beam="2">  1       -1 0.13857716E+00 0.27272979E+04</pdfrwt>
<totfact> 0.26366270E+00</totfact>
</mgrwt>
</event>
<event>
12    6  0.1510140E-007  0.1646975E+04  0.7818608E-02  0.8792198E-01
         -1   -1    0    0    0  501 -0.00000000000E+00  0.00000000000E+00  0.55693481490E+03  0.55693481490E+03  0.00000000000E+00 0.  1.
          2   -1    0    0  501    0  0.00000000000E+00 -0.00000000000E+00 -0.12176135269E+04  0.12176135269E+04  0.00000000000E+00 0. -1.
         24    2    1    2    0    0  0.62547444750E+02  0.22649240966E+03  0.32386723758E+03  0.40857017042E+03  0.82635356194E+02 0.  0.
        254    2    1    2    0    0 -0.62547444750E+02 -0.22649240966E+03 -0.98454594960E+03  0.13659781714E+04  0.91725385983E+03 0.  0.
         23    2    4    4    0    0 -0.30174566761E+03  0.21940524994E+03 -0.21234390969E+03  0.43816404118E+03  0.87799085300E+02 0.  0.
         23    2    4    4    0    0  0.23919822286E+03 -0.44589765960E+03 -0.77220203991E+03  0.92781413022E+03  0.92209311511E+02 0.  0.
          2    1    3    3  502    0  0.39652593432E+02  0.10277777015E+03  0.87041700339E+02  0.14039891666E+03  0.00000000000E+00 0. -1.
         -1    1    3    3    0  502  0.22894851318E+02  0.12371463952E+03  0.23682553725E+03  0.26817125375E+03  0.00000000000E+00 0.  1.
         11    1    5    5    0    0 -0.29686061566E+03  0.18987828238E+03 -0.20361934240E+03  0.40698995546E+03  0.00000000000E+00 0.  1.
        -11    1    5    5    0    0 -0.48850519524E+01  0.29526967563E+02 -0.87245672859E+01  0.31174085718E+02  0.00000000000E+00 0. -1.
          3    1    6    6  503    0  0.10730756387E+02 -0.42865858515E+01 -0.30568340507E+01  0.11952748023E+02  0.00000000000E+00 0. -1.
         -3    1    6    6    0  503  0.22846746647E+03 -0.44161107375E+03 -0.76914520586E+03  0.91586138220E+03  0.00000000000E+00 0.  1.
<mgrwt>
<rscale>  0 0.16469746E+04</rscale>
<asrwt>0</asrwt>
<pdfrwt beam="1">  1        2 0.18732516E+00 0.16469746E+04</pdfrwt>
<pdfrwt beam="2">  1       -1 0.85682280E-01 0.16469746E+04</pdfrwt>
<totfact> 0.27103444E+01</totfact>
</mgrwt>
</event>
<event>
12    6  0.1510140E-007  0.2511762E+04  0.7818608E-02  0.8398807E-01
          2   -1    0    0  501    0  0.00000000000E+00  0.00000000000E+00  0.14796499164E+04  0.14796499164E+04  0.00000000000E+00 0. -1.
         -1   -1    0    0    0  501 -0.00000000000E+00 -0.00000000000E+00 -0.10659528714E+04  0.10659528714E+04  0.00000000000E+00 0.  1.
         24    2    1    2    0    0  0.27394393762E+03  0.28777436108E+03 -0.85337761708E+03  0.94432149218E+03  0.75035720907E+02 0.  0.
        254    2    1    2    0    0 -0.27394393762E+03 -0.28777436108E+03  0.12670746621E+04  0.16012812956E+04  0.89485430352E+03 0.  0.
         23    2    4    4    0    0  0.11883039446E+03  0.19742810117E+03  0.73875489011E+03  0.77854791672E+03  0.85320297684E+02 0.  0.
         23    2    4    4    0    0 -0.39277433207E+03 -0.48520246226E+03  0.52831977198E+03  0.82273337889E+03  0.89862817467E+02 0.  0.
          2    1    3    3  502    0  0.24095231860E+02  0.48819189758E+02 -0.75544707963E+02  0.93117648103E+02  0.00000000000E+00 0. -1.
         -1    1    3    3    0  502  0.24984870576E+03  0.23895517133E+03 -0.77783290912E+03  0.85120384408E+03  0.00000000000E+00 0.  1.
         11    1    5    5    0    0 -0.16809197049E+01  0.18381628663E+02  0.15641078116E+03  0.15749616575E+03  0.00000000000E+00 0.  1.
        -11    1    5    5    0    0  0.12051131416E+03  0.17904647251E+03  0.58234410895E+03  0.62105175097E+03  0.00000000000E+00 0. -1.
          3    1    6    6  503    0 -0.21710343670E+02 -0.50744731687E+02  0.22337544565E+02  0.59542696559E+02  0.00000000000E+00 0.  1.
         -3    1    6    6    0  503 -0.37106398840E+03 -0.43445773057E+03  0.50598222742E+03  0.76319068234E+03  0.00000000000E+00 0. -1.
<mgrwt>
<rscale>  0 0.25117620E+04</rscale>
<asrwt>0</asrwt>
<pdfrwt beam="1">  1        2 0.22763845E+00 0.25117620E+04</pdfrwt>
<pdfrwt beam="2">  1       -1 0.16399275E+00 0.25117620E+04</pdfrwt>
<totfact> 0.36074223E+00</totfact>
</mgrwt>
</event>
<event>
12    6  0.1510140E-007  0.1103594E+04  0.7818608E-02  0.9201696E-01
         -1   -1    0    0    0  501 -0.00000000000E+00  0.00000000000E+00  0.94635802859E+03  0.94635802859E+03  0.00000000000E+00 0.  1.
          2   -1    0    0  501    0  0.00000000000E+00 -0.00000000000E+00 -0.32173856246E+03  0.32173856246E+03  0.00000000000E+00 0. -1.
         24    2    1    2    0    0  0.28775114792E+02 -0.13648801620E+03 -0.50755698980E+02  0.16835626047E+03  0.79439937465E+02 0.  0.
        254    2    1    2    0    0 -0.28775114792E+02  0.13648801620E+03  0.67537516510E+03  0.10997403306E+04  0.85664473106E+03 0.  0.
         23    2    4    4    0    0  0.70073470981E+02  0.44793162801E+03  0.17842964207E+03  0.49621592218E+03  0.94021644035E+02 0.  0.
         23    2    4    4    0    0 -0.98848585774E+02 -0.31144361181E+03  0.49694552304E+03  0.60352440840E+03  0.10256067675E+03 0.  0.
          4    1    3    3  502    0  0.53191126579E+02 -0.61533988377E+02 -0.31372143947E+02  0.87177629517E+02  0.00000000000E+00 0. -1.
         -3    1    3    3    0  502 -0.24416011787E+02 -0.74954027819E+02 -0.19383555032E+02  0.81178630954E+02  0.00000000000E+00 0.  1.
         11    1    5    5    0    0  0.88804357341E+02  0.34584287409E+03  0.11769658935E+03  0.37596009707E+03  0.00000000000E+00 0. -1.
        -11    1    5    5    0    0 -0.18730886360E+02  0.10208875392E+03  0.60733052717E+02  0.12025582511E+03  0.00000000000E+00 0.  1.
          3    1    6    6  503    0 -0.10793014944E+03 -0.31046429033E+03  0.45935361245E+03  0.56483867962E+03  0.00000000000E+00 0. -1.
         -3    1    6    6    0  503  0.90815636635E+01 -0.97932148286E+00  0.37591910590E+02  0.38685728776E+02  0.00000000000E+00 0.  1.
<mgrwt>
<rscale>  0 0.11035939E+04</rscale>
<asrwt>0</asrwt>
<pdfrwt beam="1">  1        2 0.49498241E-01 0.11035939E+04</pdfrwt>
<pdfrwt beam="2">  1       -1 0.14559354E+00 0.11035939E+04</pdfrwt>
<totfact> 0.43649737E+01</totfact>
</mgrwt>
</event>
<event>
12    6  0.1510140E-007  0.1355656E+04  0.7818608E-02  0.8986558E-01
          2   -1    0    0  501    0  0.00000000000E+00  0.00000000000E+00  0.12718482470E+04  0.12718482470E+04  0.00000000000E+00 0. -1.
         -1   -1    0    0    0  501 -0.00000000000E+00 -0.00000000000E+00 -0.36124653519E+03  0.36124653519E+03  0.00000000000E+00 0.  1.
         24    2    1    2    0    0 -0.86885853861E+02  0.35976066028E+03  0.16388705451E+03  0.41319305699E+03  0.83021993644E+02 0.  0.
        254    2    1    2    0    0  0.86885853861E+02 -0.35976066028E+03  0.74671465730E+03  0.12199017252E+04  0.89084260978E+03 0.  0.
         23    2    4    4    0    0  0.18387371993E+03 -0.50328309035E+03  0.11079390278E+03  0.55451936133E+03  0.90072300317E+02 0.  0.
         23    2    4    4    0    0 -0.96987866069E+02  0.14352243007E+03  0.63592075453E+03  0.66538236386E+03  0.91286088729E+02 0.  0.
          4    1    3    3  502    0 -0.14183964619E+02  0.22692334319E+01  0.83123376246E+01  0.16596060661E+02  0.00000000000E+00 0. -1.
         -3    1    3    3    0  502 -0.72701889243E+02  0.35749142685E+03  0.15557471688E+03  0.39659699633E+03  0.00000000000E+00 0.  1.
         11    1    5    5    0    0  0.23599635551E+02 -0.10371083783E+03 -0.11465351538E+02  0.10697819856E+03  0.00000000000E+00 0. -1.
        -11    1    5    5    0    0  0.16027408438E+03 -0.39957225253E+03  0.12225925431E+03  0.44754116277E+03  0.00000000000E+00 0.  1.
          3    1    6    6  503    0 -0.22496645028E+02  0.71680986849E+02  0.41079998375E+03  0.41761332541E+03  0.00000000000E+00 0. -1.
         -3    1    6    6    0  503 -0.74491221041E+02  0.71841443225E+02  0.22512077078E+03  0.24776903845E+03  0.00000000000E+00 0.  1.
<mgrwt>
<rscale>  0 0.13556560E+04</rscale>
<asrwt>0</asrwt>
<pdfrwt beam="1">  1        2 0.19566896E+00 0.13556560E+04</pdfrwt>
<pdfrwt beam="2">  1       -1 0.55576391E-01 0.13556560E+04</pdfrwt>
<totfact> 0.62566792E+01</totfact>
</mgrwt>
</event>
<event>
12    6  0.1510140E-007  0.1347245E+04  0.7818608E-02  0.8992916E-01
         -1   -1    0    0    0  501 -0.00000000000E+00  0.00000000000E+00  0.31017735361E+03  0.31017735361E+03  0.00000000000E+00 0.  1.
          2   -1    0    0  501    0  0.00000000000E+00 -0.00000000000E+00 -0.14629286195E+04  0.14629286195E+04  0.00000000000E+00 0. -1.
         24    2    1    2    0    0  0.34719076539E+03  0.27593440662E+02 -0.23924842280E+03  0.43051896304E+03  0.82486024176E+02 0.  0.
        254    2    1    2    0    0 -0.34719076539E+03 -0.27593440662E+02 -0.91350284306E+03  0.13425870100E+04  0.92018998566E+03 0.  0.
         23    2    4    4    0    0 -0.60387817161E+03 -0.18227662767E+03 -0.43864123268E+03  0.77359690846E+03  0.90290811392E+02 0.  0.
         23    2    4    4    0    0  0.25668740622E+03  0.15468318701E+03 -0.47486161038E+03  0.56899010158E+03  0.91874228325E+02 0.  0.
          4    1    3    3  502    0  0.21089097686E+03  0.18974505150E+02 -0.19250287884E+03  0.28616847194E+03  0.00000000000E+00 0. -1.
         -3    1    3    3    0  502  0.13629978853E+03  0.86189355124E+01 -0.46745543961E+02  0.14435049111E+03  0.00000000000E+00 0.  1.
         11    1    5    5    0    0 -0.54935822596E+03 -0.13943366025E+03 -0.37603043499E+03  0.68017284133E+03  0.00000000000E+00 0.  1.
        -11    1    5    5    0    0 -0.54519945651E+02 -0.42842967420E+02 -0.62610797699E+02  0.93424067133E+02  0.00000000000E+00 0. -1.
          4    1    6    6  503    0  0.15293907400E+02  0.21509876829E+02 -0.94146178122E+01  0.28021660075E+02  0.00000000000E+00 0. -1.
         -4    1    6    6    0  503  0.24139349882E+03  0.13317331018E+03 -0.46544699256E+03  0.54096844150E+03  0.00000000000E+00 0.  1.
<mgrwt>
<rscale>  0 0.13472451E+04</rscale>
<asrwt>0</asrwt>
<pdfrwt beam="1">  1        2 0.22506594E+00 0.13472451E+04</pdfrwt>
<pdfrwt beam="2">  1       -1 0.47719594E-01 0.13472451E+04</pdfrwt>
<totfact> 0.65037971E+01</totfact>
</mgrwt>
</event>
<event>
12    6  0.1510140E-007  0.1533364E+04  0.7818608E-02  0.8862564E-01
         -1   -1    0    0    0  501 -0.00000000000E+00  0.00000000000E+00  0.38706833080E+03  0.38706833080E+03  0.00000000000E+00 0.  1.
          2   -1    0    0  501    0  0.00000000000E+00 -0.00000000000E+00 -0.15185987560E+04  0.15185987560E+04  0.00000000000E+00 0. -1.
         24    2    1    2    0    0 -0.35723758746E+03 -0.33901531584E+03 -0.44136919800E+03  0.66580437811E+03  0.77062459659E+02 0.  0.
        254    2    1    2    0    0  0.35723758746E+03  0.33901531584E+03 -0.69016122719E+03  0.12398627087E+04  0.90464741121E+03 0.  0.
         23    2    4    4    0    0  0.38577231094E+02  0.57565974757E+03 -0.23648443429E+03  0.63036758688E+03  0.92553007495E+02 0.  0.
         23    2    4    4    0    0  0.31866035637E+03 -0.23664443173E+03 -0.45367679290E+03  0.60949512181E+03  0.90092515253E+02 0.  0.
          4    1    3    3  502    0 -0.25838582831E+03 -0.23524283741E+03 -0.35673149119E+03  0.49935937523E+03  0.00000000000E+00 0. -1.
         -3    1    3    3    0  502 -0.98851759153E+02 -0.10377247843E+03 -0.84637706806E+02  0.16644500287E+03  0.00000000000E+00 0.  1.
         11    1    5    5    0    0 -0.15277431678E+02  0.21622838691E+03 -0.12492035795E+03  0.25018635266E+03  0.00000000000E+00 0. -1.
        -11    1    5    5    0    0  0.53854662773E+02  0.35943136066E+03 -0.11156407634E+03  0.38018123422E+03  0.00000000000E+00 0.  1.
          4    1    6    6  503    0  0.91355714200E+02 -0.11484461761E+03 -0.13356771756E+03  0.19843257768E+03  0.00000000000E+00 0. -1.
         -4    1    6    6    0  503  0.22730464217E+03 -0.12179981412E+03 -0.32010907535E+03  0.41106254413E+03  0.00000000000E+00 0.  1.
<mgrwt>
<rscale>  0 0.15333643E+04</rscale>
<asrwt>0</asrwt>
<pdfrwt beam="1">  1        2 0.23363058E+00 0.15333643E+04</pdfrwt>
<pdfrwt beam="2">  1       -1 0.59548974E-01 0.15333643E+04</pdfrwt>
<totfact> 0.38900243E+01</totfact>
</mgrwt>
</event>
<event>
12    6  0.1510140E-007  0.2488829E+04  0.7818608E-02  0.8406976E-01
         -1   -1    0    0    0  501 -0.00000000000E+00  0.00000000000E+00  0.76911043331E+03  0.76911043331E+03  0.00000000000E+00 0.  1.
          2   -1    0    0  501    0  0.00000000000E+00 -0.00000000000E+00 -0.20134522089E+04  0.20134522089E+04  0.00000000000E+00 0. -1.
         24    2    1    2    0    0 -0.45468319640E+03  0.43244571973E+03  0.44125263432E+03  0.77153223398E+03  0.82534787723E+02 0.  0.
        254    2    1    2    0    0  0.45468319640E+03 -0.43244571973E+03 -0.16855944099E+04  0.20110304082E+04  0.89959361851E+03 0.  0.
         23    2    4    4    0    0  0.39184421053E+03  0.17793801694E+03 -0.96215945040E+03  0.10580376003E+04  0.92135403310E+02 0.  0.
         23    2    4    4    0    0  0.62838985872E+02 -0.61038373667E+03 -0.72343495948E+03  0.95299280785E+03  0.91214620971E+02 0.  0.
          4    1    3    3  502    0 -0.52730458763E+02  0.90678450693E+02  0.83469175824E+02  0.13405292244E+03  0.00000000000E+00 0. -1.
         -3    1    3    3    0  502 -0.40195273764E+03  0.34176726904E+03  0.35778345849E+03  0.63747931155E+03  0.00000000000E+00 0.  1.
         11    1    5    5    0    0 -0.44606142606E+01  0.60462928341E+01 -0.10361352476E+02  0.12798920335E+02  0.00000000000E+00 0. -1.
        -11    1    5    5    0    0  0.39630482479E+03  0.17189172411E+03 -0.95179809793E+03  0.10452386800E+04  0.00000000000E+00 0.  1.
          3    1    6    6  503    0  0.41990152810E+02 -0.22052106525E+03 -0.20508904839E+03  0.30406287330E+03  0.00000000000E+00 0. -1.
         -3    1    6    6    0  503  0.20848833062E+02 -0.38986267143E+03 -0.51834591110E+03  0.64892993456E+03  0.00000000000E+00 0.  1.
<mgrwt>
<rscale>  0 0.24888287E+04</rscale>
<asrwt>0</asrwt>
<pdfrwt beam="1">  1        2 0.30976188E+00 0.24888287E+04</pdfrwt>
<pdfrwt beam="2">  1       -1 0.11832468E+00 0.24888287E+04</pdfrwt>
<totfact> 0.42739780E+00</totfact>
</mgrwt>
</event>
<event>
12    6  0.1510140E-007  0.1311601E+04  0.7818608E-02  0.9020416E-01
          2   -1    0    0  501    0  0.00000000000E+00  0.00000000000E+00  0.20589151509E+04  0.20589151509E+04  0.00000000000E+00 0. -1.
         -1   -1    0    0    0  501 -0.00000000000E+00 -0.00000000000E+00 -0.20888380399E+03  0.20888380399E+03  0.00000000000E+00 0.  1.
         24    2    1    2    0    0 -0.12840137273E+02  0.25443350837E+03  0.11506504019E+03  0.29791717048E+03  0.10302134579E+03 0.  0.
        254    2    1    2    0    0  0.12840137273E+02 -0.25443350837E+03  0.17349663067E+04  0.19698817844E+04  0.89745466728E+03 0.  0.
         23    2    4    4    0    0  0.17135131210E+03 -0.53895217936E+03  0.12858973093E+04  0.14076370848E+04  0.89886309906E+02 0.  0.
         23    2    4    4    0    0 -0.15851117482E+03  0.28451867099E+03  0.44906899737E+03  0.56224469955E+03  0.91539450981E+02 0.  0.
          4    1    3    3  502    0 -0.33179068307E+02  0.14362850397E+03  0.16687359295E+02  0.14835250482E+03  0.00000000000E+00 0. -1.
         -1    1    3    3    0  502  0.20338931034E+02  0.11080500439E+03  0.98377680898E+02  0.14956466566E+03  0.00000000000E+00 0.  1.
         11    1    5    5    0    0  0.30706812764E+02 -0.17385160006E+03  0.31927152148E+03  0.36483090826E+03  0.00000000000E+00 0.  1.
        -11    1    5    5    0    0  0.14064449933E+03 -0.36510057930E+03  0.96662578782E+03  0.10428061766E+04  0.00000000000E+00 0. -1.
          1    1    6    6  503    0 -0.13783044445E+02  0.17059320404E+02  0.26561723180E+01  0.22091807944E+02  0.00000000000E+00 0. -1.
         -1    1    6    6    0  503 -0.14472813038E+03  0.26745935059E+03  0.44641282505E+03  0.54015289161E+03  0.00000000000E+00 0.  1.
<mgrwt>
<rscale>  0 0.13116006E+04</rscale>
<asrwt>0</asrwt>
<pdfrwt beam="1">  1        2 0.31675616E+00 0.13116006E+04</pdfrwt>
<pdfrwt beam="2">  1       -1 0.32135971E-01 0.13116006E+04</pdfrwt>
<totfact> 0.62526116E+01</totfact>
</mgrwt>
</event>
<event>
12    6  0.1510140E-007  0.2422789E+04  0.7818608E-02  0.8431021E-01
          2   -1    0    0  501    0  0.00000000000E+00  0.00000000000E+00  0.25128545231E+04  0.25128545231E+04  0.00000000000E+00 0. -1.
         -1   -1    0    0    0  501 -0.00000000000E+00 -0.00000000000E+00 -0.58398768507E+03  0.58398768507E+03  0.00000000000E+00 0.  1.
         24    2    1    2    0    0  0.82962816229E+03 -0.49819766148E+03  0.12746429965E+04  0.16023565761E+04  0.79674531971E+02 0.  0.
        254    2    1    2    0    0 -0.82962816229E+03  0.49819766148E+03  0.65422384150E+03  0.14944856320E+04  0.93219883709E+03 0.  0.
         23    2    4    4    0    0 -0.17690462513E+03 -0.24179488030E+03  0.10799882544E+02  0.31295834087E+03  0.89812444178E+02 0.  0.
         23    2    4    4    0    0 -0.65272353715E+03  0.73999254178E+03  0.64342395895E+03  0.11815272911E+04  0.91517052203E+02 0.  0.
          4    1    3    3  502    0  0.60126098176E+03 -0.38017480675E+03  0.98613508828E+03  0.12159399920E+04  0.00000000000E+00 0. -1.
         -1    1    3    3    0  502  0.22836718053E+03 -0.11802285473E+03  0.28850790821E+03  0.38641658412E+03  0.00000000000E+00 0.  1.
         11    1    5    5    0    0 -0.14063951426E+02 -0.44664952967E+01  0.20160230927E+02  0.24983579026E+02  0.00000000000E+00 0.  1.
        -11    1    5    5    0    0 -0.16284067371E+03 -0.23732838500E+03 -0.93603483831E+01  0.28797476185E+03  0.00000000000E+00 0. -1.
          1    1    6    6  503    0 -0.49011193708E+03  0.56305142196E+03  0.53188305632E+03  0.91658943931E+03  0.00000000000E+00 0. -1.
         -1    1    6    6    0  503 -0.16261160007E+03  0.17694111981E+03  0.11154090263E+03  0.26493785180E+03  0.00000000000E+00 0.  1.
<mgrwt>
<rscale>  0 0.24227886E+04</rscale>
<asrwt>0</asrwt>
<pdfrwt beam="1">  1        2 0.38659300E+00 0.24227886E+04</pdfrwt>
<pdfrwt beam="2">  1       -1 0.89844260E-01 0.24227886E+04</pdfrwt>
<totfact> 0.42357403E+00</totfact>
</mgrwt>
</event>
<event>
12    6  0.1510140E-007  0.1314373E+04  0.7818608E-02  0.9018244E-01
         -1   -1    0    0    0  501 -0.00000000000E+00  0.00000000000E+00  0.11703305049E+04  0.11703305049E+04  0.00000000000E+00 0.  1.
          2   -1    0    0  501    0  0.00000000000E+00 -0.00000000000E+00 -0.36903596561E+03  0.36903596561E+03  0.00000000000E+00 0. -1.
         24    2    1    2    0    0 -0.20061632594E+03  0.25557552926E+03  0.10002358773E+03  0.34941665356E+03  0.80755917992E+02 0.  0.
        254    2    1    2    0    0  0.20061632594E+03 -0.25557552926E+03  0.70127095160E+03  0.11899498170E+04  0.90478387366E+03 0.  0.
         23    2    4    4    0    0  0.13950729900E+03 -0.50431495293E+03  0.74433352973E+03  0.91404718687E+03  0.87487131159E+02 0.  0.
         23    2    4    4    0    0  0.61109026936E+02  0.24873942366E+03 -0.43062578129E+02  0.27590263013E+03  0.93071271741E+02 0.  0.
          4    1    3    3  502    0 -0.20698946626E+03  0.24222850195E+03  0.88547773018E+02  0.33069622677E+03  0.00000000000E+00 0. -1.
         -3    1    3    3    0  502  0.63731403178E+01  0.13347027317E+02  0.11475814711E+02  0.18720426784E+02  0.00000000000E+00 0.  1.
         11    1    5    5    0    0 -0.37253311516E+01 -0.18493672446E+02  0.58452647971E+02  0.61421544001E+02  0.00000000000E+00 0. -1.
        -11    1    5    5    0    0  0.14323263015E+03 -0.48582128048E+03  0.68588088176E+03  0.85262564287E+03  0.00000000000E+00 0.  1.
          1    1    6    6  503    0  0.56932823540E+02  0.60357271134E+02 -0.24759139686E+02  0.86587306072E+02  0.00000000000E+00 0. -1.
         -1    1    6    6    0  503  0.41762033964E+01  0.18838215253E+03 -0.18303438443E+02  0.18931532406E+03  0.00000000000E+00 0.  1.
<mgrwt>
<rscale>  0 0.13143729E+04</rscale>
<asrwt>0</asrwt>
<pdfrwt beam="1">  1        2 0.56774765E-01 0.13143729E+04</pdfrwt>
<pdfrwt beam="2">  1       -1 0.18005084E+00 0.13143729E+04</pdfrwt>
<totfact> 0.20293443E+01</totfact>
</mgrwt>
</event>
<event>
12    6  0.1510140E-007  0.2254750E+04  0.7818608E-02  0.8495979E-01
          2   -1    0    0  501    0  0.00000000000E+00  0.00000000000E+00  0.14323952962E+04  0.14323952962E+04  0.00000000000E+00 0. -1.
         -1   -1    0    0    0  501 -0.00000000000E+00 -0.00000000000E+00 -0.88730713859E+03  0.88730713859E+03  0.00000000000E+00 0.  1.
         24    2    1    2    0    0  0.39073520130E+03 -0.45616652881E+03  0.10090894027E+04  0.11771406607E+04  0.81466637777E+02 0.  0.
        254    2    1    2    0    0 -0.39073520130E+03  0.45616652881E+03 -0.46400124503E+03  0.11425617741E+04  0.85404235997E+03 0.  0.
         23    2    4    4    0    0 -0.14391450973E+03 -0.20019071683E+03  0.51329092570E+02  0.26734186052E+03  0.89717809948E+02 0.  0.
         23    2    4    4    0    0 -0.24682069157E+03  0.65635724564E+03 -0.51533033760E+03  0.87521991355E+03  0.93376937889E+02 0.  0.
          4    1    3    3  502    0  0.20612492915E+03 -0.26108633687E+03  0.48313811087E+03  0.58657991433E+03  0.00000000000E+00 0. -1.
         -3    1    3    3    0  502  0.18461027215E+03 -0.19508019194E+03  0.52595129178E+03  0.59056074640E+03  0.00000000000E+00 0.  1.
         11    1    5    5    0    0 -0.18945041809E+02 -0.10028081616E+03  0.26393854232E+02  0.10541248617E+03  0.00000000000E+00 0. -1.
        -11    1    5    5    0    0 -0.12496946792E+03 -0.99909900673E+02  0.24935238338E+02  0.16192937435E+03  0.00000000000E+00 0.  1.
          3    1    6    6  503    0 -0.21902119545E+03  0.61863543941E+03 -0.45381323572E+03  0.79788880420E+03  0.00000000000E+00 0. -1.
         -3    1    6    6    0  503 -0.27799496116E+02  0.37721806233E+02 -0.61517101880E+02  0.77331109351E+02  0.00000000000E+00 0.  1.
<mgrwt>
<rscale>  0 0.22547502E+04</rscale>
<asrwt>0</asrwt>
<pdfrwt beam="1">  1        2 0.22036851E+00 0.22547502E+04</pdfrwt>
<pdfrwt beam="2">  1       -1 0.13650879E+00 0.22547502E+04</pdfrwt>
<totfact> 0.64359622E+00</totfact>
</mgrwt>
</event>
<event>
12    6  0.1510140E-007  0.1357269E+04  0.7818608E-02  0.8985344E-01
         -1   -1    0    0    0  501 -0.00000000000E+00  0.00000000000E+00  0.16726294684E+03  0.16726294684E+03  0.00000000000E+00 0.  1.
          2   -1    0    0  501    0  0.00000000000E+00 -0.00000000000E+00 -0.27534158793E+04  0.27534158793E+04  0.00000000000E+00 0. -1.
         24    2    1    2    0    0  0.75333463459E+02 -0.34097771256E+03 -0.43590371623E+03  0.56415858653E+03  0.79510563817E+02 0.  0.
        254    2    1    2    0    0 -0.75333463459E+02  0.34097771256E+03 -0.21502492162E+04  0.23565202396E+04  0.89870741437E+03 0.  0.
         23    2    4    4    0    0 -0.16589297661E+03  0.21390359257E+03 -0.21593655260E+04  0.21778626636E+04  0.83373137139E+02 0.  0.
         23    2    4    4    0    0  0.90559513149E+02  0.12707411999E+03  0.91163097989E+01  0.17865757599E+03  0.86524938386E+02 0.  0.
          4    1    3    3  502    0  0.59849363947E+01 -0.79842843780E+02 -0.54912593897E+02  0.97088063813E+02  0.00000000000E+00 0. -1.
         -3    1    3    3    0  502  0.69348527065E+02 -0.26113486878E+03 -0.38099112233E+03  0.46707052272E+03  0.00000000000E+00 0.  1.
         11    1    5    5    0    0 -0.84896148773E+02  0.14675872496E+03 -0.15752493575E+04  0.15843471897E+04  0.00000000000E+00 0. -1.
        -11    1    5    5    0    0 -0.80996827836E+02  0.67144867605E+02 -0.58411616856E+03  0.59351547388E+03  0.00000000000E+00 0.  1.
          3    1    6    6  503    0  0.10045113514E+03  0.10899074393E+03  0.27838038876E+02  0.15081236429E+03  0.00000000000E+00 0. -1.
         -3    1    6    6    0  503 -0.98916219916E+01  0.18083376057E+02 -0.18721729077E+02  0.27845211705E+02  0.00000000000E+00 0.  1.
<mgrwt>
<rscale>  0 0.13572685E+04</rscale>
<asrwt>0</asrwt>
<pdfrwt beam="1">  1        2 0.42360245E+00 0.13572685E+04</pdfrwt>
<pdfrwt beam="2">  1       -1 0.25732761E-01 0.13572685E+04</pdfrwt>
<totfact> 0.36807772E+01</totfact>
</mgrwt>
</event>
<event>
12    6  0.1510140E-007  0.1962729E+04  0.7818608E-02  0.8624247E-01
          2   -1    0    0  501    0  0.00000000000E+00  0.00000000000E+00  0.19407911220E+04  0.19407911220E+04  0.00000000000E+00 0. -1.
         -1   -1    0    0    0  501 -0.00000000000E+00 -0.00000000000E+00 -0.49622881894E+03  0.49622881894E+03  0.00000000000E+00 0.  1.
         24    2    1    2    0    0 -0.22728665700E+03  0.63430772384E+03  0.11294420955E+03  0.68868625394E+03  0.86757414274E+02 0.  0.
        254    2    1    2    0    0  0.22728665700E+03 -0.63430772384E+03  0.13316180935E+04  0.17483336870E+04  0.91074607939E+03 0.  0.
         23    2    4    4    0    0  0.10886923224E+03  0.15374155229E+03  0.19710453545E+02  0.21054955658E+03  0.91943673875E+02 0.  0.
         23    2    4    4    0    0  0.11841742476E+03 -0.78804927613E+03  0.13119076400E+04  0.15377841304E+04  0.92919469657E+02 0.  0.
          2    1    3    3  502    0 -0.40249587287E+02  0.77496910661E+02 -0.12038259453E+02  0.88151688183E+02  0.00000000000E+00 0. -1.
         -1    1    3    3    0  502 -0.18703706971E+03  0.55681081318E+03  0.12498246900E+03  0.60053456576E+03  0.00000000000E+00 0.  1.
         11    1    5    5    0    0  0.35402260258E+02  0.91275415316E+02 -0.29549806594E+02  0.10226295782E+03  0.00000000000E+00 0. -1.
        -11    1    5    5    0    0  0.73466971986E+02  0.62466136979E+02  0.49260260139E+02  0.10828659876E+03  0.00000000000E+00 0.  1.
          1    1    6    6  503    0  0.11553267264E+03 -0.47773417625E+03  0.77859346250E+03  0.92075269289E+03  0.00000000000E+00 0. -1.
         -1    1    6    6    0  503  0.28847521147E+01 -0.31031509988E+03  0.53331417745E+03  0.61703143751E+03  0.00000000000E+00 0.  1.
<mgrwt>
<rscale>  0 0.19627292E+04</rscale>
<asrwt>0</asrwt>
<pdfrwt beam="1">  1        2 0.29858324E+00 0.19627292E+04</pdfrwt>
<pdfrwt beam="2">  1       -1 0.76342896E-01 0.19627292E+04</pdfrwt>
<totfact> 0.13172325E+01</totfact>
</mgrwt>
</event>
<event>
12    6  0.1510140E-007  0.2050239E+04  0.7818608E-02  0.8583486E-01
         -1   -1    0    0    0  501 -0.00000000000E+00  0.00000000000E+00  0.20947729852E+04  0.20947729852E+04  0.00000000000E+00 0.  1.
          2   -1    0    0  501    0  0.00000000000E+00 -0.00000000000E+00 -0.50166294616E+03  0.50166294616E+03  0.00000000000E+00 0. -1.
         24    2    1    2    0    0  0.65679707809E+03  0.61608626720E+02  0.20376764878E+02  0.66485519194E+03  0.80244557649E+02 0.  0.
        254    2    1    2    0    0 -0.65679707809E+03 -0.61608626720E+02  0.15727332742E+04  0.19315807394E+04  0.90682753409E+03 0.  0.
         23    2    4    4    0    0 -0.10524385146E+03  0.37664241143E+03  0.69235280323E+03  0.80041290258E+03  0.91502109935E+02 0.  0.
         23    2    4    4    0    0 -0.55155322663E+03 -0.43825103815E+03  0.88038047095E+03  0.11311678369E+04  0.90531581562E+02 0.  0.
          2    1    3    3  502    0  0.64224209887E+03  0.71407272450E+02  0.14537523609E+02  0.64636309588E+03  0.00000000000E+00 0. -1.
         -1    1    3    3    0  502  0.14554979216E+02 -0.97986457304E+01  0.58392412700E+01  0.18492096061E+02  0.00000000000E+00 0.  1.
         11    1    5    5    0    0 -0.89267000904E+02  0.15617698616E+03  0.33426226490E+03  0.37959334846E+03  0.00000000000E+00 0. -1.
        -11    1    5    5    0    0 -0.15976850557E+02  0.22046542527E+03  0.35809053833E+03  0.42081955413E+03  0.00000000000E+00 0.  1.
          2    1    6    6  503    0  0.29934578840E+00  0.22560081494E+01 -0.37972375206E+00  0.23072431166E+01  0.00000000000E+00 0. -1.
         -2    1    6    6    0  503 -0.55185257242E+03 -0.44050704630E+03  0.88076019471E+03  0.11288605937E+04  0.00000000000E+00 0.  1.
<mgrwt>
<rscale>  0 0.20502390E+04</rscale>
<asrwt>0</asrwt>
<pdfrwt beam="1">  1        2 0.77178916E-01 0.20502390E+04</pdfrwt>
<pdfrwt beam="2">  1       -1 0.32227276E+00 0.20502390E+04</pdfrwt>
<totfact> 0.15349784E+00</totfact>
</mgrwt>
</event>
<event>
12    6  0.1533058E-007  0.1485942E+04  0.7818608E-02  0.8893855E-01
         -1   -1    0    0    0  501 -0.00000000000E+00  0.00000000000E+00  0.28473778275E+03  0.28473778275E+03  0.00000000000E+00 0.  1.
          2   -1    0    0  501    0  0.00000000000E+00 -0.00000000000E+00 -0.19386474724E+04  0.19386474724E+04  0.00000000000E+00 0. -1.
         24    2    1    2    0    0  0.24548652076E+03 -0.31946700663E+03 -0.89671827857E+03  0.98645682407E+03  0.81673707122E+02 0.  0.
        254    2    1    2    0    0 -0.24548652076E+03  0.31946700663E+03 -0.75719141110E+03  0.12369284311E+04  0.89125210261E+03 0.  0.
         23    2    4    4    0    0 -0.31041134693E+03 -0.15332749676E+03 -0.23922047912E+02  0.35790127612E+03  0.87501620023E+02 0.  0.
         23    2    4    4    0    0  0.64924826167E+02  0.47279450339E+03 -0.73326936318E+03  0.87902715497E+03  0.85175728369E+02 0.  0.
          2    1    3    3  502    0  0.22530843985E+03 -0.27187472648E+03 -0.71358897862E+03  0.79617145790E+03  0.00000000000E+00 0. -1.
         -1    1    3    3    0  502  0.20178080915E+02 -0.47592280148E+02 -0.18312929995E+03  0.19028536617E+03  0.00000000000E+00 0.  1.
         11    1    5    5    0    0 -0.96674072154E+02 -0.92943328190E+02 -0.21271077282E+02  0.13578216824E+03  0.00000000000E+00 0. -1.
        -11    1    5    5    0    0 -0.21373727478E+03 -0.60384168572E+02 -0.26509706294E+01  0.22211910789E+03  0.00000000000E+00 0.  1.
          3    1    6    6  503    0  0.60841090272E+00  0.23609306036E+03 -0.30781570958E+03  0.38793145577E+03  0.00000000000E+00 0. -1.
         -3    1    6    6    0  503  0.64316415265E+02  0.23670144303E+03 -0.42545365361E+03  0.49109569920E+03  0.00000000000E+00 0.  1.
<mgrwt>
<rscale>  0 0.14859424E+04</rscale>
<asrwt>0</asrwt>
<pdfrwt beam="1">  1        2 0.29825345E+00 0.14859424E+04</pdfrwt>
<pdfrwt beam="2">  1       -1 0.43805814E-01 0.14859424E+04</pdfrwt>
<totfact> 0.41014582E+01</totfact>
</mgrwt>
</event>
<event>
12    6  0.1510140E-007  0.1253733E+04  0.7818608E-02  0.9067082E-01
         -1   -1    0    0    0  501 -0.00000000000E+00  0.00000000000E+00  0.37506208550E+03  0.37506208550E+03  0.00000000000E+00 0.  1.
          2   -1    0    0  501    0  0.00000000000E+00 -0.00000000000E+00 -0.10477233279E+04  0.10477233279E+04  0.00000000000E+00 0. -1.
         24    2    1    2    0    0 -0.20878805233E+03  0.30695134245E+02  0.73093728968E+02  0.23773749066E+03  0.81497111552E+02 0.  0.
        254    2    1    2    0    0  0.20878805233E+03 -0.30695134245E+02 -0.74575497139E+03  0.11850479228E+04  0.89646721067E+03 0.  0.
         23    2    4    4    0    0 -0.11476130251E+03  0.35669606471E+03 -0.19525792093E+03  0.43205092039E+03  0.90222519332E+02 0.  0.
         23    2    4    4    0    0  0.32354935484E+03 -0.38739119895E+03 -0.55049705046E+03  0.75299700236E+03  0.95923703824E+02 0.  0.
          4    1    3    3  502    0 -0.80174813730E+01  0.63466348042E+01  0.28993088121E+02  0.30743437344E+02  0.00000000000E+00 0. -1.
         -3    1    3    3    0  502 -0.20077057095E+03  0.24348499440E+02  0.44100640846E+02  0.20699405332E+03  0.00000000000E+00 0.  1.
         11    1    5    5    0    0  0.13860685799E+02  0.65170800801E+02 -0.29336282950E+02  0.72800888629E+02  0.00000000000E+00 0. -1.
        -11    1    5    5    0    0 -0.12862198831E+03  0.29152526391E+03 -0.16592163798E+03  0.35925003176E+03  0.00000000000E+00 0.  1.
          1    1    6    6  503    0  0.16165027546E+03 -0.12633706739E+03 -0.19329676754E+03  0.28187853145E+03  0.00000000000E+00 0. -1.
         -1    1    6    6    0  503  0.16189907937E+03 -0.26105413156E+03 -0.35720028292E+03  0.47111847091E+03  0.00000000000E+00 0.  1.
<mgrwt>
<rscale>  0 0.12537325E+04</rscale>
<asrwt>0</asrwt>
<pdfrwt beam="1">  1        2 0.16118820E+00 0.12537325E+04</pdfrwt>
<pdfrwt beam="2">  1       -1 0.57701861E-01 0.12537325E+04</pdfrwt>
<totfact> 0.80124700E+01</totfact>
</mgrwt>
</event>
<event>
12    6  0.1510140E-007  0.1367070E+04  0.7818608E-02  0.8978006E-01
          2   -1    0    0  501    0  0.00000000000E+00  0.00000000000E+00  0.25907647388E+03  0.25907647388E+03  0.00000000000E+00 0. -1.
         -1   -1    0    0    0  501 -0.00000000000E+00 -0.00000000000E+00 -0.18034073606E+04  0.18034073606E+04  0.00000000000E+00 0.  1.
         24    2    1    2    0    0 -0.23583585311E+03 -0.24376388018E+03 -0.19586035968E+03  0.39995875632E+03  0.81033001733E+02 0.  0.
        254    2    1    2    0    0  0.23583585311E+03  0.24376388018E+03 -0.13484705270E+04  0.16625250781E+04  0.91136024397E+03 0.  0.
         23    2    4    4    0    0  0.44626383627E+03  0.46271980973E+03 -0.81824769835E+03  0.10447194089E+04  0.92996309899E+02 0.  0.
         23    2    4    4    0    0 -0.21042798316E+03 -0.21895592955E+03 -0.53022282867E+03  0.61780566921E+03  0.91246707800E+02 0.  0.
          2    1    3    3  502    0 -0.17404193882E+03 -0.18006717232E+03 -0.10091971545E+03  0.26999920737E+03  0.00000000000E+00 0. -1.
         -1    1    3    3    0  502 -0.61793914293E+02 -0.63696707863E+02 -0.94940644232E+02  0.12995954895E+03  0.00000000000E+00 0.  1.
         11    1    5    5    0    0  0.67303362434E+02  0.90953256033E+02 -0.96170970633E+02  0.14849610423E+03  0.00000000000E+00 0. -1.
        -11    1    5    5    0    0  0.37896047384E+03  0.37176655369E+03 -0.72207672771E+03  0.89622330470E+03  0.00000000000E+00 0.  1.
          1    1    6    6  503    0 -0.45633287597E+02 -0.58579830121E+02 -0.21615866910E+03  0.22855757187E+03  0.00000000000E+00 0. -1.
         -1    1    6    6    0  503 -0.16479469556E+03 -0.16037609943E+03 -0.31406415957E+03  0.38924809734E+03  0.00000000000E+00 0.  1.
<mgrwt>
<rscale>  0 0.13670705E+04</rscale>
<asrwt>0</asrwt>
<pdfrwt beam="1">  1        2 0.39857918E-01 0.13670705E+04</pdfrwt>
<pdfrwt beam="2">  1       -1 0.27744729E+00 0.13670705E+04</pdfrwt>
<totfact> 0.67013920E+00</totfact>
</mgrwt>
</event>
<event>
12    6  0.1510140E-007  0.2234277E+04  0.7818608E-02  0.8504295E-01
         -1   -1    0    0    0  501 -0.00000000000E+00  0.00000000000E+00  0.33755478189E+03  0.33755478189E+03  0.00000000000E+00 0.  1.
          2   -1    0    0  501    0  0.00000000000E+00 -0.00000000000E+00 -0.36971714980E+04  0.36971714980E+04  0.00000000000E+00 0. -1.
         24    2    1    2    0    0 -0.38925124875E+03  0.69111998584E+03 -0.53730501684E+03  0.96133080383E+03  0.79352780638E+02 0.  0.
        254    2    1    2    0    0  0.38925124875E+03 -0.69111998584E+03 -0.28223116992E+04  0.30733954760E+04  0.92257956564E+03 0.  0.
         23    2    4    4    0    0  0.40235368829E+03 -0.51055398974E+03 -0.77230883035E+03  0.10134258130E+04  0.89538159930E+02 0.  0.
         23    2    4    4    0    0 -0.13102439547E+02 -0.18056599610E+03 -0.20500028689E+04  0.20599696630E+04  0.90484790408E+02 0.  0.
          2    1    3    3  502    0 -0.10193616327E+03  0.25153001970E+03 -0.16551532271E+03  0.31788937422E+03  0.00000000000E+00 0. -1.
         -1    1    3    3    0  502 -0.28731508548E+03  0.43958996614E+03 -0.37178969413E+03  0.64344142961E+03  0.00000000000E+00 0.  1.
         11    1    5    5    0    0  0.78677739537E+02 -0.69045379643E+02 -0.16871891774E+03  0.19855358055E+03  0.00000000000E+00 0.  1.
        -11    1    5    5    0    0  0.32367594876E+03 -0.44150861010E+03 -0.60358991262E+03  0.81487223245E+03  0.00000000000E+00 0. -1.
          4    1    6    6  503    0 -0.45970556588E+02 -0.10886548563E+03 -0.14494413698E+04  0.14542507591E+04  0.00000000000E+00 0. -1.
         -4    1    6    6    0  503  0.32868117041E+02 -0.71700510473E+02 -0.60056149910E+03  0.60571890388E+03  0.00000000000E+00 0.  1.
<mgrwt>
<rscale>  0 0.22342765E+04</rscale>
<asrwt>0</asrwt>
<pdfrwt beam="1">  1        2 0.56879561E+00 0.22342765E+04</pdfrwt>
<pdfrwt beam="2">  1       -1 0.51931506E-01 0.22342765E+04</pdfrwt>
<totfact> 0.22806683E+00</totfact>
</mgrwt>
</event>
<event>
12    6  0.1510140E-007  0.2499245E+04  0.7818608E-02  0.8403255E-01
          2   -1    0    0  501    0  0.00000000000E+00  0.00000000000E+00  0.10293549309E+04  0.10293549309E+04  0.00000000000E+00 0. -1.
         -1   -1    0    0    0  501 -0.00000000000E+00 -0.00000000000E+00 -0.15170237909E+04  0.15170237909E+04  0.00000000000E+00 0.  1.
         24    2    1    2    0    0 -0.43844182193E+03  0.17716682386E+03 -0.12108692251E+04  0.13020769632E+04  0.74704906178E+02 0.  0.
        254    2    1    2    0    0  0.43844182193E+03 -0.17716682386E+03  0.72320036513E+03  0.12443017587E+04  0.89534841479E+03 0.  0.
         23    2    4    4    0    0  0.65419986824E+03  0.36051184229E+02  0.63052261378E+03  0.91396250809E+03  0.92149575257E+02 0.  0.
         23    2    4    4    0    0 -0.21575804631E+03 -0.21321800808E+03  0.92677751349E+02  0.33033925060E+03  0.92311436848E+02 0.  0.
          4    1    3    3  502    0 -0.28097928553E+02  0.33251542625E+02 -0.96284027031E+02  0.10566821915E+03  0.00000000000E+00 0. -1.
         -3    1    3    3    0  502 -0.41034389337E+03  0.14391528123E+03 -0.11145851981E+04  0.11964087440E+04  0.00000000000E+00 0.  1.
         11    1    5    5    0    0  0.44238935460E+03  0.41859373872E-02  0.47233796594E+03  0.64715646883E+03  0.00000000000E+00 0. -1.
        -11    1    5    5    0    0  0.21181051363E+03  0.36046998292E+02  0.15818464784E+03  0.26680603926E+03  0.00000000000E+00 0.  1.
          3    1    6    6  503    0 -0.63223786489E+02 -0.15313473919E+02  0.38929662897E+01  0.65168280996E+02  0.00000000000E+00 0. -1.
         -3    1    6    6    0  503 -0.15253425982E+03 -0.19790453417E+03  0.88784785059E+02  0.26517096960E+03  0.00000000000E+00 0.  1.
<mgrwt>
<rscale>  0 0.24992446E+04</rscale>
<asrwt>0</asrwt>
<pdfrwt beam="1">  1        2 0.15836230E+00 0.24992446E+04</pdfrwt>
<pdfrwt beam="2">  1       -1 0.23338828E+00 0.24992446E+04</pdfrwt>
<totfact> 0.21986340E+00</totfact>
</mgrwt>
</event>
<event>
12    6  0.1510140E-007  0.1666971E+04  0.7818608E-02  0.8780429E-01
         -1   -1    0    0    0  501 -0.00000000000E+00  0.00000000000E+00  0.55687564380E+03  0.55687564380E+03  0.00000000000E+00 0.  1.
          2   -1    0    0  501    0  0.00000000000E+00 -0.00000000000E+00 -0.12474927432E+04  0.12474927432E+04  0.00000000000E+00 0. -1.
         24    2    1    2    0    0 -0.30887626126E+03  0.34118235071E+03  0.13016049105E+03  0.48479996089E+03  0.79242081220E+02 0.  0.
        254    2    1    2    0    0  0.30887626126E+03 -0.34118235071E+03 -0.82077759044E+03  0.13195684261E+04  0.92508109753E+03 0.  0.
         23    2    4    4    0    0 -0.28266326875E+03  0.31292779245E+02 -0.39679290632E+03  0.49670568361E+03  0.91619670846E+02 0.  0.
         23    2    4    4    0    0  0.59153953002E+03 -0.37247512996E+03 -0.42398468412E+03  0.82286274250E+03  0.93184454809E+02 0.  0.
          2    1    3    3  502    0 -0.10422914750E+03  0.10610911386E+03  0.80722827422E+02  0.16923071263E+03  0.00000000000E+00 0. -1.
         -1    1    3    3    0  502 -0.20464711376E+03  0.23507323685E+03  0.49437663631E+02  0.31556924825E+03  0.00000000000E+00 0.  1.
         11    1    5    5    0    0 -0.21446459968E+03  0.59663186138E+02 -0.26966484858E+03  0.34967683775E+03  0.00000000000E+00 0.  1.
        -11    1    5    5    0    0 -0.68198669075E+02 -0.28370406893E+02 -0.12712805774E+03  0.14702884586E+03  0.00000000000E+00 0. -1.
          2    1    6    6  503    0  0.52314355607E+02 -0.50679758695E+02 -0.74607662149E+02  0.10426664373E+03  0.00000000000E+00 0. -1.
         -2    1    6    6    0  503  0.53922517441E+03 -0.32179537126E+03 -0.34937702197E+03  0.71859609877E+03  0.00000000000E+00 0.  1.
<mgrwt>
<rscale>  0 0.16669713E+04</rscale>
<asrwt>0</asrwt>
<pdfrwt beam="1">  1        2 0.19192196E+00 0.16669713E+04</pdfrwt>
<pdfrwt beam="2">  1       -1 0.85673177E-01 0.16669713E+04</pdfrwt>
<totfact> 0.25982679E+01</totfact>
</mgrwt>
</event>
<event>
12    6  0.1510140E-007  0.2427295E+04  0.7818608E-02  0.8429355E-01
          2   -1    0    0  501    0  0.00000000000E+00  0.00000000000E+00  0.27571198577E+04  0.27571198577E+04  0.00000000000E+00 0. -1.
         -1   -1    0    0    0  501 -0.00000000000E+00 -0.00000000000E+00 -0.53423159088E+03  0.53423159088E+03  0.00000000000E+00 0.  1.
         24    2    1    2    0    0  0.70365920373E+03  0.63980811106E+03  0.15478259359E+04  0.18183334204E+04  0.77978239525E+02 0.  0.
        254    2    1    2    0    0 -0.70365920373E+03 -0.63980811106E+03  0.67506233086E+03  0.14730180281E+04  0.89976789603E+03 0.  0.
         23    2    4    4    0    0  0.71214465815E+02 -0.34674293729E+03 -0.49176624716E+02  0.36876362068E+03  0.90918110478E+02 0.  0.
         23    2    4    4    0    0 -0.77487366954E+03 -0.29306517377E+03  0.72423895557E+03  0.11042544075E+04  0.92408505117E+02 0.  0.
          4    1    3    3  502    0  0.54114577120E+03  0.50715587521E+03  0.12618799568E+04  0.14636894660E+04  0.00000000000E+00 0. -1.
         -3    1    3    3    0  502  0.16251343253E+03  0.13265223586E+03  0.28594597917E+03  0.35464395446E+03  0.00000000000E+00 0.  1.
         11    1    5    5    0    0  0.38386115013E+01  0.49602670916E+01 -0.48569651600E+01  0.79327989035E+01  0.00000000000E+00 0. -1.
        -11    1    5    5    0    0  0.67375854314E+02 -0.35170320439E+03 -0.44319659556E+02  0.36083082177E+03  0.00000000000E+00 0.  1.
          1    1    6    6  503    0 -0.51685116631E+02 -0.30896001494E+02  0.26794109881E+02  0.65907803133E+02  0.00000000000E+00 0. -1.
         -1    1    6    6    0  503 -0.72318855291E+03 -0.26216917228E+03  0.69744484569E+03  0.10383466043E+04  0.00000000000E+00 0.  1.
<mgrwt>
<rscale>  0 0.24272952E+04</rscale>
<asrwt>0</asrwt>
<pdfrwt beam="1">  1        2 0.42417228E+00 0.24272952E+04</pdfrwt>
<pdfrwt beam="2">  1       -1 0.82189477E-01 0.24272952E+04</pdfrwt>
<totfact> 0.36878445E+00</totfact>
</mgrwt>
</event>
<event>
12    6  0.1510140E-007  0.1873394E+04  0.7818608E-02  0.8668214E-01
          2   -1    0    0  501    0  0.00000000000E+00  0.00000000000E+00  0.80804599626E+03  0.80804599626E+03  0.00000000000E+00 0. -1.
         -1   -1    0    0    0  501 -0.00000000000E+00 -0.00000000000E+00 -0.10858305974E+04  0.10858305974E+04  0.00000000000E+00 0.  1.
         24    2    1    2    0    0  0.68699831216E+03 -0.48498826679E+02  0.10377264293E+03  0.70128382609E+03  0.81923294705E+02 0.  0.
        254    2    1    2    0    0 -0.68699831216E+03  0.48498826679E+02 -0.38155724409E+03  0.11925927676E+04  0.89575262306E+03 0.  0.
         23    2    4    4    0    0 -0.69037611730E+03  0.34666536253E+03 -0.12324370630E+03  0.78755331487E+03  0.90857887399E+02 0.  0.
         23    2    4    4    0    0  0.33778051437E+01 -0.29816653585E+03 -0.25831353779E+03  0.40503945273E+03  0.91740840385E+02 0.  0.
          2    1    3    3  502    0  0.64128599254E+03 -0.53311262390E+02  0.76995514823E+02  0.64808805284E+03  0.00000000000E+00 0. -1.
         -1    1    3    3    0  502  0.45712319616E+02  0.48124357115E+01  0.26777128105E+02  0.53195773251E+02  0.00000000000E+00 0.  1.
         11    1    5    5    0    0 -0.29739734063E+03  0.19403086569E+03 -0.34810886199E+02  0.35679819626E+03  0.00000000000E+00 0. -1.
        -11    1    5    5    0    0 -0.39297877667E+03  0.15263449683E+03 -0.88432820105E+02  0.43075511861E+03  0.00000000000E+00 0.  1.
          1    1    6    6  503    0 -0.17868883816E+02 -0.46745177098E+02 -0.85987976760E+02  0.99490405256E+02  0.00000000000E+00 0. -1.
         -1    1    6    6    0  503  0.21246688960E+02 -0.25142135875E+03 -0.17232556103E+03  0.30554904747E+03  0.00000000000E+00 0.  1.
<mgrwt>
<rscale>  0 0.18733938E+04</rscale>
<asrwt>0</asrwt>
<pdfrwt beam="1">  1        2 0.12431477E+00 0.18733938E+04</pdfrwt>
<pdfrwt beam="2">  1       -1 0.16705086E+00 0.18733938E+04</pdfrwt>
<totfact> 0.94203105E+00</totfact>
</mgrwt>
</event>
<event>
12    6  0.1510140E-007  0.2043660E+04  0.7818608E-02  0.8586476E-01
          2   -1    0    0  501    0  0.00000000000E+00  0.00000000000E+00  0.29960577964E+04  0.29960577964E+04  0.00000000000E+00 0. -1.
         -1   -1    0    0    0  501 -0.00000000000E+00 -0.00000000000E+00 -0.34850363305E+03  0.34850363305E+03  0.00000000000E+00 0.  1.
         24    2    1    2    0    0 -0.40251423200E+03  0.47101628449E+03  0.18912796860E+03  0.65253216487E+03  0.78452472644E+02 0.  0.
        254    2    1    2    0    0  0.40251423200E+03 -0.47101628449E+03  0.24584261947E+04  0.26920292646E+04  0.90514538010E+03 0.  0.
         23    2    4    4    0    0 -0.74758419105E+02 -0.58530580089E+03  0.13963245985E+04  0.15185205996E+04  0.89502653624E+02 0.  0.
         23    2    4    4    0    0  0.47727265111E+03  0.11428951640E+03  0.10621015962E+04  0.11735086650E+04  0.90617377832E+02 0.  0.
          2    1    3    3  502    0 -0.63203895011E+02  0.85404911890E+02  0.63400287024E+02  0.12372682698E+03  0.00000000000E+00 0. -1.
         -1    1    3    3    0  502 -0.33931033699E+03  0.38561137260E+03  0.12572768157E+03  0.52880533789E+03  0.00000000000E+00 0.  1.
         11    1    5    5    0    0 -0.91095738327E+02 -0.52255633453E+03  0.12074199213E+04  0.13187973395E+04  0.00000000000E+00 0.  1.
        -11    1    5    5    0    0  0.16337319222E+02 -0.62749466360E+02  0.18890467722E+03  0.19972326004E+03  0.00000000000E+00 0. -1.
          4    1    6    6  503    0  0.26962708992E+03  0.28539360209E+02  0.51337773435E+03  0.58057726516E+03  0.00000000000E+00 0. -1.
         -4    1    6    6    0  503  0.20764556119E+03  0.85750156190E+02  0.54872386184E+03  0.59293139984E+03  0.00000000000E+00 0.  1.
<mgrwt>
<rscale>  0 0.20436605E+04</rscale>
<asrwt>0</asrwt>
<pdfrwt beam="1">  1        2 0.46093195E+00 0.20436605E+04</pdfrwt>
<pdfrwt beam="2">  1       -1 0.53615946E-01 0.20436605E+04</pdfrwt>
<totfact> 0.64904368E+00</totfact>
</mgrwt>
</event>
<event>
12    6  0.1510140E-007  0.2304089E+04  0.7818608E-02  0.8476311E-01
          2   -1    0    0  501    0  0.00000000000E+00  0.00000000000E+00  0.15628560915E+04  0.15628560915E+04  0.00000000000E+00 0. -1.
         -1   -1    0    0    0  501 -0.00000000000E+00 -0.00000000000E+00 -0.84921865808E+03  0.84921865808E+03  0.00000000000E+00 0.  1.
         24    2    1    2    0    0  0.95460865726E+03  0.19058372638E+03  0.32459730444E+03  0.10293048671E+04  0.80655155555E+02 0.  0.
        254    2    1    2    0    0 -0.95460865726E+03 -0.19058372638E+03  0.38904012897E+03  0.13827698825E+04  0.90172084408E+03 0.  0.
         23    2    4    4    0    0 -0.32554129808E+03 -0.46402056326E+03  0.38398529485E+03  0.69082897570E+03  0.92237449658E+02 0.  0.
         23    2    4    4    0    0 -0.62906735918E+03  0.27343683688E+03  0.50548341256E+01  0.69194090678E+03  0.90902260563E+02 0.  0.
          2    1    3    3  502    0  0.58612752123E+03  0.14472666882E+03  0.17112328249E+03  0.62751450789E+03  0.00000000000E+00 0. -1.
         -1    1    3    3    0  502  0.36848113603E+03  0.45857057560E+02  0.15347402196E+03  0.40179035921E+03  0.00000000000E+00 0.  1.
         11    1    5    5    0    0 -0.29659598937E+03 -0.40863202276E+03  0.30419723395E+03  0.58947881054E+03  0.00000000000E+00 0. -1.
        -11    1    5    5    0    0 -0.28945308708E+02 -0.55388540505E+02  0.79788060899E+02  0.10135016516E+03  0.00000000000E+00 0.  1.
          2    1    6    6  503    0 -0.49010919565E+03  0.25018020868E+03 -0.90608140504E+01  0.55034467275E+03  0.00000000000E+00 0. -1.
         -2    1    6    6    0  503 -0.13895816353E+03  0.23256628205E+02  0.14115648176E+02  0.14159623403E+03  0.00000000000E+00 0.  1.
<mgrwt>
<rscale>  0 0.23040890E+04</rscale>
<asrwt>0</asrwt>
<pdfrwt beam="1">  1        2 0.24043940E+00 0.23040890E+04</pdfrwt>
<pdfrwt beam="2">  1       -1 0.13064902E+00 0.23040890E+04</pdfrwt>
<totfact> 0.60484434E+00</totfact>
</mgrwt>
</event>
<event>
12    6  0.1510140E-007  0.2262718E+04  0.7818608E-02  0.8492767E-01
         -1   -1    0    0    0  501 -0.00000000000E+00  0.00000000000E+00  0.10602913129E+04  0.10602913129E+04  0.00000000000E+00 0.  1.
          2   -1    0    0  501    0  0.00000000000E+00 -0.00000000000E+00 -0.12071906202E+04  0.12071906202E+04  0.00000000000E+00 0. -1.
         24    2    1    2    0    0  0.44194909740E+03 -0.46659344009E+03  0.64146033469E+03  0.91142435121E+03  0.78705425303E+02 0.  0.
        254    2    1    2    0    0 -0.44194909740E+03  0.46659344009E+03 -0.78835964200E+03  0.13560575819E+04  0.89685717781E+03 0.  0.
         23    2    4    4    0    0 -0.52075300249E+03  0.17244974490E+03 -0.56513734606E+02  0.55787541731E+03  0.84312365153E+02 0.  0.
         23    2    4    4    0    0  0.78803905086E+02  0.29414369519E+03 -0.73184590740E+03  0.79818216464E+03  0.93625674351E+02 0.  0.
          4    1    3    3  502    0  0.24105173756E+03 -0.25807865941E+03  0.29698187153E+03  0.46142037952E+03  0.00000000000E+00 0. -1.
         -3    1    3    3    0  502  0.20089735984E+03 -0.20851478068E+03  0.34447846316E+03  0.45000397169E+03  0.00000000000E+00 0.  1.
         11    1    5    5    0    0 -0.97909465010E+02  0.31028924514E+02  0.22288602382E+02  0.10509918787E+03  0.00000000000E+00 0.  1.
        -11    1    5    5    0    0 -0.42284353748E+03  0.14142082039E+03 -0.78802336988E+02  0.45277622944E+03  0.00000000000E+00 0. -1.
          1    1    6    6  503    0  0.62459814925E+02  0.10244706229E+03 -0.20803573036E+03  0.24015722799E+03  0.00000000000E+00 0. -1.
         -1    1    6    6    0  503  0.16344090161E+02  0.19169663290E+03 -0.52381017704E+03  0.55802493665E+03  0.00000000000E+00 0.  1.
<mgrwt>
<rscale>  0 0.22627185E+04</rscale>
<asrwt>0</asrwt>
<pdfrwt beam="1">  1        2 0.18572163E+00 0.22627185E+04</pdfrwt>
<pdfrwt beam="2">  1       -1 0.16312174E+00 0.22627185E+04</pdfrwt>
<totfact> 0.53815894E+00</totfact>
</mgrwt>
</event>
<event>
12    6  0.1510140E-007  0.1654515E+04  0.7818608E-02  0.8787740E-01
         -1   -1    0    0    0  501 -0.00000000000E+00  0.00000000000E+00  0.93153735786E+03  0.93153735786E+03  0.00000000000E+00 0.  1.
          2   -1    0    0  501    0  0.00000000000E+00 -0.00000000000E+00 -0.73465120961E+03  0.73465120961E+03  0.00000000000E+00 0. -1.
         24    2    1    2    0    0 -0.11357521465E+03  0.40089316710E+03 -0.33007901791E+03  0.53862592171E+03  0.86896862217E+02 0.  0.
        254    2    1    2    0    0  0.11357521465E+03 -0.40089316710E+03  0.52696516615E+03  0.11275626458E+04  0.90558852299E+03 0.  0.
         23    2    4    4    0    0  0.49634831181E+03 -0.25335483648E+03  0.38584385372E+03  0.68426843420E+03  0.93794940061E+02 0.  0.
         23    2    4    4    0    0 -0.38277309716E+03 -0.14753833062E+03  0.14112131243E+03  0.44329421157E+03  0.91168691288E+02 0.  0.
          2    1    3    3  502    0 -0.80702296998E+02  0.26571075536E+03 -0.16609492234E+03  0.32357779510E+03  0.00000000000E+00 0. -1.
         -1    1    3    3    0  502 -0.32872917654E+02  0.13518241174E+03 -0.16398409557E+03  0.21504812661E+03  0.00000000000E+00 0.  1.
         11    1    5    5    0    0  0.22621776484E+03 -0.65627859587E+02  0.14542175299E+03  0.27681939840E+03  0.00000000000E+00 0.  1.
        -11    1    5    5    0    0  0.27013054697E+03 -0.18772697689E+03  0.24042210072E+03  0.40744903580E+03  0.00000000000E+00 0. -1.
          2    1    6    6  503    0 -0.33723279910E+03 -0.11355172597E+03  0.90435450038E+02  0.36714918750E+03  0.00000000000E+00 0. -1.
         -2    1    6    6    0  503 -0.45540298067E+02 -0.33986604642E+02  0.50685862397E+02  0.76145024066E+02  0.00000000000E+00 0.  1.
<mgrwt>
<rscale>  0 0.16545151E+04</rscale>
<asrwt>0</asrwt>
<pdfrwt beam="1">  1        2 0.11302326E+00 0.16545151E+04</pdfrwt>
<pdfrwt beam="2">  1       -1 0.14331344E+00 0.16545151E+04</pdfrwt>
<totfact> 0.16555114E+01</totfact>
</mgrwt>
</event>
<event>
12    6  0.1510140E-007  0.2437104E+04  0.7818608E-02  0.8425742E-01
         -1   -1    0    0    0  501 -0.00000000000E+00  0.00000000000E+00  0.40815022073E+03  0.40815022073E+03  0.00000000000E+00 0.  1.
          2   -1    0    0  501    0  0.00000000000E+00 -0.00000000000E+00 -0.36380442907E+04  0.36380442907E+04  0.00000000000E+00 0. -1.
         24    2    1    2    0    0  0.10443990640E+04  0.58872934713E+02 -0.13561143392E+04  0.17145657799E+04  0.80338566638E+02 0.  0.
        254    2    1    2    0    0 -0.10443990640E+04 -0.58872934713E+02 -0.18737797308E+04  0.23316287316E+04  0.91170534448E+03 0.  0.
         23    2    4    4    0    0 -0.19677971473E+03  0.37267438963E+03 -0.53495062444E+03  0.68704308699E+03  0.90816165808E+02 0.  0.
         23    2    4    4    0    0 -0.84761934924E+03 -0.43154732435E+03 -0.13388291064E+04  0.16445856446E+04  0.86642437845E+02 0.  0.
          4    1    3    3  502    0  0.28082013246E+03  0.28299618788E+02 -0.31273753302E+03  0.42126663739E+03  0.00000000000E+00 0. -1.
         -3    1    3    3    0  502  0.76357893151E+03  0.30573315926E+02 -0.10433768062E+04  0.12932991425E+04  0.00000000000E+00 0.  1.
         11    1    5    5    0    0 -0.20379740316E+03  0.35472675863E+03 -0.52430777745E+03  0.66502864624E+03  0.00000000000E+00 0.  1.
        -11    1    5    5    0    0  0.70176884291E+01  0.17947631001E+02 -0.10642846989E+02  0.22014440748E+02  0.00000000000E+00 0. -1.
          1    1    6    6  503    0 -0.27985771831E+02 -0.75049533423E+01 -0.21058261262E+02  0.35818683909E+02  0.00000000000E+00 0. -1.
         -1    1    6    6    0  503 -0.81963357741E+03 -0.42404237100E+03 -0.13177708451E+04  0.16087669607E+04  0.00000000000E+00 0.  1.
<mgrwt>
<rscale>  0 0.24371037E+04</rscale>
<asrwt>0</asrwt>
<pdfrwt beam="1">  1        2 0.55969910E+00 0.24371037E+04</pdfrwt>
<pdfrwt beam="2">  1       -1 0.62792344E-01 0.24371037E+04</pdfrwt>
<totfact> 0.17036584E+00</totfact>
</mgrwt>
</event>
<event>
12    6  0.1510140E-007  0.1505651E+04  0.7818608E-02  0.8880704E-01
         -1   -1    0    0    0  501 -0.00000000000E+00  0.00000000000E+00  0.17073182042E+03  0.17073182042E+03  0.00000000000E+00 0.  1.
          2   -1    0    0  501    0  0.00000000000E+00 -0.00000000000E+00 -0.33195119585E+04  0.33195119585E+04  0.00000000000E+00 0. -1.
         24    2    1    2    0    0  0.15502721530E+03 -0.53078051138E+02 -0.20550691500E+04  0.20631588783E+04  0.80402914351E+02 0.  0.
        254    2    1    2    0    0 -0.15502721530E+03  0.53078051138E+02 -0.10937109881E+04  0.14270849006E+04  0.90195170117E+03 0.  0.
         23    2    4    4    0    0 -0.25509309550E+03  0.29085351187E+02 -0.12130385092E+04  0.12441386380E+04  0.10246990201E+03 0.  0.
         23    2    4    4    0    0  0.10006588020E+03  0.23992699951E+02  0.11932752112E+03  0.18294626263E+03  0.92959387283E+02 0.  0.
          4    1    3    3  502    0  0.16170907406E+03 -0.54227591414E+02 -0.20311171784E+04  0.20382657945E+04  0.00000000000E+00 0. -1.
         -3    1    3    3    0  502 -0.66818587572E+01  0.11495402759E+01 -0.23951971606E+02  0.24893083841E+02  0.00000000000E+00 0.  1.
         11    1    5    5    0    0 -0.22159047791E+03  0.43062379932E+01 -0.83876925890E+03  0.86755677236E+03  0.00000000000E+00 0. -1.
        -11    1    5    5    0    0 -0.33502617585E+02  0.24779113194E+02 -0.37426925027E+03  0.37658186565E+03  0.00000000000E+00 0.  1.
          1    1    6    6  503    0  0.98125289830E+02  0.51689865502E+02  0.95160432120E+02  0.14613665708E+03  0.00000000000E+00 0. -1.
         -1    1    6    6    0  503  0.19405903650E+01 -0.27697165550E+02  0.24167088999E+02  0.36809605556E+02  0.00000000000E+00 0.  1.
<mgrwt>
<rscale>  0 0.15056511E+04</rscale>
<asrwt>0</asrwt>
<pdfrwt beam="1">  1        2 0.51069407E+00 0.15056511E+04</pdfrwt>
<pdfrwt beam="2">  1       -1 0.26266438E-01 0.15056511E+04</pdfrwt>
<totfact> 0.15465279E+01</totfact>
</mgrwt>
</event>
<event>
12    6  0.1510140E-007  0.1082726E+04  0.7818608E-02  0.9222193E-01
         -1   -1    0    0    0  501 -0.00000000000E+00  0.00000000000E+00  0.18537065586E+03  0.18537065586E+03  0.00000000000E+00 0.  1.
          2   -1    0    0  501    0  0.00000000000E+00 -0.00000000000E+00 -0.15810169124E+04  0.15810169124E+04  0.00000000000E+00 0. -1.
         24    2    1    2    0    0 -0.15020339100E+03  0.13676415527E+02 -0.16608799906E+03  0.23779416684E+03  0.78820932124E+02 0.  0.
        254    2    1    2    0    0  0.15020339100E+03 -0.13676415527E+02 -0.12295582575E+04  0.15285934014E+04  0.89556472424E+03 0.  0.
         23    2    4    4    0    0 -0.29216226999E+03 -0.25227514641E+03 -0.51931439010E+03  0.65374152316E+03  0.93214815574E+02 0.  0.
         23    2    4    4    0    0  0.44236566100E+03  0.23859873088E+03 -0.71024386741E+03  0.87485187827E+03  0.91119291724E+02 0.  0.
          4    1    3    3  502    0 -0.13469663385E+02 -0.20146825084E+02 -0.48854819489E+02  0.54535491013E+02  0.00000000000E+00 0. -1.
         -3    1    3    3    0  502 -0.13673372762E+03  0.33823240611E+02 -0.11723317957E+03  0.18325867583E+03  0.00000000000E+00 0.  1.
         11    1    5    5    0    0 -0.27007778009E+03 -0.18829989330E+03 -0.43807395220E+03  0.54800332546E+03  0.00000000000E+00 0. -1.
        -11    1    5    5    0    0 -0.22084489898E+02 -0.63975253103E+02 -0.81240437902E+02  0.10573819771E+03  0.00000000000E+00 0.  1.
          2    1    6    6  503    0  0.30590695306E+03  0.20380993085E+03 -0.54995038422E+03  0.66148543215E+03  0.00000000000E+00 0. -1.
         -2    1    6    6    0  503  0.13645870794E+03  0.34788800027E+02 -0.16029348319E+03  0.21336644612E+03  0.00000000000E+00 0.  1.
<mgrwt>
<rscale>  0 0.10827265E+04</rscale>
<asrwt>0</asrwt>
<pdfrwt beam="1">  1        2 0.24323337E+00 0.10827265E+04</pdfrwt>
<pdfrwt beam="2">  1       -1 0.28518562E-01 0.10827265E+04</pdfrwt>
<totfact> 0.14422758E+02</totfact>
</mgrwt>
</event>
<event>
12    6  0.1510140E-007  0.1349137E+04  0.7818608E-02  0.8991482E-01
         -1   -1    0    0    0  501 -0.00000000000E+00  0.00000000000E+00  0.64440891419E+03  0.64440891419E+03  0.00000000000E+00 0.  1.
          2   -1    0    0  501    0  0.00000000000E+00 -0.00000000000E+00 -0.70613919247E+03  0.70613919247E+03  0.00000000000E+00 0. -1.
         24    2    1    2    0    0  0.98020358610E+00  0.27182907570E+03  0.23372778942E+03  0.36776522166E+03  0.82040060483E+02 0.  0.
        254    2    1    2    0    0 -0.98020358610E+00 -0.27182907570E+03 -0.29545806770E+03  0.98278288500E+03  0.89703663364E+03 0.  0.
         23    2    4    4    0    0 -0.10524675575E+03  0.44471826832E+02 -0.54013976970E+03  0.55983209534E+03  0.92770583593E+02 0.  0.
         23    2    4    4    0    0  0.10426655216E+03 -0.31630090253E+03  0.24468170200E+03  0.42295078966E+03  0.90002557399E+02 0.  0.
          2    1    3    3  502    0  0.23022190374E+02  0.41732493010E+02  0.69262328088E+02  0.84076704946E+02  0.00000000000E+00 0. -1.
         -1    1    3    3    0  502 -0.22041986788E+02  0.23009658269E+03  0.16446546134E+03  0.28368851672E+03  0.00000000000E+00 0.  1.
         11    1    5    5    0    0 -0.73881339447E+02 -0.16989608614E+02 -0.23243544523E+03  0.24448585914E+03  0.00000000000E+00 0. -1.
        -11    1    5    5    0    0 -0.31365416300E+02  0.61461435446E+02 -0.30770432448E+03  0.31534623621E+03  0.00000000000E+00 0.  1.
          3    1    6    6  503    0  0.31593888949E+02 -0.29697649784E+02  0.77256640820E+01  0.44043275390E+02  0.00000000000E+00 0. -1.
         -3    1    6    6    0  503  0.72672663212E+02 -0.28660325274E+03  0.23695603792E+03  0.37890751427E+03  0.00000000000E+00 0.  1.
<mgrwt>
<rscale>  0 0.13491366E+04</rscale>
<asrwt>0</asrwt>
<pdfrwt beam="1">  1        2 0.10863680E+00 0.13491366E+04</pdfrwt>
<pdfrwt beam="2">  1       -1 0.99139833E-01 0.13491366E+04</pdfrwt>
<totfact> 0.43971415E+01</totfact>
</mgrwt>
</event>
<event>
12    6  0.1510140E-007  0.1547462E+04  0.7818608E-02  0.8853491E-01
          2   -1    0    0  501    0  0.00000000000E+00  0.00000000000E+00  0.24560663592E+04  0.24560663592E+04  0.00000000000E+00 0. -1.
         -1   -1    0    0    0  501 -0.00000000000E+00 -0.00000000000E+00 -0.24374734128E+03  0.24374734128E+03  0.00000000000E+00 0.  1.
         24    2    1    2    0    0 -0.30452509455E+03 -0.23453951303E+03  0.15885046285E+03  0.42349375742E+03  0.79807121492E+02 0.  0.
        254    2    1    2    0    0  0.30452509455E+03  0.23453951303E+03  0.20534685551E+04  0.22763199431E+04  0.90396629370E+03 0.  0.
         23    2    4    4    0    0  0.53290880809E+03 -0.61557617289E+02  0.82076289881E+03  0.98492626217E+03  0.92988536250E+02 0.  0.
         23    2    4    4    0    0 -0.22838371354E+03  0.29609713032E+03  0.12327056563E+04  0.12913936809E+04  0.91114065137E+02 0.  0.
          2    1    3    3  502    0 -0.50292678061E+02 -0.15298391134E+02  0.11287447734E+01  0.52580113186E+02  0.00000000000E+00 0. -1.
         -1    1    3    3    0  502 -0.25423241649E+03 -0.21924112190E+03  0.15772171808E+03  0.37091364424E+03  0.00000000000E+00 0.  1.
         11    1    5    5    0    0  0.33964275164E+03 -0.19752836371E+01  0.55963418253E+03  0.65463846415E+03  0.00000000000E+00 0. -1.
        -11    1    5    5    0    0  0.19326605645E+03 -0.59582333652E+02  0.26112871628E+03  0.33028779802E+03  0.00000000000E+00 0.  1.
          3    1    6    6  503    0 -0.20653223646E+03  0.20488092137E+03  0.91540271097E+03  0.96051750629E+03  0.00000000000E+00 0. -1.
         -3    1    6    6    0  503 -0.21851477076E+02  0.91216208952E+02  0.31730294533E+03  0.33087617463E+03  0.00000000000E+00 0.  1.
<mgrwt>
<rscale>  0 0.15474620E+04</rscale>
<asrwt>0</asrwt>
<pdfrwt beam="1">  1        2 0.37785635E+00 0.15474620E+04</pdfrwt>
<pdfrwt beam="2">  1       -1 0.37499593E-01 0.15474620E+04</pdfrwt>
<totfact> 0.27788304E+01</totfact>
</mgrwt>
</event>
<event>
12    6  0.1510140E-007  0.1495828E+04  0.7818608E-02  0.8887232E-01
          2   -1    0    0  501    0  0.00000000000E+00  0.00000000000E+00  0.18620494889E+04  0.18620494889E+04  0.00000000000E+00 0. -1.
         -1   -1    0    0    0  501 -0.00000000000E+00 -0.00000000000E+00 -0.30040832201E+03  0.30040832201E+03  0.00000000000E+00 0.  1.
         24    2    1    2    0    0 -0.57406419373E+02  0.12718344006E+02  0.11691724145E+04  0.11734157977E+04  0.80518607922E+02 0.  0.
        254    2    1    2    0    0  0.57406419373E+02 -0.12718344006E+02  0.39246875242E+03  0.98904201323E+03  0.90593329173E+03 0.  0.
         23    2    4    4    0    0  0.19475898171E+03 -0.28469560833E+02 -0.24723207349E+03  0.32884156368E+03  0.90947781685E+02 0.  0.
         23    2    4    4    0    0 -0.13735256234E+03  0.15751216828E+02  0.63970082590E+03  0.66020044955E+03  0.86796657272E+02 0.  0.
          2    1    3    3  502    0 -0.64512016390E+02 -0.12618579430E+02  0.59091927792E+03  0.59456422850E+03  0.00000000000E+00 0. -1.
         -1    1    3    3    0  502  0.71055970167E+01  0.25336923436E+02  0.57825313658E+03  0.57885156920E+03  0.00000000000E+00 0.  1.
         11    1    5    5    0    0  0.19102716762E+03 -0.19016031704E+02 -0.18782914243E+03  0.26857545490E+03  0.00000000000E+00 0. -1.
        -11    1    5    5    0    0  0.37318140955E+01 -0.94535291293E+01 -0.59402931061E+02  0.60266108784E+02  0.00000000000E+00 0.  1.
          2    1    6    6  503    0 -0.14188092705E+03  0.17719700589E+02  0.63946681288E+03  0.65525719380E+03  0.00000000000E+00 0. -1.
         -2    1    6    6    0  503  0.45283647130E+01 -0.19684837615E+01  0.23401301829E+00  0.49432557476E+01  0.00000000000E+00 0.  1.
<mgrwt>
<rscale>  0 0.14958277E+04</rscale>
<asrwt>0</asrwt>
<pdfrwt beam="1">  1        2 0.28646914E+00 0.14958277E+04</pdfrwt>
<pdfrwt beam="2">  1       -1 0.46216666E-01 0.14958277E+04</pdfrwt>
<totfact> 0.40886557E+01</totfact>
</mgrwt>
</event>
<event>
12    6  0.1510140E-007  0.1209250E+04  0.7818608E-02  0.9104798E-01
         -1   -1    0    0    0  501 -0.00000000000E+00  0.00000000000E+00  0.11618432358E+03  0.11618432358E+03  0.00000000000E+00 0.  1.
          2   -1    0    0  501    0  0.00000000000E+00 -0.00000000000E+00 -0.31464770922E+04  0.31464770922E+04  0.00000000000E+00 0. -1.
         24    2    1    2    0    0 -0.11377189814E+03 -0.22796667915E+03 -0.54136829428E+03  0.60374076823E+03  0.80687257697E+02 0.  0.
        254    2    1    2    0    0  0.11377189814E+03  0.22796667915E+03 -0.24889244744E+04  0.26589206476E+04  0.90011172609E+03 0.  0.
         23    2    4    4    0    0 -0.40130560459E+02 -0.39911914852E+02  0.38373143346E+02  0.11115927308E+03  0.87638250964E+02 0.  0.
         23    2    4    4    0    0  0.15390245860E+03  0.26787859400E+03 -0.25272976177E+04  0.25477613745E+04  0.91705316233E+02 0.  0.
          4    1    3    3  502    0 -0.12480481745E+03 -0.18710864655E+03 -0.45808442118E+03  0.51032070799E+03  0.00000000000E+00 0. -1.
         -3    1    3    3    0  502  0.11032919304E+02 -0.40858032600E+02 -0.83283873097E+02  0.93420060235E+02  0.00000000000E+00 0.  1.
         11    1    5    5    0    0 -0.77248666170E+00 -0.57782282437E+02  0.35539685000E+02  0.67841418832E+02  0.00000000000E+00 0.  1.
        -11    1    5    5    0    0 -0.39358073797E+02  0.17870367585E+02  0.28334583464E+01  0.43317854251E+02  0.00000000000E+00 0. -1.
          2    1    6    6  503    0  0.13420858542E+00  0.82548131842E+01 -0.12852096957E+02  0.15275351022E+02  0.00000000000E+00 0. -1.
         -2    1    6    6    0  503  0.15376825002E+03  0.25962378082E+03 -0.25144455207E+04  0.25324860235E+04  0.00000000000E+00 0.  1.
<mgrwt>
<rscale>  0 0.12092499E+04</rscale>
<asrwt>0</asrwt>
<pdfrwt beam="1">  1        2 0.48407342E+00 0.12092499E+04</pdfrwt>
<pdfrwt beam="2">  1       -1 0.17874510E-01 0.12092499E+04</pdfrwt>
<totfact> 0.39593893E+01</totfact>
</mgrwt>
</event>
<event>
12    6  0.1510140E-007  0.2860038E+04  0.7818608E-02  0.8284868E-01
         -1   -1    0    0    0  501 -0.00000000000E+00  0.00000000000E+00  0.88537393863E+03  0.88537393863E+03  0.00000000000E+00 0.  1.
          2   -1    0    0  501    0  0.00000000000E+00 -0.00000000000E+00 -0.23097064229E+04  0.23097064229E+04  0.00000000000E+00 0. -1.
         24    2    1    2    0    0 -0.25398340519E+03  0.10591009995E+04 -0.14041230657E+04  0.17789317442E+04  0.82668431778E+02 0.  0.
        254    2    1    2    0    0  0.25398340519E+03 -0.10591009995E+04 -0.20209418574E+02  0.14161486174E+04  0.90491214417E+03 0.  0.
         23    2    4    4    0    0  0.38451659381E+03 -0.37794227847E+03 -0.34318393209E+03  0.64567048436E+03  0.91770291276E+02 0.  0.
         23    2    4    4    0    0 -0.13053318862E+03 -0.68115872100E+03  0.32297451351E+03  0.77047813300E+03  0.91147685225E+02 0.  0.
          2    1    3    3  502    0 -0.22319168794E+03  0.86840530842E+03 -0.11074798497E+04  0.14249399730E+04  0.00000000000E+00 0. -1.
         -1    1    3    3    0  502 -0.30791717251E+02  0.19069569106E+03 -0.29664321603E+03  0.35399177117E+03  0.00000000000E+00 0.  1.
         11    1    5    5    0    0  0.87808005700E+02 -0.11192806838E+03 -0.49429089877E+02  0.15060336411E+03  0.00000000000E+00 0.  1.
        -11    1    5    5    0    0  0.29670858811E+03 -0.26601421009E+03 -0.29375484221E+03  0.49506712025E+03  0.00000000000E+00 0. -1.
          4    1    6    6  503    0 -0.11354429499E+03 -0.56449828646E+03  0.30381363687E+03  0.65104020482E+03  0.00000000000E+00 0. -1.
         -4    1    6    6    0  503 -0.16988893637E+02 -0.11666043454E+03  0.19160876641E+02  0.11943792818E+03  0.00000000000E+00 0.  1.
<mgrwt>
<rscale>  0 0.28600377E+04</rscale>
<asrwt>0</asrwt>
<pdfrwt beam="1">  1        2 0.35533944E+00 0.28600377E+04</pdfrwt>
<pdfrwt beam="2">  1       -1 0.13621138E+00 0.28600377E+04</pdfrwt>
<totfact> 0.19837588E+00</totfact>
</mgrwt>
</event>
<event>
12    6  0.1510140E-007  0.2259945E+04  0.7818608E-02  0.8493884E-01
         -1   -1    0    0    0  501 -0.00000000000E+00  0.00000000000E+00  0.94251498922E+03  0.94251498922E+03  0.00000000000E+00 0.  1.
          2   -1    0    0  501    0  0.00000000000E+00 -0.00000000000E+00 -0.13547135251E+04  0.13547135251E+04  0.00000000000E+00 0. -1.
         24    2    1    2    0    0  0.57937922457E+03  0.69998994500E+03 -0.45044227083E+03  0.10171967147E+04  0.78260514727E+02 0.  0.
        254    2    1    2    0    0 -0.57937922457E+03 -0.69998994500E+03  0.38243734970E+02  0.12800317996E+04  0.90075113970E+03 0.  0.
         23    2    4    4    0    0 -0.35864962609E+03 -0.15668039717E+03  0.41471746296E+03  0.57756496366E+03  0.91719202007E+02 0.  0.
         23    2    4    4    0    0 -0.22072959848E+03 -0.54330954783E+03 -0.37647372799E+03  0.70246683591E+03  0.88432840443E+02 0.  0.
          2    1    3    3  502    0  0.31983778373E+03  0.40026820078E+03 -0.21158365176E+03  0.55432705342E+03  0.00000000000E+00 0. -1.
         -1    1    3    3    0  502  0.25954144083E+03  0.29972174422E+03 -0.23885861907E+03  0.46286966133E+03  0.00000000000E+00 0.  1.
         11    1    5    5    0    0 -0.73529936667E+02 -0.17578746054E+02  0.36613461328E+02  0.84001246715E+02  0.00000000000E+00 0. -1.
        -11    1    5    5    0    0 -0.28511968942E+03 -0.13910165111E+03  0.37810400163E+03  0.49356371695E+03  0.00000000000E+00 0.  1.
          3    1    6    6  503    0 -0.12720762263E+02 -0.11582018310E+03 -0.57222015058E+02  0.12980944347E+03  0.00000000000E+00 0. -1.
         -3    1    6    6    0  503 -0.20800883622E+03 -0.42748936473E+03 -0.31925171293E+03  0.57265739243E+03  0.00000000000E+00 0.  1.
<mgrwt>
<rscale>  0 0.22599450E+04</rscale>
<asrwt>0</asrwt>
<pdfrwt beam="1">  1        2 0.20841747E+00 0.22599450E+04</pdfrwt>
<pdfrwt beam="2">  1       -1 0.14500231E+00 0.22599450E+04</pdfrwt>
<totfact> 0.60851464E+00</totfact>
</mgrwt>
</event>
<event>
12    6  0.1510140E-007  0.1400243E+04  0.7818608E-02  0.8953643E-01
          2   -1    0    0  501    0  0.00000000000E+00  0.00000000000E+00  0.99066153465E+03  0.99066153465E+03  0.00000000000E+00 0. -1.
         -1   -1    0    0    0  501 -0.00000000000E+00 -0.00000000000E+00 -0.49479077885E+03  0.49479077885E+03  0.00000000000E+00 0.  1.
         24    2    1    2    0    0  0.36023360246E+03 -0.11039947787E+03 -0.50973171862E+01  0.38489520409E+03  0.78498677946E+02 0.  0.
        254    2    1    2    0    0 -0.36023360246E+03  0.11039947787E+03  0.50096807298E+03  0.11005571094E+04  0.90459971693E+03 0.  0.
         23    2    4    4    0    0  0.17332817490E+03  0.14447890407E+03  0.50253792157E+03  0.55828652918E+03  0.90678972802E+02 0.  0.
         23    2    4    4    0    0 -0.53356177735E+03 -0.34079426204E+02 -0.15698485880E+01  0.54227058023E+03  0.90583333006E+02 0.  0.
          4    1    3    3  502    0  0.46053590104E+02  0.63866470960E+01 -0.16988149483E+02  0.49500703484E+02  0.00000000000E+00 0. -1.
         -3    1    3    3    0  502  0.31418001235E+03 -0.11678612497E+03  0.11890832297E+02  0.33539450061E+03  0.00000000000E+00 0.  1.
         11    1    5    5    0    0  0.83770062173E+02  0.14147056883E+02  0.16829632320E+03  0.18852377818E+03  0.00000000000E+00 0.  1.
        -11    1    5    5    0    0  0.89558112724E+02  0.13033184719E+03  0.33424159837E+03  0.36976275100E+03  0.00000000000E+00 0. -1.
          1    1    6    6  503    0 -0.29104134972E+03 -0.58786189868E+02 -0.21403316292E+02  0.29768941082E+03  0.00000000000E+00 0. -1.
         -1    1    6    6    0  503 -0.24252042763E+03  0.24706763664E+02  0.19833467704E+02  0.24458116941E+03  0.00000000000E+00 0.  1.
<mgrwt>
<rscale>  0 0.14002431E+04</rscale>
<asrwt>0</asrwt>
<pdfrwt beam="1">  1        2 0.15240947E+00 0.14002431E+04</pdfrwt>
<pdfrwt beam="2">  1       -1 0.76121659E-01 0.14002431E+04</pdfrwt>
<totfact> 0.49162517E+01</totfact>
</mgrwt>
</event>
<event>
12    6  0.1510140E-007  0.1805917E+04  0.7818608E-02  0.8703159E-01
         -1   -1    0    0    0  501 -0.00000000000E+00  0.00000000000E+00  0.23229099951E+03  0.23229099951E+03  0.00000000000E+00 0.  1.
          2   -1    0    0  501    0  0.00000000000E+00 -0.00000000000E+00 -0.35099684085E+04  0.35099684085E+04  0.00000000000E+00 0. -1.
         24    2    1    2    0    0 -0.15083703509E+03  0.64576200252E+03 -0.14122949459E+04  0.15622771692E+04  0.79828340959E+02 0.  0.
        254    2    1    2    0    0  0.15083703509E+03 -0.64576200252E+03 -0.18653824631E+04  0.21799822389E+04  0.91263927873E+03 0.  0.
         23    2    4    4    0    0  0.77530041708E+02 -0.29190290845E+03 -0.40252421102E+02  0.31722571679E+03  0.88281836547E+02 0.  0.
         23    2    4    4    0    0  0.73306993380E+02 -0.35385909407E+03 -0.18251300420E+04  0.18627565221E+04  0.90399206787E+02 0.  0.
          2    1    3    3  502    0 -0.10179059470E+03  0.52193243671E+03 -0.10665350947E+04  0.11917516108E+04  0.00000000000E+00 0. -1.
         -1    1    3    3    0  502 -0.49046440391E+02  0.12382956581E+03 -0.34575985126E+03  0.37052555840E+03  0.00000000000E+00 0.  1.
         11    1    5    5    0    0  0.32690425154E+02 -0.29735057301E+02  0.12808799730E+02  0.46009812866E+02  0.00000000000E+00 0. -1.
        -11    1    5    5    0    0  0.44839616554E+02 -0.26216785115E+03 -0.53061220832E+02  0.27121590393E+03  0.00000000000E+00 0.  1.
          2    1    6    6  503    0  0.60305978051E+02 -0.32849534240E+03 -0.15180044058E+04  0.15543112227E+04  0.00000000000E+00 0. -1.
         -2    1    6    6    0  503  0.13001015329E+02 -0.25363751672E+02 -0.30712563621E+03  0.30844529939E+03  0.00000000000E+00 0.  1.
<mgrwt>
<rscale>  0 0.18059170E+04</rscale>
<asrwt>0</asrwt>
<pdfrwt beam="1">  1        2 0.53999508E+00 0.18059170E+04</pdfrwt>
<pdfrwt beam="2">  1       -1 0.35737081E-01 0.18059170E+04</pdfrwt>
<totfact> 0.64767313E+00</totfact>
</mgrwt>
</event>
<event>
12    6  0.1510140E-007  0.1442997E+04  0.7818608E-02  0.8923270E-01
         -1   -1    0    0    0  501 -0.00000000000E+00  0.00000000000E+00  0.48399194087E+03  0.48399194087E+03  0.00000000000E+00 0.  1.
          2   -1    0    0  501    0  0.00000000000E+00 -0.00000000000E+00 -0.10755547875E+04  0.10755547875E+04  0.00000000000E+00 0. -1.
         24    2    1    2    0    0  0.19334293620E+03  0.39630966910E+03 -0.21169270821E+03  0.49505652541E+03  0.76317205374E+02 0.  0.
        254    2    1    2    0    0 -0.19334293620E+03 -0.39630966910E+03 -0.37987013840E+03  0.10644902029E+04  0.89128851967E+03 0.  0.
         23    2    4    4    0    0 -0.49096939168E+03 -0.45030516842E+03 -0.20162559819E+03  0.70197593356E+03  0.91058449240E+02 0.  0.
         23    2    4    4    0    0  0.29762645548E+03  0.53995499316E+02 -0.17824454021E+03  0.36251426938E+03  0.90268812107E+02 0.  0.
          4    1    3    3  502    0  0.62204206362E+02  0.15682263486E+03 -0.42984287455E+02  0.17409868197E+03  0.00000000000E+00 0. -1.
         -3    1    3    3    0  502  0.13113872983E+03  0.23948703424E+03 -0.16870842075E+03  0.32095784344E+03  0.00000000000E+00 0.  1.
         11    1    5    5    0    0 -0.71204777052E+01  0.40150376406E+01 -0.56368429201E+01  0.99295381620E+01  0.00000000000E+00 0. -1.
        -11    1    5    5    0    0 -0.48384891397E+03 -0.45432020606E+03 -0.19598875527E+03  0.69204639540E+03  0.00000000000E+00 0.  1.
          3    1    6    6  503    0  0.30364013116E+02  0.50803261845E+01  0.95444391165E+01  0.32231650977E+02  0.00000000000E+00 0. -1.
         -3    1    6    6    0  503  0.26726244237E+03  0.48915173132E+02 -0.18778897932E+03  0.33028261840E+03  0.00000000000E+00 0.  1.
<mgrwt>
<rscale>  0 0.14429967E+04</rscale>
<asrwt>0</asrwt>
<pdfrwt beam="1">  1        2 0.16546997E+00 0.14429967E+04</pdfrwt>
<pdfrwt beam="2">  1       -1 0.74460299E-01 0.14429967E+04</pdfrwt>
<totfact> 0.45329158E+01</totfact>
</mgrwt>
</event>
<event>
12    6  0.1510140E-007  0.5402095E+04  0.7818608E-02  0.7769306E-01
         -1   -1    0    0    0  501 -0.00000000000E+00  0.00000000000E+00  0.16433343981E+04  0.16433343981E+04  0.00000000000E+00 0.  1.
          2   -1    0    0  501    0  0.00000000000E+00 -0.00000000000E+00 -0.44395457475E+04  0.44395457475E+04  0.00000000000E+00 0. -1.
         24    2    1    2    0    0  0.56070555672E+03  0.21891059543E+04 -0.28632395739E+04  0.36486282265E+04  0.88155984160E+02 0.  0.
        254    2    1    2    0    0 -0.56070555672E+03 -0.21891059543E+04  0.67028224494E+02  0.24342519191E+04  0.90250430615E+03 0.  0.
         23    2    4    4    0    0 -0.20754140703E+03 -0.13079201753E+04  0.45686495381E+03  0.14037666341E+04  0.90036418125E+02 0.  0.
         23    2    4    4    0    0 -0.35316414969E+03 -0.88118577898E+03 -0.38983672932E+03  0.10304852850E+04  0.93348558362E+02 0.  0.
          2    1    3    3  502    0  0.54197678774E+03  0.20869367724E+04 -0.27024720811E+04  0.34572242160E+04  0.00000000000E+00 0. -1.
         -1    1    3    3    0  502  0.18728768977E+02  0.10216918181E+03 -0.16076749282E+03  0.19140401053E+03  0.00000000000E+00 0.  1.
         11    1    5    5    0    0  0.32479168873E+00 -0.18884347899E+03  0.75143753615E+02  0.20324504607E+03  0.00000000000E+00 0.  1.
        -11    1    5    5    0    0 -0.20786619872E+03 -0.11190766963E+04  0.38172120019E+03  0.12005215881E+04  0.00000000000E+00 0. -1.
          4    1    6    6  503    0 -0.22800472177E+03 -0.51741014796E+03 -0.27667423772E+03  0.62948236526E+03  0.00000000000E+00 0. -1.
         -4    1    6    6    0  503 -0.12515942792E+03 -0.36377563102E+03 -0.11316249159E+03  0.40100291972E+03  0.00000000000E+00 0.  1.
<mgrwt>
<rscale>  0 0.54020952E+04</rscale>
<asrwt>0</asrwt>
<pdfrwt beam="1">  1        2 0.68300704E+00 0.54020952E+04</pdfrwt>
<pdfrwt beam="2">  1       -1 0.25282068E+00 0.54020952E+04</pdfrwt>
<totfact> 0.74557165E-03</totfact>
</mgrwt>
</event>
<event>
12    6  0.1510140E-007  0.2172934E+04  0.7818608E-02  0.8529779E-01
         -1   -1    0    0    0  501 -0.00000000000E+00  0.00000000000E+00  0.86271789374E+03  0.86271789374E+03  0.00000000000E+00 0.  1.
          2   -1    0    0  501    0  0.00000000000E+00 -0.00000000000E+00 -0.13682464411E+04  0.13682464411E+04  0.00000000000E+00 0. -1.
         24    2    1    2    0    0 -0.35420607865E+03 -0.81206055294E+03 -0.34950154346E+03  0.95565732537E+03  0.78900613773E+02 0.  0.
        254    2    1    2    0    0  0.35420607865E+03  0.81206055294E+03 -0.15602700392E+03  0.12753070095E+04  0.90396861378E+03 0.  0.
         23    2    4    4    0    0 -0.20041338667E+03 -0.60846288908E+02 -0.17568831252E+02  0.22820961947E+03  0.88899775902E+02 0.  0.
         23    2    4    4    0    0  0.55461946532E+03  0.87290684185E+03 -0.13845817267E+03  0.10470973900E+04  0.87596647911E+02 0.  0.
          2    1    3    3  502    0 -0.94229186206E+02 -0.15848598505E+03 -0.96879494680E+02  0.20828486138E+03  0.00000000000E+00 0. -1.
         -1    1    3    3    0  502 -0.25997689244E+03 -0.65357456790E+03 -0.25262204878E+03  0.74737246399E+03  0.00000000000E+00 0.  1.
         11    1    5    5    0    0 -0.18594657156E+03 -0.43311008230E+02 -0.41307787325E+02  0.19534150660E+03  0.00000000000E+00 0.  1.
        -11    1    5    5    0    0 -0.14466815116E+02 -0.17535280678E+02  0.23738956073E+02  0.32868112868E+02  0.00000000000E+00 0. -1.
          3    1    6    6  503    0  0.17186504689E+03  0.26317884549E+03 -0.82751508319E+02  0.32503616904E+03  0.00000000000E+00 0. -1.
         -3    1    6    6    0  503  0.38275441844E+03  0.60972799637E+03 -0.55706664350E+02  0.72206122098E+03  0.00000000000E+00 0.  1.
<mgrwt>
<rscale>  0 0.21729341E+04</rscale>
<asrwt>0</asrwt>
<pdfrwt beam="1">  1        2 0.21049945E+00 0.21729341E+04</pdfrwt>
<pdfrwt beam="2">  1       -1 0.13272583E+00 0.21729341E+04</pdfrwt>
<totfact> 0.75800877E+00</totfact>
</mgrwt>
</event>
<event>
12    6  0.1510140E-007  0.1612652E+04  0.7818608E-02  0.8812813E-01
          2   -1    0    0  501    0  0.00000000000E+00  0.00000000000E+00  0.26363638253E+04  0.26363638253E+04  0.00000000000E+00 0. -1.
         -1   -1    0    0    0  501 -0.00000000000E+00 -0.00000000000E+00 -0.24661286646E+03  0.24661286646E+03  0.00000000000E+00 0.  1.
         24    2    1    2    0    0 -0.57916477664E+02  0.47250720240E+02  0.18027770240E+04  0.18059574105E+04  0.76747776227E+02 0.  0.
        254    2    1    2    0    0  0.57916477664E+02 -0.47250720240E+02  0.58697393483E+03  0.10770192813E+04  0.89991398654E+03 0.  0.
         23    2    4    4    0    0  0.37762687522E+03  0.16059830430E+03  0.53623562305E+03  0.68158577634E+03  0.92825938462E+02 0.  0.
         23    2    4    4    0    0 -0.31971039755E+03 -0.20784902454E+03  0.50738311783E+02  0.39543350496E+03  0.91527729469E+02 0.  0.
          4    1    3    3  502    0 -0.60618404256E+02  0.62778393532E+02  0.12957079662E+04  0.12986434658E+04  0.00000000000E+00 0. -1.
         -3    1    3    3    0  502  0.27019265921E+01 -0.15527673292E+02  0.50706905786E+03  0.50731394469E+03  0.00000000000E+00 0.  1.
         11    1    5    5    0    0  0.28191186468E+03  0.11984851610E+03  0.32793494057E+03  0.44875304067E+03  0.00000000000E+00 0. -1.
        -11    1    5    5    0    0  0.95715010533E+02  0.40749788193E+02  0.20830068248E+03  0.23283273567E+03  0.00000000000E+00 0.  1.
          2    1    6    6  503    0 -0.20589526464E+03 -0.10925236079E+03 -0.94264417208E+01  0.23327622284E+03  0.00000000000E+00 0.  1.
         -2    1    6    6    0  503 -0.11381513291E+03 -0.98596663742E+02  0.60164753504E+02  0.16215728212E+03  0.00000000000E+00 0. -1.
<mgrwt>
<rscale>  0 0.16126515E+04</rscale>
<asrwt>0</asrwt>
<pdfrwt beam="1">  1        2 0.40559441E+00 0.16126515E+04</pdfrwt>
<pdfrwt beam="2">  1       -1 0.37940443E-01 0.16126515E+04</pdfrwt>
<totfact> 0.21259220E+01</totfact>
</mgrwt>
</event>
<event>
12    6  0.1510140E-007  0.1579337E+04  0.7818608E-02  0.8833343E-01
          2   -1    0    0  501    0  0.00000000000E+00  0.00000000000E+00  0.16732690508E+04  0.16732690508E+04  0.00000000000E+00 0. -1.
         -1   -1    0    0    0  501 -0.00000000000E+00 -0.00000000000E+00 -0.37266968407E+03  0.37266968407E+03  0.00000000000E+00 0.  1.
         24    2    1    2    0    0 -0.23082660871E+03  0.24319474627E+03 -0.93867040377E+02  0.35717392970E+03  0.79608962326E+02 0.  0.
        254    2    1    2    0    0  0.23082660871E+03 -0.24319474627E+03  0.13944664071E+04  0.16887648051E+04  0.89160832134E+03 0.  0.
         23    2    4    4    0    0 -0.20444067928E+03  0.45628458742E+02  0.36405913441E+02  0.23083820719E+03  0.89905171008E+02 0.  0.
         23    2    4    4    0    0  0.43526728799E+03 -0.28882320502E+03  0.13580604936E+04  0.14579265979E+04  0.91352092884E+02 0.  0.
          4    1    3    3  502    0 -0.13017424547E+03  0.15893104250E+03 -0.19642008822E+02  0.20637397841E+03  0.00000000000E+00 0. -1.
         -3    1    3    3    0  502 -0.10065236323E+03  0.84263703777E+02 -0.74225031555E+02  0.15079995129E+03  0.00000000000E+00 0.  1.
         11    1    5    5    0    0 -0.13509196385E+03  0.65527505970E+02  0.26664420469E+00  0.15014580858E+03  0.00000000000E+00 0. -1.
        -11    1    5    5    0    0 -0.69348715429E+02 -0.19899047228E+02  0.36139269236E+02  0.80692398608E+02  0.00000000000E+00 0.  1.
          1    1    6    6  503    0  0.42631350075E+03 -0.27933125129E+03  0.13489154334E+04  0.14419923700E+04  0.00000000000E+00 0. -1.
         -1    1    6    6    0  503  0.89537872347E+01 -0.94919537304E+01  0.91450602467E+01  0.15934227888E+02  0.00000000000E+00 0.  1.
<mgrwt>
<rscale>  0 0.15793374E+04</rscale>
<asrwt>0</asrwt>
<pdfrwt beam="1">  1        2 0.25742600E+00 0.15793374E+04</pdfrwt>
<pdfrwt beam="2">  1       -1 0.57333799E-01 0.15793374E+04</pdfrwt>
<totfact> 0.34209530E+01</totfact>
</mgrwt>
</event>
<event>
12    6  0.1510140E-007  0.2118494E+04  0.7818608E-02  0.8553140E-01
          2   -1    0    0  501    0  0.00000000000E+00  0.00000000000E+00  0.16706623734E+04  0.16706623734E+04  0.00000000000E+00 0. -1.
         -1   -1    0    0    0  501 -0.00000000000E+00 -0.00000000000E+00 -0.67159250389E+03  0.67159250389E+03  0.00000000000E+00 0.  1.
         24    2    1    2    0    0 -0.14713394573E+03  0.66876328726E+03 -0.17578877812E+03  0.71130274982E+03  0.78467668606E+02 0.  0.
        254    2    1    2    0    0  0.14713394573E+03 -0.66876328726E+03  0.11748586476E+04  0.16309521275E+04  0.90045503378E+03 0.  0.
         23    2    4    4    0    0  0.33352108861E+03  0.77944206070E+02  0.41007310444E+03  0.54200430141E+03  0.91088396348E+02 0.  0.
         23    2    4    4    0    0 -0.18638714288E+03 -0.74670749333E+03  0.76478554320E+03  0.10889478261E+04  0.92726442966E+02 0.  0.
          4    1    3    3  502    0 -0.11934596593E+02  0.18566410567E+03 -0.26677379606E+02  0.18795019902E+03  0.00000000000E+00 0. -1.
         -3    1    3    3    0  502 -0.13519934913E+03  0.48309918159E+03 -0.14911139851E+03  0.52335255080E+03  0.00000000000E+00 0.  1.
         11    1    5    5    0    0  0.18152973074E+03  0.88492421446E+02  0.22716027392E+03  0.30395022922E+03  0.00000000000E+00 0. -1.
        -11    1    5    5    0    0  0.15199135787E+03 -0.10548215376E+02  0.18291283053E+03  0.23805407219E+03  0.00000000000E+00 0.  1.
          4    1    6    6  503    0 -0.11448945843E+03 -0.38094700122E+03  0.45414362708E+03  0.60371755635E+03  0.00000000000E+00 0. -1.
         -4    1    6    6    0  503 -0.71897684454E+02 -0.36576049210E+03  0.31064191613E+03  0.48523026974E+03  0.00000000000E+00 0.  1.
<mgrwt>
<rscale>  0 0.21184941E+04</rscale>
<asrwt>0</asrwt>
<pdfrwt beam="1">  1        2 0.25702498E+00 0.21184941E+04</pdfrwt>
<pdfrwt beam="2">  1       -1 0.10332192E+00 0.21184941E+04</pdfrwt>
<totfact> 0.94321496E+00</totfact>
</mgrwt>
</event>
<event>
12    6  0.1510140E-007  0.1525112E+04  0.7818608E-02  0.8867924E-01
          2   -1    0    0  501    0  0.00000000000E+00  0.00000000000E+00  0.83453413374E+03  0.83453413374E+03  0.00000000000E+00 0. -1.
         -1   -1    0    0    0  501 -0.00000000000E+00 -0.00000000000E+00 -0.69678559598E+03  0.69678559598E+03  0.00000000000E+00 0.  1.
         24    2    1    2    0    0 -0.20652449497E+01  0.13731148700E+03  0.52195545326E+03  0.54662808433E+03  0.86637507451E+02 0.  0.
        254    2    1    2    0    0  0.20652449497E+01 -0.13731148700E+03 -0.38420691550E+03  0.98469164539E+03  0.89618300189E+03 0.  0.
         23    2    4    4    0    0 -0.12126135911E+03  0.11610285392E+03 -0.59370335954E+03  0.62248951434E+03  0.82615533830E+02 0.  0.
         23    2    4    4    0    0  0.12332660406E+03 -0.25341434092E+03  0.20949644404E+03  0.36220213105E+03  0.88731866990E+02 0.  0.
          4    1    3    3  502    0  0.27315373104E+02  0.11614852804E+03  0.32146355719E+03  0.34289273655E+03  0.00000000000E+00 0. -1.
         -1    1    3    3    0  502 -0.29380618054E+02  0.21162958952E+02  0.20049189606E+03  0.20373534778E+03  0.00000000000E+00 0.  1.
         11    1    5    5    0    0 -0.12178749767E+02  0.60083859211E+02 -0.25517128164E+03  0.26243241999E+03  0.00000000000E+00 0. -1.
        -11    1    5    5    0    0 -0.10908260934E+03  0.56018994712E+02 -0.33853207789E+03  0.36005709435E+03  0.00000000000E+00 0.  1.
          3    1    6    6  503    0  0.26311276036E+02 -0.34258414027E+02  0.77149718509E+02  0.88419461909E+02  0.00000000000E+00 0. -1.
         -3    1    6    6    0  503  0.97015328020E+02 -0.21915592689E+03  0.13234672553E+03  0.27378266914E+03  0.00000000000E+00 0.  1.
<mgrwt>
<rscale>  0 0.15251116E+04</rscale>
<asrwt>0</asrwt>
<pdfrwt beam="1">  1        2 0.12838987E+00 0.15251116E+04</pdfrwt>
<pdfrwt beam="2">  1       -1 0.10719778E+00 0.15251116E+04</pdfrwt>
<totfact> 0.29066510E+01</totfact>
</mgrwt>
</event>
<event>
12    6  0.1510140E-007  0.1672194E+04  0.7818608E-02  0.8777384E-01
         -1   -1    0    0    0  501 -0.00000000000E+00  0.00000000000E+00  0.76691025211E+03  0.76691025211E+03  0.00000000000E+00 0.  1.
          2   -1    0    0  501    0  0.00000000000E+00 -0.00000000000E+00 -0.91152560237E+03  0.91152560237E+03  0.00000000000E+00 0. -1.
         24    2    1    2    0    0 -0.23887932599E+03 -0.70044215510E+02 -0.58726950013E+03  0.64268797892E+03  0.78694650082E+02 0.  0.
        254    2    1    2    0    0  0.23887932599E+03  0.70044215510E+02  0.44265414987E+03  0.10357478756E+04  0.90269676015E+03 0.  0.
         23    2    4    4    0    0 -0.21087870114E+03 -0.96491888428E+02 -0.13219202303E+03  0.28200876891E+03  0.90959901403E+02 0.  0.
         23    2    4    4    0    0  0.44975802713E+03  0.16653610394E+03  0.57484617290E+03  0.75373910664E+03  0.87509779441E+02 0.  0.
          2    1    3    3  502    0 -0.16799794931E+03 -0.62282093923E+02 -0.49257341977E+03  0.52414782653E+03  0.00000000000E+00 0. -1.
         -1    1    3    3    0  502 -0.70881376686E+02 -0.77621215873E+01 -0.94696080361E+02  0.11854015239E+03  0.00000000000E+00 0.  1.
         11    1    5    5    0    0  0.23853726577E+01 -0.47527668689E+01  0.88790093387E+01  0.10349666780E+02  0.00000000000E+00 0.  1.
        -11    1    5    5    0    0 -0.21326407379E+03 -0.91739121559E+02 -0.14107103237E+03  0.27165910213E+03  0.00000000000E+00 0. -1.
          3    1    6    6  503    0  0.44545894955E+03  0.15931910292E+03  0.57586593022E+03  0.74527701017E+03  0.00000000000E+00 0. -1.
         -3    1    6    6    0  503  0.42990775806E+01  0.72170010204E+01 -0.10197573223E+01  0.84620964760E+01  0.00000000000E+00 0.  1.
<mgrwt>
<rscale>  0 0.16721942E+04</rscale>
<asrwt>0</asrwt>
<pdfrwt beam="1">  1        2 0.14023471E+00 0.16721942E+04</pdfrwt>
<pdfrwt beam="2">  1       -1 0.11798619E+00 0.16721942E+04</pdfrwt>
<totfact> 0.20227339E+01</totfact>
</mgrwt>
</event>
<event>
12    6  0.1510140E-007  0.1596478E+04  0.7818608E-02  0.8822715E-01
         -1   -1    0    0    0  501 -0.00000000000E+00  0.00000000000E+00  0.66391915757E+03  0.66391915757E+03  0.00000000000E+00 0.  1.
          2   -1    0    0  501    0  0.00000000000E+00 -0.00000000000E+00 -0.95973316870E+03  0.95973316870E+03  0.00000000000E+00 0. -1.
         24    2    1    2    0    0  0.44830296463E+03  0.62288723580E+02 -0.80550099308E+02  0.46736891420E+03  0.84201842509E+02 0.  0.
        254    2    1    2    0    0 -0.44830296463E+03 -0.62288723580E+02 -0.21526391183E+03  0.11562834121E+04  0.10420159999E+04 0.  0.
         23    2    4    4    0    0 -0.32418298108E+03  0.26957271353E+03  0.29976555096E+03  0.52507941024E+03  0.89916341192E+02 0.  0.
         23    2    4    4    0    0 -0.12411998355E+03 -0.33186143711E+03 -0.51502946279E+03  0.63120400184E+03  0.87323310971E+02 0.  0.
          2    1    3    3  502    0  0.13790447517E+03  0.38985295946E+02  0.86447705701E+01  0.14356959855E+03  0.00000000000E+00 0. -1.
         -1    1    3    3    0  502  0.31039848946E+03  0.23303427634E+02 -0.89194869878E+02  0.32379931565E+03  0.00000000000E+00 0.  1.
         11    1    5    5    0    0 -0.26111951206E+03  0.24790778637E+03  0.27814933891E+03  0.45498211487E+03  0.00000000000E+00 0.  1.
        -11    1    5    5    0    0 -0.63063469025E+02  0.21664927161E+02  0.21616212051E+02  0.70097295367E+02  0.00000000000E+00 0. -1.
          2    1    6    6  503    0  0.10422950461E+00 -0.36593467412E+02 -0.10295627728E+03  0.10926613269E+03  0.00000000000E+00 0. -1.
         -2    1    6    6    0  503 -0.12422421305E+03 -0.29526796969E+03 -0.41207318551E+03  0.52193786915E+03  0.00000000000E+00 0.  1.
<mgrwt>
<rscale>  0 0.15964777E+04</rscale>
<asrwt>0</asrwt>
<pdfrwt beam="1">  1        2 0.14765126E+00 0.15964777E+04</pdfrwt>
<pdfrwt beam="2">  1       -1 0.10214141E+00 0.15964777E+04</pdfrwt>
<totfact> 0.26585249E+01</totfact>
</mgrwt>
</event>
<event>
12    6  0.1510140E-007  0.1174616E+04  0.7818608E-02  0.9135370E-01
         -1   -1    0    0    0  501 -0.00000000000E+00  0.00000000000E+00  0.73763255654E+03  0.73763255654E+03  0.00000000000E+00 0.  1.
          2   -1    0    0  501    0  0.00000000000E+00 -0.00000000000E+00 -0.46761820175E+03  0.46761820175E+03  0.00000000000E+00 0. -1.
         24    2    1    2    0    0  0.36709037073E+02 -0.15858569970E+03 -0.11094361996E+03  0.21286767297E+03  0.80667105030E+02 0.  0.
        254    2    1    2    0    0 -0.36709037073E+02  0.15858569970E+03  0.38095797475E+03  0.99238308532E+03  0.90177504510E+03 0.  0.
         23    2    4    4    0    0 -0.28517802943E+03 -0.11527317247E+03 -0.13736256570E+03  0.34922790244E+03  0.92071931818E+02 0.  0.
         23    2    4    4    0    0  0.24846899236E+03  0.27385887217E+03  0.51832054044E+03  0.64315518288E+03  0.90867401178E+02 0.  0.
          2    1    3    3  502    0  0.21338591150E+02 -0.15992953183E+03 -0.84207958319E+02  0.18199937052E+03  0.00000000000E+00 0. -1.
         -1    1    3    3    0  502  0.15370445923E+02  0.13438321373E+01 -0.26735661643E+02  0.30868302450E+02  0.00000000000E+00 0.  1.
         11    1    5    5    0    0 -0.25275063478E+03 -0.73125940258E+02 -0.90197603530E+02  0.27814725273E+03  0.00000000000E+00 0.  1.
        -11    1    5    5    0    0 -0.32427394649E+02 -0.42147232213E+02 -0.47164962165E+02  0.71080649709E+02  0.00000000000E+00 0. -1.
          3    1    6    6  503    0  0.22517474801E+02  0.89545123304E+00  0.13131159042E+02  0.26081906412E+02  0.00000000000E+00 0. -1.
         -3    1    6    6    0  503  0.22595151756E+03  0.27296342093E+03  0.50518938140E+03  0.61707327647E+03  0.00000000000E+00 0.  1.
<mgrwt>
<rscale>  0 0.11746155E+04</rscale>
<asrwt>0</asrwt>
<pdfrwt beam="1">  1        2 0.71941261E-01 0.11746155E+04</pdfrwt>
<pdfrwt beam="2">  1       -1 0.11348193E+00 0.11746155E+04</pdfrwt>
<totfact> 0.53338372E+01</totfact>
</mgrwt>
</event>
<event>
12    6  0.1510140E-007  0.1502914E+04  0.7818608E-02  0.8882517E-01
          2   -1    0    0  501    0  0.00000000000E+00  0.00000000000E+00  0.62647876658E+03  0.62647876658E+03  0.00000000000E+00 0. -1.
         -1   -1    0    0    0  501 -0.00000000000E+00 -0.00000000000E+00 -0.90136768525E+03  0.90136768525E+03  0.00000000000E+00 0.  1.
         24    2    1    2    0    0 -0.29228174896E+03  0.78010930423E+02  0.29067339021E+03  0.42698887806E+03  0.79461664809E+02 0.  0.
        254    2    1    2    0    0  0.29228174896E+03 -0.78010930423E+02 -0.56556230888E+03  0.11008575738E+04  0.89471355554E+03 0.  0.
         23    2    4    4    0    0 -0.26006119655E+03  0.26354463895E+02 -0.43729442112E+03  0.51723734336E+03  0.89340219986E+02 0.  0.
         23    2    4    4    0    0  0.55234294550E+03 -0.10436539432E+03 -0.12826788777E+03  0.58362023042E+03  0.90471306738E+02 0.  0.
          4    1    3    3  502    0 -0.20219525652E+03  0.50765310827E+02  0.24704768199E+03  0.32325314495E+03  0.00000000000E+00 0. -1.
         -3    1    3    3    0  502 -0.90086492436E+02  0.27245619596E+02  0.43625708216E+02  0.10373573311E+03  0.00000000000E+00 0.  1.
         11    1    5    5    0    0 -0.95301979298E+01  0.12430570537E+02 -0.74480409524E+02  0.76109625930E+02  0.00000000000E+00 0. -1.
        -11    1    5    5    0    0 -0.25053099862E+03  0.13923893358E+02 -0.36281401159E+03  0.44112771743E+03  0.00000000000E+00 0.  1.
          1    1    6    6  503    0  0.15182622341E+03 -0.50418757271E+02 -0.72560811565E+02  0.17566537671E+03  0.00000000000E+00 0. -1.
         -1    1    6    6    0  503  0.40051672209E+03 -0.53946637047E+02 -0.55707076200E+02  0.40795485371E+03  0.00000000000E+00 0.  1.
<mgrwt>
<rscale>  0 0.15029141E+04</rscale>
<asrwt>0</asrwt>
<pdfrwt beam="1">  1        2 0.96381348E-01 0.15029141E+04</pdfrwt>
<pdfrwt beam="2">  1       -1 0.13867195E+00 0.15029141E+04</pdfrwt>
<totfact> 0.22319932E+01</totfact>
</mgrwt>
</event>
<event>
12    6  0.1510140E-007  0.2487925E+04  0.7818608E-02  0.8407300E-01
          2   -1    0    0  501    0  0.00000000000E+00  0.00000000000E+00  0.77494747696E+03  0.77494747696E+03  0.00000000000E+00 0. -1.
         -1   -1    0    0    0  501 -0.00000000000E+00 -0.00000000000E+00 -0.19968349720E+04  0.19968349720E+04  0.00000000000E+00 0.  1.
         24    2    1    2    0    0 -0.48343360321E+03 -0.62156455123E+03 -0.13678960186E+04  0.15803881660E+04  0.80229032731E+02 0.  0.
        254    2    1    2    0    0  0.48343360321E+03  0.62156455123E+03  0.14600852352E+03  0.11913942829E+04  0.88207216732E+03 0.  0.
         23    2    4    4    0    0  0.14821406085E+03  0.50591230558E+03 -0.30048672818E+03  0.61356386415E+03  0.90849726573E+02 0.  0.
         23    2    4    4    0    0  0.33521954236E+03  0.11565224565E+03  0.44649525170E+03  0.57783041876E+03  0.93714457542E+02 0.  0.
          4    1    3    3  502    0 -0.22378256345E+03 -0.34117846015E+03 -0.75225543432E+03  0.85578596380E+03  0.00000000000E+00 0. -1.
         -3    1    3    3    0  502 -0.25965103976E+03 -0.28038609107E+03 -0.61564058424E+03  0.72460220223E+03  0.00000000000E+00 0.  1.
         11    1    5    5    0    0  0.11251261911E+03  0.47364064385E+03 -0.27375672952E+03  0.55851346978E+03  0.00000000000E+00 0.  1.
        -11    1    5    5    0    0  0.35701441741E+02  0.32271661731E+02 -0.26729998652E+02  0.55050394378E+02  0.00000000000E+00 0. -1.
          4    1    6    6  503    0  0.15320048454E+03  0.49409589676E+02  0.27733076984E+03  0.32066189658E+03  0.00000000000E+00 0. -1.
         -4    1    6    6    0  503  0.18201905782E+03  0.66242655976E+02  0.16916448186E+03  0.25716852219E+03  0.00000000000E+00 0.  1.
<mgrwt>
<rscale>  0 0.24879246E+04</rscale>
<asrwt>0</asrwt>
<pdfrwt beam="1">  1        2 0.11922269E+00 0.24879246E+04</pdfrwt>
<pdfrwt beam="2">  1       -1 0.30720538E+00 0.24879246E+04</pdfrwt>
<totfact> 0.10850295E+00</totfact>
</mgrwt>
</event>
<event>
12    6  0.1510140E-007  0.1253584E+04  0.7818608E-02  0.9067205E-01
          2   -1    0    0  501    0  0.00000000000E+00  0.00000000000E+00  0.67879711625E+03  0.67879711625E+03  0.00000000000E+00 0. -1.
         -1   -1    0    0    0  501 -0.00000000000E+00 -0.00000000000E+00 -0.57877134191E+03  0.57877134191E+03  0.00000000000E+00 0.  1.
         24    2    1    2    0    0  0.93897770673E+02  0.15868460058E+03 -0.19483274643E+03  0.28080040111E+03  0.83014892553E+02 0.  0.
        254    2    1    2    0    0 -0.93897770673E+02 -0.15868460058E+03  0.29485852078E+03  0.97676805705E+03  0.91276322022E+03 0.  0.
         23    2    4    4    0    0  0.38554392305E+03  0.35976799332E+02  0.64082251022E+02  0.40292124135E+03  0.91107327595E+02 0.  0.
         23    2    4    4    0    0 -0.47944169372E+03 -0.19466139992E+03  0.23077626975E+03  0.57384681570E+03  0.91022430806E+02 0.  0.
          4    1    3    3  502    0  0.17773489218E+02  0.55526456368E+02 -0.15451853093E+02  0.60314542523E+02  0.00000000000E+00 0. -1.
         -1    1    3    3    0  502  0.76124281455E+02  0.10315814422E+03 -0.17938089333E+03  0.22048585859E+03  0.00000000000E+00 0.  1.
         11    1    5    5    0    0  0.38534933865E+03  0.42143058663E+02  0.70515013302E+02  0.39400827059E+03  0.00000000000E+00 0.  1.
        -11    1    5    5    0    0  0.19458440220E+00 -0.61662593311E+01 -0.64327622794E+01  0.89129707602E+01  0.00000000000E+00 0. -1.
          3    1    6    6  503    0 -0.11196318217E+03 -0.56950818286E+02  0.16415018645E+02  0.12668307978E+03  0.00000000000E+00 0. -1.
         -3    1    6    6    0  503 -0.36747851156E+03 -0.13771058163E+03  0.21436125111E+03  0.44716373592E+03  0.00000000000E+00 0.  1.
<mgrwt>
<rscale>  0 0.12535842E+04</rscale>
<asrwt>0</asrwt>
<pdfrwt beam="1">  1        2 0.10443033E+00 0.12535842E+04</pdfrwt>
<pdfrwt beam="2">  1       -1 0.89041745E-01 0.12535842E+04</pdfrwt>
<totfact> 0.59204727E+01</totfact>
</mgrwt>
</event>
<event>
12    6  0.1510140E-007  0.1833355E+04  0.7818608E-02  0.8688760E-01
         -1   -1    0    0    0  501 -0.00000000000E+00  0.00000000000E+00  0.55421485963E+03  0.55421485963E+03  0.00000000000E+00 0.  1.
          2   -1    0    0  501    0  0.00000000000E+00 -0.00000000000E+00 -0.15161945460E+04  0.15161945460E+04  0.00000000000E+00 0. -1.
         24    2    1    2    0    0 -0.20305714016E+03 -0.60792982073E+03 -0.61134697448E+02  0.64877408940E+03  0.79746465411E+02 0.  0.
        254    2    1    2    0    0  0.20305714016E+03  0.60792982073E+03 -0.90084498888E+03  0.14216353162E+04  0.89370823490E+03 0.  0.
         23    2    4    4    0    0  0.42046384357E+03  0.68470374765E+03 -0.84031984533E+03  0.11664127663E+04  0.93660200999E+02 0.  0.
         23    2    4    4    0    0 -0.21740670341E+03 -0.76773926920E+02 -0.60525143556E+02  0.25522254984E+03  0.91188521207E+02 0.  0.
          2    1    3    3  502    0 -0.10586010272E+03 -0.39386926024E+03 -0.68525731156E+02  0.41356393864E+03  0.00000000000E+00 0. -1.
         -1    1    3    3    0  502 -0.97197037438E+02 -0.21406056049E+03  0.73910337079E+01  0.23521015077E+03  0.00000000000E+00 0.  1.
         11    1    5    5    0    0  0.19838797942E+02  0.63680773747E+02 -0.10117962823E+03  0.12118636894E+03  0.00000000000E+00 0.  1.
        -11    1    5    5    0    0  0.40062504563E+03  0.62102297390E+03 -0.73914021709E+03  0.10452263974E+04  0.00000000000E+00 0. -1.
          1    1    6    6  503    0 -0.14009905219E+03 -0.93642019468E+01 -0.59890394369E+02  0.15265088287E+03  0.00000000000E+00 0. -1.
         -1    1    6    6    0  503 -0.77307651224E+02 -0.67409724973E+02 -0.63474918708E+00  0.10257166697E+03  0.00000000000E+00 0.  1.
<mgrwt>
<rscale>  0 0.18333549E+04</rscale>
<asrwt>0</asrwt>
<pdfrwt beam="1">  1        2 0.23326070E+00 0.18333549E+04</pdfrwt>
<pdfrwt beam="2">  1       -1 0.85263825E-01 0.18333549E+04</pdfrwt>
<totfact> 0.18133476E+01</totfact>
</mgrwt>
</event>
<event>
12    6  0.1510140E-007  0.1145727E+04  0.7818608E-02  0.9161735E-01
          2   -1    0    0  501    0  0.00000000000E+00  0.00000000000E+00  0.55506728845E+03  0.55506728845E+03  0.00000000000E+00 0. -1.
         -1   -1    0    0    0  501 -0.00000000000E+00 -0.00000000000E+00 -0.59123032088E+03  0.59123032088E+03  0.00000000000E+00 0.  1.
         24    2    1    2    0    0  0.97898586243E+02  0.13832621995E+03 -0.12126191181E+03  0.22397706045E+03  0.82115747810E+02 0.  0.
        254    2    1    2    0    0 -0.97898586243E+02 -0.13832621995E+03  0.85098879383E+02  0.92232054888E+03  0.90261569857E+03 0.  0.
         23    2    4    4    0    0 -0.25340246250E+03  0.85039225273E+02 -0.31906249788E+03  0.42659928452E+03  0.93496492802E+02 0.  0.
         23    2    4    4    0    0  0.15550387625E+03 -0.22336544522E+03  0.40416137726E+03  0.49572126436E+03  0.91211706603E+02 0.  0.
          4    1    3    3  502    0  0.23401422812E+02 -0.74133119136E+01 -0.13549088233E+02  0.28038572986E+02  0.00000000000E+00 0. -1.
         -3    1    3    3    0  502  0.74497163432E+02  0.14573953187E+03 -0.10771282358E+03  0.19593848747E+03  0.00000000000E+00 0.  1.
         11    1    5    5    0    0 -0.20977950865E+03  0.99956790592E+02 -0.23360993611E+03  0.32950326930E+03  0.00000000000E+00 0. -1.
        -11    1    5    5    0    0 -0.43622953851E+02 -0.14917565320E+02 -0.85452561774E+02  0.97096015219E+02  0.00000000000E+00 0.  1.
          4    1    6    6  503    0  0.89427461329E+02 -0.10927812770E+03  0.28476330556E+03  0.31785078296E+03  0.00000000000E+00 0. -1.
         -4    1    6    6    0  503  0.66076414924E+02 -0.11408731753E+03  0.11939807170E+03  0.17787048141E+03  0.00000000000E+00 0.  1.
<mgrwt>
<rscale>  0 0.11457270E+04</rscale>
<asrwt>0</asrwt>
<pdfrwt beam="1">  1        2 0.85394968E-01 0.11457270E+04</pdfrwt>
<pdfrwt beam="2">  1       -1 0.90958510E-01 0.11457270E+04</pdfrwt>
<totfact> 0.72770044E+01</totfact>
</mgrwt>
</event>
<event>
12    6  0.1510140E-007  0.2381130E+04  0.7818608E-02  0.8446602E-01
         -1   -1    0    0    0  501 -0.00000000000E+00  0.00000000000E+00  0.16910187366E+04  0.16910187366E+04  0.00000000000E+00 0.  1.
          2   -1    0    0  501    0  0.00000000000E+00 -0.00000000000E+00 -0.83821962305E+03  0.83821962305E+03  0.00000000000E+00 0. -1.
         24    2    1    2    0    0 -0.30524597975E+03  0.96643694844E+03  0.24868541907E+03  0.10466416090E+04  0.80241738292E+02 0.  0.
        254    2    1    2    0    0  0.30524597975E+03 -0.96643694844E+03  0.60411369443E+03  0.14825967506E+04  0.89775513680E+03 0.  0.
         23    2    4    4    0    0  0.58437562816E+03 -0.50927125866E+03  0.20526122394E+03  0.80812521888E+03  0.10040970890E+03 0.  0.
         23    2    4    4    0    0 -0.27912964842E+03 -0.45716568978E+03  0.39885247048E+03  0.67447153173E+03  0.94417823328E+02 0.  0.
          2    1    3    3  502    0 -0.23546884517E+03  0.64087096924E+03  0.14586246054E+03  0.69816690960E+03  0.00000000000E+00 0. -1.
         -1    1    3    3    0  502 -0.69777134582E+02  0.32556597920E+03  0.10282295853E+03  0.34847469940E+03  0.00000000000E+00 0.  1.
         11    1    5    5    0    0  0.97402502157E+02 -0.13797474759E+03  0.34386901051E+02  0.17235642536E+03  0.00000000000E+00 0.  1.
        -11    1    5    5    0    0  0.48697312601E+03 -0.37129651107E+03  0.17087432289E+03  0.63576879352E+03  0.00000000000E+00 0. -1.
          3    1    6    6  503    0 -0.14949220533E+03 -0.32723993195E+03  0.24907808379E+03  0.43757717530E+03  0.00000000000E+00 0. -1.
         -3    1    6    6    0  503 -0.12963744309E+03 -0.12992575782E+03  0.14977438670E+03  0.23689435643E+03  0.00000000000E+00 0.  1.
<mgrwt>
<rscale>  0 0.23811301E+04</rscale>
<asrwt>0</asrwt>
<pdfrwt beam="1">  1        2 0.12895687E+00 0.23811301E+04</pdfrwt>
<pdfrwt beam="2">  1       -1 0.26015673E+00 0.23811301E+04</pdfrwt>
<totfact> 0.19891817E+00</totfact>
</mgrwt>
</event>
<event>
12    6  0.1510140E-007  0.1688688E+04  0.7818608E-02  0.8767843E-01
         -1   -1    0    0    0  501 -0.00000000000E+00  0.00000000000E+00  0.46863102848E+03  0.46863102848E+03  0.00000000000E+00 0.  1.
          2   -1    0    0  501    0  0.00000000000E+00 -0.00000000000E+00 -0.15212746060E+04  0.15212746060E+04  0.00000000000E+00 0. -1.
         24    2    1    2    0    0  0.58842105129E+03  0.98542708227E+02 -0.36541260887E+03  0.70344851983E+03  0.73235554108E+02 0.  0.
        254    2    1    2    0    0 -0.58842105129E+03 -0.98542708227E+02 -0.68723096861E+03  0.12864571146E+04  0.90924996815E+03 0.  0.
         23    2    4    4    0    0  0.21839463788E+03  0.66209453000E+02 -0.77861994046E+02  0.25769596120E+03  0.90910993721E+02 0.  0.
         23    2    4    4    0    0 -0.80681568917E+03 -0.16475216123E+03 -0.60936897456E+03  0.10287611534E+04  0.94467627767E+02 0.  0.
          4    1    3    3  502    0  0.77513725393E+02  0.89409397936E+01 -0.78493229578E+02  0.11067748244E+03  0.00000000000E+00 0. -1.
         -3    1    3    3    0  502  0.51090732590E+03  0.89601768434E+02 -0.28691937929E+03  0.59277103739E+03  0.00000000000E+00 0.  1.
         11    1    5    5    0    0  0.22693929386E+02  0.26450046207E+02  0.14406657944E+02  0.37711684773E+02  0.00000000000E+00 0.  1.
        -11    1    5    5    0    0  0.19570070850E+03  0.39759406793E+02 -0.92268651991E+02  0.21998427643E+03  0.00000000000E+00 0. -1.
          1    1    6    6  503    0 -0.33145749443E+03 -0.40035678491E+02 -0.20029935226E+03  0.38934143972E+03  0.00000000000E+00 0. -1.
         -1    1    6    6    0  503 -0.47535819474E+03 -0.12471648274E+03 -0.40906962230E+03  0.63941971369E+03  0.00000000000E+00 0.  1.
<mgrwt>
<rscale>  0 0.16886876E+04</rscale>
<asrwt>0</asrwt>
<pdfrwt beam="1">  1        2 0.23404224E+00 0.16886876E+04</pdfrwt>
<pdfrwt beam="2">  1       -1 0.72097082E-01 0.16886876E+04</pdfrwt>
<totfact> 0.26011183E+01</totfact>
</mgrwt>
</event>
<event>
12    6  0.1510140E-007  0.2293481E+04  0.7818608E-02  0.8480496E-01
          2   -1    0    0  501    0  0.00000000000E+00  0.00000000000E+00  0.24874148509E+04  0.24874148509E+04  0.00000000000E+00 0. -1.
         -1   -1    0    0    0  501 -0.00000000000E+00 -0.00000000000E+00 -0.52866692582E+03  0.52866692582E+03  0.00000000000E+00 0.  1.
         24    2    1    2    0    0 -0.64662291501E+03  0.72737963633E+03  0.83005497125E+03  0.12816156052E+04  0.79655348313E+02 0.  0.
        254    2    1    2    0    0  0.64662291501E+03 -0.72737963633E+03  0.11286929538E+04  0.17344661715E+04  0.88725576169E+03 0.  0.
         23    2    4    4    0    0 -0.25068457042E+02  0.17033406825E+03  0.17687860371E+03  0.26125413313E+03  0.85589481164E+02 0.  0.
         23    2    4    4    0    0  0.67169137205E+03 -0.89771370458E+03  0.95181435008E+03  0.14732120384E+04  0.85696898076E+02 0.  0.
          4    1    3    3  502    0 -0.56077981347E+03  0.62866344834E+03  0.75221510836E+03  0.11293889054E+04  0.00000000000E+00 0. -1.
         -3    1    3    3    0  502 -0.85843101534E+02  0.98716187987E+02  0.77839862897E+02  0.15222669972E+03  0.00000000000E+00 0.  1.
         11    1    5    5    0    0 -0.12691371888E+02  0.92149342554E+02  0.36162784346E+02  0.99801398914E+02  0.00000000000E+00 0.  1.
        -11    1    5    5    0    0 -0.12377085154E+02  0.78184725694E+02  0.14071581936E+03  0.16145273422E+03  0.00000000000E+00 0. -1.
          3    1    6    6  503    0  0.44817270400E+03 -0.53581945856E+03  0.56895900510E+03  0.90093041588E+03  0.00000000000E+00 0. -1.
         -3    1    6    6    0  503  0.22351866806E+03 -0.36189424602E+03  0.38285534499E+03  0.57228162250E+03  0.00000000000E+00 0.  1.
<mgrwt>
<rscale>  0 0.22934812E+04</rscale>
<asrwt>0</asrwt>
<pdfrwt beam="1">  1        2 0.38267920E+00 0.22934812E+04</pdfrwt>
<pdfrwt beam="2">  1       -1 0.81333375E-01 0.22934812E+04</pdfrwt>
<totfact> 0.55012816E+00</totfact>
</mgrwt>
</event>
<event>
12    6  0.1675801E-007  0.3114538E+04  0.7818608E-02  0.8211760E-01
          2   -1    0    0  501    0  0.00000000000E+00  0.00000000000E+00  0.30442406753E+04  0.30442406753E+04  0.00000000000E+00 0. -1.
         -1   -1    0    0    0  501 -0.00000000000E+00 -0.00000000000E+00 -0.79661442372E+03  0.79661442372E+03  0.00000000000E+00 0.  1.
         24    2    1    2    0    0  0.13870890802E+04  0.30772101333E+03  0.87429805233E+03  0.16702561247E+04  0.81548140206E+02 0.  0.
        254    2    1    2    0    0 -0.13870890802E+04 -0.30772101333E+03  0.13733281992E+04  0.21705989743E+04  0.89819887888E+03 0.  0.
         23    2    4    4    0    0 -0.65315009619E+03 -0.57943911681E+03  0.57802715182E+03  0.10511372713E+04  0.91757488136E+02 0.  0.
         23    2    4    4    0    0 -0.73393898403E+03  0.27171810348E+03  0.79530104742E+03  0.11194617030E+04  0.90518442832E+02 0.  0.
          2    1    3    3  502    0  0.30829391449E+03  0.73680847272E+02  0.15641142310E+03  0.35346645985E+03  0.00000000000E+00 0. -1.
         -1    1    3    3    0  502  0.10787951657E+04  0.23404016606E+03  0.71788662923E+03  0.13167896648E+04  0.00000000000E+00 0.  1.
         11    1    5    5    0    0 -0.58331240417E+03 -0.51166104851E+03  0.54566266840E+03  0.94857690100E+03  0.00000000000E+00 0.  1.
        -11    1    5    5    0    0 -0.69837692020E+02 -0.67778068298E+02  0.32364483419E+02  0.10256037030E+03  0.00000000000E+00 0. -1.
          1    1    6    6  503    0 -0.52030526276E+03  0.21963334373E+03  0.52580364582E+03  0.77163841668E+03  0.00000000000E+00 0.  1.
         -1    1    6    6    0  503 -0.21363372127E+03  0.52084759743E+02  0.26949740160E+03  0.34782328636E+03  0.00000000000E+00 0. -1.
<mgrwt>
<rscale>  0 0.31145375E+04</rscale>
<asrwt>0</asrwt>
<pdfrwt beam="1">  1        2 0.46834471E+00 0.31145375E+04</pdfrwt>
<pdfrwt beam="2">  1       -1 0.12255607E+00 0.31145375E+04</pdfrwt>
<totfact> 0.92387025E-01</totfact>
</mgrwt>
</event>
<event>
12    6  0.1510140E-007  0.1388349E+04  0.7818608E-02  0.8962296E-01
         -3   -1    0    0    0  501 -0.00000000000E+00  0.00000000000E+00  0.22829207204E+03  0.22829207204E+03  0.00000000000E+00 0.  1.
          2   -1    0    0  501    0  0.00000000000E+00 -0.00000000000E+00 -0.21107967963E+04  0.21107967963E+04  0.00000000000E+00 0. -1.
         24    2    1    2    0    0  0.22219349578E+03 -0.62024792377E+02 -0.10923075887E+04  0.11191131156E+04  0.77854176198E+02 0.  0.
        254    2    1    2    0    0 -0.22219349578E+03  0.62024792377E+02 -0.79019713558E+03  0.12199757527E+04  0.90039563514E+03 0.  0.
         23    2    4    4    0    0 -0.63946045647E+02  0.58156403877E+01  0.19071219955E+03  0.22059814152E+03  0.90385167798E+02 0.  0.
         23    2    4    4    0    0 -0.15824745013E+03  0.56209151989E+02 -0.98090933513E+03  0.99937761123E+03  0.91491867602E+02 0.  0.
          4    1    3    3  502    0  0.16466809815E+03 -0.76709747494E+02 -0.88608041674E+03  0.90451007338E+03  0.00000000000E+00 0. -1.
         -3    1    3    3    0  502  0.57525397630E+02  0.14684955117E+02 -0.20622717197E+03  0.21460304224E+03  0.00000000000E+00 0.  1.
         11    1    5    5    0    0 -0.12434194181E+02  0.44321550103E+02  0.69131028889E+02  0.83054850212E+02  0.00000000000E+00 0. -1.
        -11    1    5    5    0    0 -0.51511851466E+02 -0.38505909716E+02  0.12158117066E+03  0.13754329131E+03  0.00000000000E+00 0.  1.
          1    1    6    6  503    0 -0.12932728754E+03  0.23627863843E+01 -0.70655482564E+03  0.71829718898E+03  0.00000000000E+00 0. -1.
         -1    1    6    6    0  503 -0.28920162591E+02  0.53846365605E+02 -0.27435450949E+03  0.28108042225E+03  0.00000000000E+00 0.  1.
<mgrwt>
<rscale>  0 0.13883489E+04</rscale>
<asrwt>0</asrwt>
<pdfrwt beam="1">  1        2 0.32473798E+00 0.13883489E+04</pdfrwt>
<pdfrwt beam="2">  1       -3 0.35121856E-01 0.13883489E+04</pdfrwt>
<totfact> 0.29256412E+01</totfact>
</mgrwt>
</event>
<event>
12    6  0.1510140E-007  0.1673735E+04  0.7818608E-02  0.8776488E-01
         -1   -1    0    0    0  501 -0.00000000000E+00  0.00000000000E+00  0.82390439174E+03  0.82390439174E+03  0.00000000000E+00 0.  1.
          2   -1    0    0  501    0  0.00000000000E+00 -0.00000000000E+00 -0.85003427848E+03  0.85003427848E+03  0.00000000000E+00 0. -1.
         24    2    1    2    0    0 -0.27736766146E+03  0.47440961999E+03 -0.23245022912E+03  0.60156847721E+03  0.76512852442E+02 0.  0.
        254    2    1    2    0    0  0.27736766146E+03 -0.47440961999E+03  0.20632034238E+03  0.10723701930E+04  0.89744773665E+03 0.  0.
         23    2    4    4    0    0  0.21212051763E+03  0.11582922609E+03  0.36773420056E+03  0.45068416489E+03  0.97346035384E+02 0.  0.
         23    2    4    4    0    0  0.65247143823E+02 -0.59023884609E+03 -0.16141385818E+03  0.62168602812E+03  0.88317601560E+02 0.  0.
          4    1    3    3  502    0 -0.20716574167E+03  0.34696690997E+03 -0.13341208797E+03  0.42556135440E+03  0.00000000000E+00 0. -1.
         -3    1    3    3    0  502 -0.70201919789E+02  0.12744271002E+03 -0.99038141146E+02  0.17600712281E+03  0.00000000000E+00 0.  1.
         11    1    5    5    0    0  0.12658235260E+03  0.10847421090E+03  0.29183382397E+03  0.33609035575E+03  0.00000000000E+00 0.  1.
        -11    1    5    5    0    0  0.85538165033E+02  0.73550151961E+01  0.75900376588E+02  0.11459380913E+03  0.00000000000E+00 0. -1.
          1    1    6    6  503    0  0.11631435659E+02 -0.44619044365E+03 -0.11115296723E+03  0.45997411277E+03  0.00000000000E+00 0. -1.
         -1    1    6    6    0  503  0.53615708164E+02 -0.14404840244E+03 -0.50260890945E+02  0.16171191535E+03  0.00000000000E+00 0.  1.
<mgrwt>
<rscale>  0 0.16737347E+04</rscale>
<asrwt>0</asrwt>
<pdfrwt beam="1">  1        2 0.13077450E+00 0.16737347E+04</pdfrwt>
<pdfrwt beam="2">  1       -1 0.12675452E+00 0.16737347E+04</pdfrwt>
<totfact> 0.18672013E+01</totfact>
</mgrwt>
</event>
<event>
12    6  0.1510140E-007  0.2707447E+04  0.7818608E-02  0.8332593E-01
          2   -1    0    0  501    0  0.00000000000E+00  0.00000000000E+00  0.24796956166E+04  0.24796956166E+04  0.00000000000E+00 0. -1.
         -1   -1    0    0    0  501 -0.00000000000E+00 -0.00000000000E+00 -0.73902922324E+03  0.73902922324E+03  0.00000000000E+00 0.  1.
         24    2    1    2    0    0 -0.10127756272E+04  0.62958651129E+03  0.96724031971E+03  0.15375786007E+04  0.80625499168E+02 0.  0.
        254    2    1    2    0    0  0.10127756272E+04 -0.62958651129E+03  0.77342607368E+03  0.16811462392E+04  0.89775895419E+03 0.  0.
         23    2    4    4    0    0 -0.64719256695E+02 -0.15558790151E+03 -0.94601923878E+02  0.21490043716E+03  0.94002641506E+02 0.  0.
         23    2    4    4    0    0  0.10774948838E+04 -0.47399860978E+03  0.86802799755E+03  0.14662458020E+04  0.10360617991E+03 0.  0.
          2    1    3    3  502    0 -0.43124685520E+03  0.25076149238E+03  0.35726653486E+03  0.61359151975E+03  0.00000000000E+00 0. -1.
         -1    1    3    3    0  502 -0.58152877195E+03  0.37882501891E+03  0.60997378485E+03  0.92398708095E+03  0.00000000000E+00 0.  1.
         11    1    5    5    0    0 -0.26268357274E+02 -0.15155936416E+03 -0.69399410297E+02  0.16874994995E+03  0.00000000000E+00 0. -1.
        -11    1    5    5    0    0 -0.38450899420E+02 -0.40285373457E+01 -0.25202513581E+02  0.46150487215E+02  0.00000000000E+00 0.  1.
          4    1    6    6  503    0  0.33143316275E+03 -0.97072400800E+02  0.27268700199E+03  0.44003317309E+03  0.00000000000E+00 0.  1.
         -4    1    6    6    0  503  0.74606172110E+03 -0.37692620898E+03  0.59534099557E+03  0.10262126289E+04  0.00000000000E+00 0. -1.
<mgrwt>
<rscale>  0 0.27074472E+04</rscale>
<asrwt>0</asrwt>
<pdfrwt beam="1">  1        2 0.38149163E+00 0.27074472E+04</pdfrwt>
<pdfrwt beam="2">  1       -1 0.11369681E+00 0.27074472E+04</pdfrwt>
<totfact> 0.25146317E+00</totfact>
</mgrwt>
</event>
<event>
12    6  0.1510140E-007  0.1448436E+04  0.7818608E-02  0.8919486E-01
          2   -1    0    0  501    0  0.00000000000E+00  0.00000000000E+00  0.13639793344E+04  0.13639793344E+04  0.00000000000E+00 0. -1.
         -1   -1    0    0    0  501 -0.00000000000E+00 -0.00000000000E+00 -0.38453041935E+03  0.38453041935E+03  0.00000000000E+00 0.  1.
         24    2    1    2    0    0  0.10088029776E+02  0.33318657513E+03 -0.43144646867E+02  0.34529085192E+03  0.79052195856E+02 0.  0.
        254    2    1    2    0    0 -0.10088029776E+02 -0.33318657513E+03  0.10225935619E+04  0.14032189018E+04  0.90122729175E+03 0.  0.
         23    2    4    4    0    0 -0.40614636809E+02  0.26886693627E+03  0.58852969790E+03  0.65478284494E+03  0.91838938227E+02 0.  0.
         23    2    4    4    0    0  0.30526607034E+02 -0.60205351141E+03  0.43406386404E+03  0.74843605691E+03  0.91349816030E+02 0.  0.
          4    1    3    3  502    0  0.78114525820E+01  0.33962993535E+01 -0.11025264259E+02  0.13932339815E+02  0.00000000000E+00 0. -1.
         -3    1    3    3    0  502  0.22765771936E+01  0.32979027578E+03 -0.32119382608E+02  0.33135851210E+03  0.00000000000E+00 0.  1.
         11    1    5    5    0    0 -0.25693242668E+02  0.27070810968E+03  0.55492545160E+03  0.61796867251E+03  0.00000000000E+00 0.  1.
        -11    1    5    5    0    0 -0.14921394141E+02 -0.18411734088E+01  0.33604246294E+02  0.36814172429E+02  0.00000000000E+00 0. -1.
          2    1    6    6  503    0  0.57737026071E+01 -0.11119539681E+02  0.28949973706E+02  0.31544901048E+02  0.00000000000E+00 0. -1.
         -2    1    6    6    0  503  0.24752904426E+02 -0.59093397172E+03  0.40511389033E+03  0.71689115586E+03  0.00000000000E+00 0.  1.
<mgrwt>
<rscale>  0 0.14484358E+04</rscale>
<asrwt>0</asrwt>
<pdfrwt beam="1">  1        2 0.20984297E+00 0.14484358E+04</pdfrwt>
<pdfrwt beam="2">  1       -1 0.59158527E-01 0.14484358E+04</pdfrwt>
<totfact> 0.48592360E+01</totfact>
</mgrwt>
</event>
<event>
12    6  0.1510140E-007  0.1650442E+04  0.7818608E-02  0.8790145E-01
         -1   -1    0    0    0  501 -0.00000000000E+00  0.00000000000E+00  0.33565575769E+03  0.33565575769E+03  0.00000000000E+00 0.  1.
          2   -1    0    0  501    0  0.00000000000E+00 -0.00000000000E+00 -0.20288335264E+04  0.20288335264E+04  0.00000000000E+00 0. -1.
         24    2    1    2    0    0  0.53834147329E+03 -0.13124065935E+03 -0.30578533388E+03  0.63787970382E+03  0.79688101973E+02 0.  0.
        254    2    1    2    0    0 -0.53834147329E+03  0.13124065935E+03 -0.13873924348E+04  0.17266095803E+04  0.86561378334E+03 0.  0.
         23    2    4    4    0    0 -0.71991294698E+03  0.22053657001E+02 -0.72844534993E+03  0.10284818845E+04  0.91549679385E+02 0.  0.
         23    2    4    4    0    0  0.18157147369E+03  0.10918700235E+03 -0.65894708490E+03  0.69812769581E+03  0.91000095743E+02 0.  0.
          4    1    3    3  502    0  0.19868832591E+02 -0.82730494207E+01 -0.32634084373E+02  0.39092164408E+02  0.00000000000E+00 0. -1.
         -3    1    3    3    0  502  0.51847264070E+03 -0.12296760993E+03 -0.27315124951E+03  0.59878753941E+03  0.00000000000E+00 0.  1.
         11    1    5    5    0    0 -0.76918519142E+02  0.30132187445E+02 -0.93951860490E+02  0.12510539316E+03  0.00000000000E+00 0. -1.
        -11    1    5    5    0    0 -0.64299442784E+03 -0.80785304440E+01 -0.63449348944E+03  0.90337649130E+03  0.00000000000E+00 0.  1.
          2    1    6    6  503    0  0.11872678757E+03  0.19259353145E+02 -0.36965166645E+03  0.38872783188E+03  0.00000000000E+00 0. -1.
         -2    1    6    6    0  503  0.62844686114E+02  0.89927649207E+02 -0.28929541845E+03  0.30939986393E+03  0.00000000000E+00 0.  1.
<mgrwt>
<rscale>  0 0.16504419E+04</rscale>
<asrwt>0</asrwt>
<pdfrwt beam="1">  1        2 0.31212825E+00 0.16504419E+04</pdfrwt>
<pdfrwt beam="2">  1       -1 0.51639346E-01 0.16504419E+04</pdfrwt>
<totfact> 0.26440868E+01</totfact>
</mgrwt>
</event>
<event>
12    6  0.1510140E-007  0.2031498E+04  0.7818608E-02  0.8592034E-01
          2   -1    0    0  501    0  0.00000000000E+00  0.00000000000E+00  0.46537342949E+04  0.46537342949E+04  0.00000000000E+00 0. -1.
         -1   -1    0    0    0  501 -0.00000000000E+00 -0.00000000000E+00 -0.22170277835E+03  0.22170277835E+03  0.00000000000E+00 0.  1.
         24    2    1    2    0    0 -0.22472773615E+03 -0.66996194886E+03  0.78875880685E+03  0.10621115184E+04  0.81171754664E+02 0.  0.
        254    2    1    2    0    0  0.22472773615E+03  0.66996194886E+03  0.36432727097E+04  0.38133255548E+04  0.87673495534E+03 0.  0.
         23    2    4    4    0    0  0.49378118253E+03  0.67553007216E+03  0.27240164842E+04  0.28511528386E+04  0.92983700508E+02 0.  0.
         23    2    4    4    0    0 -0.26905344637E+03 -0.55681233006E+01  0.91925622547E+03  0.96217271619E+03  0.91233583290E+02 0.  0.
          2    1    3    3  502    0 -0.16680241200E+03 -0.53239716544E+03  0.66634221178E+03  0.86906946190E+03  0.00000000000E+00 0. -1.
         -1    1    3    3    0  502 -0.57925324158E+02 -0.13756478342E+03  0.12241659507E+03  0.19304205647E+03  0.00000000000E+00 0.  1.
         11    1    5    5    0    0  0.43007190254E+03  0.61704900202E+03  0.25117454563E+04  0.26219413704E+04  0.00000000000E+00 0.  1.
        -11    1    5    5    0    0  0.63709279984E+02  0.58481070134E+02  0.21227102786E+03  0.22921146827E+03  0.00000000000E+00 0. -1.
          1    1    6    6  503    0 -0.68639848881E+02  0.32883099989E+02  0.32715930595E+03  0.33589572576E+03  0.00000000000E+00 0. -1.
         -1    1    6    6    0  503 -0.20041359749E+03 -0.38451223290E+02  0.59209691952E+03  0.62627699043E+03  0.00000000000E+00 0.  1.
<mgrwt>
<rscale>  0 0.20314978E+04</rscale>
<asrwt>0</asrwt>
<pdfrwt beam="1">  1        2 0.71595905E+00 0.20314978E+04</pdfrwt>
<pdfrwt beam="2">  1       -1 0.34108123E-01 0.20314978E+04</pdfrwt>
<totfact> 0.75011621E-01</totfact>
</mgrwt>
</event>
<event>
12    6  0.1510140E-007  0.1769607E+04  0.7818608E-02  0.8722631E-01
         -1   -1    0    0    0  501 -0.00000000000E+00  0.00000000000E+00  0.22959985918E+03  0.22959985918E+03  0.00000000000E+00 0.  1.
          2   -1    0    0  501    0  0.00000000000E+00 -0.00000000000E+00 -0.34097455380E+04  0.34097455380E+04  0.00000000000E+00 0. -1.
         24    2    1    2    0    0 -0.26824044392E+03 -0.52875597722E+03 -0.17362983730E+04  0.18364939403E+04  0.80262903636E+02 0.  0.
        254    2    1    2    0    0  0.26824044392E+03  0.52875597722E+03 -0.14438473059E+04  0.18028514569E+04  0.90224304579E+03 0.  0.
         23    2    4    4    0    0  0.48182659351E+03  0.40861723800E+03 -0.13986605033E+04  0.15373739678E+04  0.90236356555E+02 0.  0.
         23    2    4    4    0    0 -0.21358614959E+03  0.12013873922E+03 -0.45186802555E+02  0.26547748904E+03  0.91564677152E+02 0.  0.
          2    1    3    3  502    0 -0.12074479957E+03 -0.31675548098E+03 -0.93088797144E+03  0.99068953600E+03  0.00000000000E+00 0. -1.
         -1    1    3    3    0  502 -0.14749564434E+03 -0.21200049624E+03 -0.80541040152E+03  0.84580440433E+03  0.00000000000E+00 0.  1.
         11    1    5    5    0    0  0.17670749160E+03  0.16024319713E+03 -0.63494886404E+03  0.67827979460E+03  0.00000000000E+00 0.  1.
        -11    1    5    5    0    0  0.30511910191E+03  0.24837404088E+03 -0.76371163927E+03  0.85909417323E+03  0.00000000000E+00 0. -1.
          3    1    6    6  503    0 -0.80274043490E+01  0.16535443240E+00  0.17584374072E+02  0.19330720995E+02  0.00000000000E+00 0. -1.
         -3    1    6    6    0  503 -0.20555874524E+03  0.11997338479E+03 -0.62771176627E+02  0.24614676804E+03  0.00000000000E+00 0.  1.
<mgrwt>
<rscale>  0 0.17696068E+04</rscale>
<asrwt>0</asrwt>
<pdfrwt beam="1">  1        2 0.52457619E+00 0.17696068E+04</pdfrwt>
<pdfrwt beam="2">  1       -1 0.35323058E-01 0.17696068E+04</pdfrwt>
<totfact> 0.77811218E+00</totfact>
</mgrwt>
</event>
<event>
12    6  0.1510140E-007  0.2100512E+04  0.7818608E-02  0.8561018E-01
          2   -1    0    0  501    0  0.00000000000E+00  0.00000000000E+00  0.19576103834E+04  0.19576103834E+04  0.00000000000E+00 0. -1.
         -1   -1    0    0    0  501 -0.00000000000E+00 -0.00000000000E+00 -0.56346152943E+03  0.56346152943E+03  0.00000000000E+00 0.  1.
         24    2    1    2    0    0 -0.73662953904E+03  0.30164355378E+03  0.19545971379E+03  0.82344889767E+03  0.79067540985E+02 0.  0.
        254    2    1    2    0    0  0.73662953904E+03 -0.30164355378E+03  0.11986891402E+04  0.16976230152E+04  0.90080871196E+03 0.  0.
         23    2    4    4    0    0  0.65038769497E+03  0.17555569886E+03  0.50195718230E+03  0.84385222876E+03  0.79382705586E+02 0.  0.
         23    2    4    4    0    0  0.86241844065E+02 -0.47719925265E+03  0.69673195791E+03  0.85377078643E+03  0.91281718874E+02 0.  0.
          2    1    3    3  502    0 -0.33724819432E+03  0.14176358282E+03  0.13031917191E+03  0.38835080089E+03  0.00000000000E+00 0. -1.
         -1    1    3    3    0  502 -0.39938134472E+03  0.15987997096E+03  0.65140541878E+02  0.43509809678E+03  0.00000000000E+00 0.  1.
         11    1    5    5    0    0  0.50308192685E+03  0.10160357071E+03  0.38984862209E+03  0.64451272978E+03  0.00000000000E+00 0. -1.
        -11    1    5    5    0    0  0.14730576812E+03  0.73952128158E+02  0.11210856021E+03  0.19933949898E+03  0.00000000000E+00 0.  1.
          2    1    6    6  503    0  0.53465798859E+02 -0.27625863093E+03  0.48008952109E+03  0.55647405247E+03  0.00000000000E+00 0. -1.
         -2    1    6    6    0  503  0.32776045206E+02 -0.20094062171E+03  0.21664243682E+03  0.29729673397E+03  0.00000000000E+00 0.  1.
<mgrwt>
<rscale>  0 0.21005125E+04</rscale>
<asrwt>0</asrwt>
<pdfrwt beam="1">  1        2 0.30117082E+00 0.21005125E+04</pdfrwt>
<pdfrwt beam="2">  1       -1 0.86686390E-01 0.21005125E+04</pdfrwt>
<totfact> 0.97066373E+00</totfact>
</mgrwt>
</event>
<event>
12    6  0.1510140E-007  0.1660493E+04  0.7818608E-02  0.8784223E-01
         -3   -1    0    0    0  501 -0.00000000000E+00  0.00000000000E+00  0.85330936466E+03  0.85330936466E+03  0.00000000000E+00 0.  1.
          4   -1    0    0  501    0  0.00000000000E+00 -0.00000000000E+00 -0.80780648728E+03  0.80780648728E+03  0.00000000000E+00 0. -1.
         24    2    1    2    0    0  0.83962398646E+02 -0.23281311186E+03  0.53688543226E+03  0.59599017629E+03  0.75542659633E+02 0.  0.
        254    2    1    2    0    0 -0.83962398646E+02  0.23281311186E+03 -0.49138255488E+03  0.10651256756E+04  0.91202207224E+03 0.  0.
         23    2    4    4    0    0 -0.37931529201E+03  0.30128335279E+03 -0.55490873002E+03  0.74207546301E+03  0.90003026204E+02 0.  0.
         23    2    4    4    0    0  0.29535289336E+03 -0.68470240929E+02  0.63526175147E+02  0.32305021264E+03  0.91675293545E+02 0.  0.
          2    1    3    3  502    0  0.36444925235E+00 -0.72769678307E+02  0.21417778354E+03  0.22620274504E+03  0.00000000000E+00 0. -1.
         -1    1    3    3    0  502  0.83597949393E+02 -0.16004343355E+03  0.32270764872E+03  0.36978743124E+03  0.00000000000E+00 0.  1.
         11    1    5    5    0    0 -0.28519204760E+02  0.24457600347E+02 -0.13164817822E+02  0.39809944526E+02  0.00000000000E+00 0.  1.
        -11    1    5    5    0    0 -0.35079608725E+03  0.27682575244E+03 -0.54174391220E+03  0.70226551848E+03  0.00000000000E+00 0. -1.
          1    1    6    6  503    0  0.23888040345E+03 -0.41280058492E+02  0.84855519827E+02  0.25684304473E+03  0.00000000000E+00 0. -1.
         -1    1    6    6    0  503  0.56472489909E+02 -0.27190182437E+02 -0.21329344680E+02  0.66207167904E+02  0.00000000000E+00 0.  1.
<mgrwt>
<rscale>  0 0.16604925E+04</rscale>
<asrwt>0</asrwt>
<pdfrwt beam="1">  1        4 0.12427792E+00 0.16604925E+04</pdfrwt>
<pdfrwt beam="2">  1       -3 0.13127836E+00 0.16604925E+04</pdfrwt>
<totfact> 0.47941158E-01</totfact>
</mgrwt>
</event>
<event>
12    6  0.1510140E-007  0.1463408E+04  0.7818608E-02  0.8909157E-01
          2   -1    0    0  501    0  0.00000000000E+00  0.00000000000E+00  0.17994660597E+04  0.17994660597E+04  0.00000000000E+00 0. -1.
         -1   -1    0    0    0  501 -0.00000000000E+00 -0.00000000000E+00 -0.29752759762E+03  0.29752759762E+03  0.00000000000E+00 0.  1.
         24    2    1    2    0    0 -0.41071805574E+03  0.19607546036E+03  0.34462659634E+03  0.57633593873E+03  0.79124685769E+02 0.  0.
        254    2    1    2    0    0  0.41071805574E+03 -0.19607546036E+03  0.11573118657E+04  0.15206577186E+04  0.87515383507E+03 0.  0.
         23    2    4    4    0    0  0.21501197128E+03  0.33246076671E+02 -0.75920791037E+02  0.24790949797E+03  0.91431412896E+02 0.  0.
         23    2    4    4    0    0  0.19570608446E+03 -0.22932153703E+03  0.12332326568E+04  0.12727482206E+04  0.90199825432E+02 0.  0.
          2    1    3    3  502    0 -0.26566659568E+02 -0.20037719166E+01  0.61048448452E+01  0.27332611165E+02  0.00000000000E+00 0. -1.
         -1    1    3    3    0  502 -0.38415139617E+03  0.19807923227E+03  0.33852175150E+03  0.54900332757E+03  0.00000000000E+00 0.  1.
         11    1    5    5    0    0 -0.70126162215E+01 -0.19156101912E+01  0.51899400272E+01  0.89320672949E+01  0.00000000000E+00 0.  1.
        -11    1    5    5    0    0  0.22202458750E+03  0.35161686862E+02 -0.81110731064E+02  0.23897743068E+03  0.00000000000E+00 0. -1.
          2    1    6    6  503    0  0.88977410150E+02 -0.14189249457E+03  0.82510426851E+03  0.84193082462E+03  0.00000000000E+00 0. -1.
         -2    1    6    6    0  503  0.10672867431E+03 -0.87429042460E+02  0.40812838825E+03  0.43081739598E+03  0.00000000000E+00 0.  1.
<mgrwt>
<rscale>  0 0.14634081E+04</rscale>
<asrwt>0</asrwt>
<pdfrwt beam="1">  1        2 0.27684093E+00 0.14634081E+04</pdfrwt>
<pdfrwt beam="2">  1       -1 0.45773478E-01 0.14634081E+04</pdfrwt>
<totfact> 0.45207807E+01</totfact>
</mgrwt>
</event>
<event>
12    6  0.1510140E-007  0.1462120E+04  0.7818608E-02  0.8910041E-01
          2   -1    0    0  501    0  0.00000000000E+00  0.00000000000E+00  0.21647181921E+04  0.21647181921E+04  0.00000000000E+00 0. -1.
         -1   -1    0    0    0  501 -0.00000000000E+00 -0.00000000000E+00 -0.24689067877E+03  0.24689067877E+03  0.00000000000E+00 0.  1.
         24    2    1    2    0    0 -0.19840524137E+03  0.39960380598E+03  0.60161361613E+03  0.75335343312E+03  0.80960549118E+02 0.  0.
        254    2    1    2    0    0  0.19840524137E+03 -0.39960380598E+03  0.13162138971E+04  0.16582554377E+04  0.90462380694E+03 0.  0.
         23    2    4    4    0    0  0.26117246407E+03  0.98849876930E+02  0.56876846007E+02  0.29953512261E+03  0.92216917688E+02 0.  0.
         23    2    4    4    0    0 -0.62767222703E+02 -0.49845368291E+03  0.12593370511E+04  0.13587203151E+04  0.88290928241E+02 0.  0.
          4    1    3    3  502    0 -0.23805911191E+01  0.93693923563E+00  0.26568183767E+02  0.26691074498E+02  0.00000000000E+00 0. -1.
         -3    1    3    3    0  502 -0.19602465025E+03  0.39866686675E+03  0.57504543236E+03  0.72666235862E+03  0.00000000000E+00 0.  1.
         11    1    5    5    0    0  0.20799968606E+03  0.37320651824E+02  0.54238380197E+02  0.21817081001E+03  0.00000000000E+00 0. -1.
        -11    1    5    5    0    0  0.53172778017E+02  0.61529225106E+02  0.26384658093E+01  0.81364312607E+02  0.00000000000E+00 0.  1.
          2    1    6    6  503    0 -0.82867748710E+02 -0.44607094694E+03  0.11342893759E+04  0.12216622863E+04  0.00000000000E+00 0. -1.
         -2    1    6    6    0  503  0.20100526006E+02 -0.52382735968E+02  0.12504767521E+03  0.13705802877E+03  0.00000000000E+00 0.  1.
<mgrwt>
<rscale>  0 0.14621200E+04</rscale>
<asrwt>0</asrwt>
<pdfrwt beam="1">  1        2 0.33303356E+00 0.14621200E+04</pdfrwt>
<pdfrwt beam="2">  1       -1 0.37983183E-01 0.14621200E+04</pdfrwt>
<totfact> 0.39974323E+01</totfact>
</mgrwt>
</event>
<event>
12    6  0.1510140E-007  0.1288600E+04  0.7818608E-02  0.9038654E-01
          2   -1    0    0  501    0  0.00000000000E+00  0.00000000000E+00  0.47960394750E+03  0.47960394750E+03  0.00000000000E+00 0. -1.
         -1   -1    0    0    0  501 -0.00000000000E+00 -0.00000000000E+00 -0.86555318750E+03  0.86555318750E+03  0.00000000000E+00 0.  1.
         24    2    1    2    0    0  0.17975745654E+03  0.18089983096E+02  0.17845297447E+03  0.26657119967E+03  0.81084830431E+02 0.  0.
        254    2    1    2    0    0 -0.17975745654E+03 -0.18089983096E+02 -0.56440221447E+03  0.10785859353E+04  0.90119796357E+03 0.  0.
         23    2    4    4    0    0  0.25901448709E+03 -0.22115370695E+03 -0.32089297340E+02  0.35386156306E+03  0.90503128049E+02 0.  0.
         23    2    4    4    0    0 -0.43877194363E+03  0.20306372385E+03 -0.53231291713E+03  0.72472437228E+03  0.90070414504E+02 0.  0.
          2    1    3    3  502    0  0.17479406853E+03  0.18640243500E+02  0.13194312525E+03  0.21979402488E+03  0.00000000000E+00 0. -1.
         -1    1    3    3    0  502  0.49633880089E+01 -0.55026040399E+00  0.46509849220E+02  0.46777174792E+02  0.00000000000E+00 0.  1.
         11    1    5    5    0    0  0.25472198953E+03 -0.21923000916E+03 -0.15294938992E+02  0.33642090307E+03  0.00000000000E+00 0. -1.
        -11    1    5    5    0    0  0.42924975652E+01 -0.19236977902E+01 -0.16794358348E+02  0.17440659989E+02  0.00000000000E+00 0.  1.
          1    1    6    6  503    0 -0.25323860468E+03  0.16544418984E+03 -0.32749601575E+03  0.44581970704E+03  0.00000000000E+00 0. -1.
         -1    1    6    6    0  503 -0.18553333895E+03  0.37619534012E+02 -0.20481690138E+03  0.27890466524E+03  0.00000000000E+00 0.  1.
<mgrwt>
<rscale>  0 0.12886004E+04</rscale>
<asrwt>0</asrwt>
<pdfrwt beam="1">  1        2 0.73785223E-01 0.12886004E+04</pdfrwt>
<pdfrwt beam="2">  1       -1 0.13316203E+00 0.12886004E+04</pdfrwt>
<totfact> 0.34602338E+01</totfact>
</mgrwt>
</event>
<event>
12    6  0.1510140E-007  0.1591211E+04  0.7818608E-02  0.8825965E-01
          2   -1    0    0  501    0  0.00000000000E+00  0.00000000000E+00  0.65408596226E+03  0.65408596226E+03  0.00000000000E+00 0. -1.
         -1   -1    0    0    0  501 -0.00000000000E+00 -0.00000000000E+00 -0.96774492561E+03  0.96774492561E+03  0.00000000000E+00 0.  1.
         24    2    1    2    0    0  0.21023346847E+03  0.47205989122E+03 -0.20481774058E+03  0.56194433289E+03  0.82416468281E+02 0.  0.
        254    2    1    2    0    0 -0.21023346847E+03 -0.47205989122E+03 -0.10884122277E+03  0.10598865550E+04  0.91895290711E+03 0.  0.
         23    2    4    4    0    0 -0.11517967491E+03  0.17290096762E+03  0.22642936814E+03  0.32080486641E+03  0.92110810669E+02 0.  0.
         23    2    4    4    0    0 -0.95053793562E+02 -0.64496085885E+03 -0.33527059091E+03  0.73908168857E+03  0.93944878174E+02 0.  0.
          4    1    3    3  502    0  0.16982497813E+03  0.39278940306E+03 -0.13460079040E+03  0.44859938824E+03  0.00000000000E+00 0. -1.
         -3    1    3    3    0  502  0.40408490338E+02  0.79270488169E+02 -0.70216950180E+02  0.11334494465E+03  0.00000000000E+00 0.  1.
         11    1    5    5    0    0 -0.44900827493E+02  0.13446168208E+03  0.17663197791E+03  0.22648373866E+03  0.00000000000E+00 0. -1.
        -11    1    5    5    0    0 -0.70278847413E+02  0.38439285545E+02  0.49797390225E+02  0.94321127751E+02  0.00000000000E+00 0.  1.
          4    1    6    6  503    0 -0.96397698936E+02 -0.36449583929E+03 -0.17042503599E+03  0.41375648165E+03  0.00000000000E+00 0. -1.
         -4    1    6    6    0  503  0.13439053741E+01 -0.28046501956E+03 -0.16484555492E+03  0.32532520692E+03  0.00000000000E+00 0.  1.
<mgrwt>
<rscale>  0 0.15912113E+04</rscale>
<asrwt>0</asrwt>
<pdfrwt beam="1">  1        2 0.10062861E+00 0.15912113E+04</pdfrwt>
<pdfrwt beam="2">  1       -1 0.14888383E+00 0.15912113E+04</pdfrwt>
<totfact> 0.17410527E+01</totfact>
</mgrwt>
</event>
<event>
12    6  0.1510140E-007  0.2105572E+04  0.7818608E-02  0.8558793E-01
          2   -1    0    0  501    0  0.00000000000E+00  0.00000000000E+00  0.64810136306E+03  0.64810136306E+03  0.00000000000E+00 0. -1.
         -1   -1    0    0    0  501 -0.00000000000E+00 -0.00000000000E+00 -0.17101620206E+04  0.17101620206E+04  0.00000000000E+00 0.  1.
         24    2    1    2    0    0 -0.69861934543E+03 -0.19409735312E+03  0.63311797819E+02  0.73217679327E+03  0.79571983595E+02 0.  0.
        254    2    1    2    0    0  0.69861934543E+03  0.19409735312E+03 -0.11253724554E+04  0.16260865904E+04  0.92301227721E+03 0.  0.
         23    2    4    4    0    0  0.60971909288E+03  0.51724833867E+03 -0.92226391601E+03  0.12238125176E+04  0.88561456039E+02 0.  0.
         23    2    4    4    0    0  0.88900252551E+02 -0.32315098555E+03 -0.20310853937E+03  0.40227407276E+03  0.90782908544E+02 0.  0.
          2    1    3    3  502    0 -0.66238076140E+03 -0.20128739636E+03  0.56326604860E+02  0.69457726382E+03  0.00000000000E+00 0. -1.
         -1    1    3    3    0  502 -0.36238584026E+02  0.71900432437E+01  0.69851929585E+01  0.37599529448E+02  0.00000000000E+00 0.  1.
         11    1    5    5    0    0  0.53872274625E+03  0.42364230456E+03 -0.75843385903E+03  0.10222117775E+04  0.00000000000E+00 0. -1.
        -11    1    5    5    0    0  0.70996346626E+02  0.93606034109E+02 -0.16383005699E+03  0.20160074015E+03  0.00000000000E+00 0.  1.
          1    1    6    6  503    0 -0.16899373646E+02 -0.21701264417E+02 -0.12079010566E+02  0.30040575946E+02  0.00000000000E+00 0.  1.
         -1    1    6    6    0  503  0.10579962620E+03 -0.30144972113E+03 -0.19102952880E+03  0.37223349681E+03  0.00000000000E+00 0. -1.
<mgrwt>
<rscale>  0 0.21055720E+04</rscale>
<asrwt>0</asrwt>
<pdfrwt beam="1">  1        2 0.99707902E-01 0.21055720E+04</pdfrwt>
<pdfrwt beam="2">  1       -1 0.26310185E+00 0.21055720E+04</pdfrwt>
<totfact> 0.27182643E+00</totfact>
</mgrwt>
</event>
<event>
12    6  0.1510140E-007  0.2135775E+04  0.7818608E-02  0.8545646E-01
         -1   -1    0    0    0  501 -0.00000000000E+00  0.00000000000E+00  0.27987821947E+04  0.27987821947E+04  0.00000000000E+00 0.  1.
          2   -1    0    0  501    0  0.00000000000E+00 -0.00000000000E+00 -0.40745712861E+03  0.40745712861E+03  0.00000000000E+00 0. -1.
         24    2    1    2    0    0  0.79958665790E+03 -0.18429306701E+03  0.55160738839E+03  0.99202107728E+03  0.80822947287E+02 0.  0.
        254    2    1    2    0    0 -0.79958665790E+03  0.18429306701E+03  0.18397176777E+04  0.22142182460E+04  0.91918363202E+03 0.  0.
         23    2    4    4    0    0 -0.19535783179E+03  0.30682339729E+03  0.14050726496E+04  0.14542964032E+04  0.91889052945E+02 0.  0.
         23    2    4    4    0    0 -0.60422882611E+03 -0.12253033027E+03  0.43464502802E+03  0.75992184279E+03  0.91971466379E+02 0.  0.
          2    1    3    3  502    0  0.79393488175E+03 -0.17887316439E+03  0.55317121686E+03  0.98403587362E+03  0.00000000000E+00 0. -1.
         -1    1    3    3    0  502  0.56517761485E+01 -0.54199026225E+01 -0.15638284753E+01  0.79852036649E+01  0.00000000000E+00 0.  1.
         11    1    5    5    0    0 -0.15758379572E+03  0.17724635411E+03  0.80368761075E+03  0.83795148928E+03  0.00000000000E+00 0.  1.
        -11    1    5    5    0    0 -0.37774036068E+02  0.12957704318E+03  0.60138503889E+03  0.61634491392E+03  0.00000000000E+00 0. -1.
          1    1    6    6  503    0 -0.37158955167E+03 -0.36532802547E+02  0.29025606877E+03  0.47292919769E+03  0.00000000000E+00 0. -1.
         -1    1    6    6    0  503 -0.23263927444E+03 -0.85997527726E+02  0.14438895925E+03  0.28699264510E+03  0.00000000000E+00 0.  1.
<mgrwt>
<rscale>  0 0.21357750E+04</rscale>
<asrwt>0</asrwt>
<pdfrwt beam="1">  1        2 0.62685714E-01 0.21357750E+04</pdfrwt>
<pdfrwt beam="2">  1       -1 0.43058186E+00 0.21357750E+04</pdfrwt>
<totfact> 0.36053305E-01</totfact>
</mgrwt>
</event>
<event>
12    6  0.1510140E-007  0.2937512E+04  0.7818608E-02  0.8261803E-01
         -3   -1    0    0    0  501 -0.00000000000E+00  0.00000000000E+00  0.95284408173E+03  0.95284408173E+03  0.00000000000E+00 0.  1.
          2   -1    0    0  501    0  0.00000000000E+00 -0.00000000000E+00 -0.22640054581E+04  0.22640054581E+04  0.00000000000E+00 0. -1.
         24    2    1    2    0    0  0.87515419803E+03  0.74838416433E+03 -0.13386605275E+04  0.17674577164E+04  0.76948317811E+02 0.  0.
        254    2    1    2    0    0 -0.87515419803E+03 -0.74838416433E+03  0.27499151122E+02  0.14493918234E+04  0.87977652093E+03 0.  0.
         23    2    4    4    0    0 -0.14695717199E+03 -0.60906362003E+03  0.23290959223E+03  0.67468985933E+03  0.91676739030E+02 0.  0.
         23    2    4    4    0    0 -0.72819702604E+03 -0.13932054430E+03 -0.20541044111E+03  0.77470196411E+03  0.91041534919E+02 0.  0.
          4    1    3    3  502    0  0.66025099932E+03  0.52601889359E+03 -0.95282878472E+03  0.12729925182E+04  0.00000000000E+00 0. -1.
         -3    1    3    3    0  502  0.21490319872E+03  0.22236527074E+03 -0.38583174277E+03  0.49446519815E+03  0.00000000000E+00 0.  1.
         11    1    5    5    0    0  0.73406443924E+01 -0.12230445643E+02  0.15388378436E+02  0.20982636908E+02  0.00000000000E+00 0. -1.
        -11    1    5    5    0    0 -0.15429781639E+03 -0.59683317439E+03  0.21752121379E+03  0.65370722242E+03  0.00000000000E+00 0.  1.
          2    1    6    6  503    0 -0.90734855957E+02 -0.44030250794E+01 -0.54274343699E+02  0.10582015450E+03  0.00000000000E+00 0. -1.
         -2    1    6    6    0  503 -0.63746217008E+03 -0.13491751922E+03 -0.15113609741E+03  0.66888180961E+03  0.00000000000E+00 0.  1.
<mgrwt>
<rscale>  0 0.29375120E+04</rscale>
<asrwt>0</asrwt>
<pdfrwt beam="1">  1        2 0.34830853E+00 0.29375120E+04</pdfrwt>
<pdfrwt beam="2">  1       -3 0.14659140E+00 0.29375120E+04</pdfrwt>
<totfact> 0.88952918E-01</totfact>
</mgrwt>
</event>
<event>
12    6  0.1510140E-007  0.1572064E+04  0.7818608E-02  0.8837896E-01
          2   -1    0    0  501    0  0.00000000000E+00  0.00000000000E+00  0.93113044399E+03  0.93113044399E+03  0.00000000000E+00 0. -1.
         -1   -1    0    0    0  501 -0.00000000000E+00 -0.00000000000E+00 -0.66354416863E+03  0.66354416863E+03  0.00000000000E+00 0.  1.
         24    2    1    2    0    0 -0.52297245017E+03 -0.11616652108E+02  0.15960251601E+03  0.55266043743E+03  0.79532796603E+02 0.  0.
        254    2    1    2    0    0  0.52297245017E+03  0.11616652108E+02  0.10798375934E+03  0.10420141752E+04  0.89470549276E+03 0.  0.
         23    2    4    4    0    0 -0.18431017168E+03  0.66123771830E+02 -0.17037341237E+03  0.27485273911E+03  0.90412034413E+02 0.  0.
         23    2    4    4    0    0  0.70728262185E+03 -0.54507119722E+02  0.27835717171E+03  0.76716143608E+03  0.88511133174E+02 0.  0.
          2    1    3    3  502    0 -0.42244578001E+03 -0.40799750271E+02  0.13014685467E+03  0.44391807854E+03  0.00000000000E+00 0. -1.
         -3    1    3    3    0  502 -0.10052667016E+03  0.29183098163E+02  0.29455661339E+02  0.10874235889E+03  0.00000000000E+00 0.  1.
         11    1    5    5    0    0 -0.10454708722E+03  0.78084910777E+02 -0.77184010084E+02  0.15160711774E+03  0.00000000000E+00 0.  1.
        -11    1    5    5    0    0 -0.79763084463E+02 -0.11961138947E+02 -0.93189402286E+02  0.12324562137E+03  0.00000000000E+00 0. -1.
          1    1    6    6  503    0  0.57845950831E+03 -0.31334433638E+02  0.26004285890E+03  0.63499569916E+03  0.00000000000E+00 0.  1.
         -1    1    6    6    0  503  0.12882311354E+03 -0.23172686085E+02  0.18314312812E+02  0.13216573692E+03  0.00000000000E+00 0. -1.
<mgrwt>
<rscale>  0 0.15720638E+04</rscale>
<asrwt>0</asrwt>
<pdfrwt beam="1">  1        2 0.14325084E+00 0.15720638E+04</pdfrwt>
<pdfrwt beam="2">  1       -1 0.10208372E+00 0.15720638E+04</pdfrwt>
<totfact> 0.27859393E+01</totfact>
</mgrwt>
</event>
<event>
12    6  0.1510140E-007  0.1776349E+04  0.7818608E-02  0.8718979E-01
          2   -1    0    0  501    0  0.00000000000E+00  0.00000000000E+00  0.22190444686E+04  0.22190444686E+04  0.00000000000E+00 0. -1.
         -1   -1    0    0    0  501 -0.00000000000E+00 -0.00000000000E+00 -0.35549253257E+03  0.35549253257E+03  0.00000000000E+00 0.  1.
         24    2    1    2    0    0 -0.16030331177E+03 -0.33628171606E+03 -0.77250520968E+02  0.38860498892E+03  0.79143225216E+02 0.  0.
        254    2    1    2    0    0  0.16030331177E+03  0.33628171606E+03  0.19408024570E+04  0.21859320123E+04  0.93423874936E+03 0.  0.
         23    2    4    4    0    0  0.17742919579E+03  0.19252409710E+03  0.43170959723E+02  0.28050008872E+03  0.90939103386E+02 0.  0.
         23    2    4    4    0    0 -0.17125884019E+02  0.14375761896E+03  0.18976314973E+04  0.19054319236E+04  0.93305770857E+02 0.  0.
          4    1    3    3  502    0 -0.11936631038E+03 -0.15901950241E+03 -0.36212678344E+02  0.20210610153E+03  0.00000000000E+00 0. -1.
         -3    1    3    3    0  502 -0.40937001395E+02 -0.17726221365E+03 -0.41037842623E+02  0.18649888739E+03  0.00000000000E+00 0.  1.
         11    1    5    5    0    0  0.17544640203E+03  0.15441622508E+03  0.17225294070E+02  0.23435554465E+03  0.00000000000E+00 0. -1.
        -11    1    5    5    0    0  0.19827937607E+01  0.38107872021E+02  0.25945665653E+02  0.46144544068E+02  0.00000000000E+00 0.  1.
          4    1    6    6  503    0  0.68615928181E+00  0.15191722858E+03  0.16187691034E+04  0.16258821376E+04  0.00000000000E+00 0. -1.
         -4    1    6    6    0  503 -0.17812043301E+02 -0.81596096225E+01  0.27886239386E+03  0.27954978596E+03  0.00000000000E+00 0.  1.
<mgrwt>
<rscale>  0 0.17763488E+04</rscale>
<asrwt>0</asrwt>
<pdfrwt beam="1">  1        2 0.34139145E+00 0.17763488E+04</pdfrwt>
<pdfrwt beam="2">  1       -1 0.54691160E-01 0.17763488E+04</pdfrwt>
<totfact> 0.18335540E+01</totfact>
</mgrwt>
</event>
<event>
12    6  0.1510140E-007  0.1414719E+04  0.7818608E-02  0.8943232E-01
          2   -1    0    0  501    0  0.00000000000E+00  0.00000000000E+00  0.15820871902E+04  0.15820871902E+04  0.00000000000E+00 0. -1.
         -1   -1    0    0    0  501 -0.00000000000E+00 -0.00000000000E+00 -0.31626434634E+03  0.31626434634E+03  0.00000000000E+00 0.  1.
         24    2    1    2    0    0  0.35653293970E+03  0.20752836780E+03  0.53008190967E+03  0.67671164408E+03  0.82268206157E+02 0.  0.
        254    2    1    2    0    0 -0.35653293970E+03 -0.20752836780E+03  0.73574093416E+03  0.12216398924E+04  0.88368860127E+03 0.  0.
         23    2    4    4    0    0  0.20151580720E+02  0.86221150382E+01  0.77110900485E+03  0.77692811308E+03  0.92345917446E+02 0.  0.
         23    2    4    4    0    0 -0.37668452042E+03 -0.21615048284E+03 -0.35368070689E+02  0.44471177934E+03  0.88912356265E+02 0.  0.
          4    1    3    3  502    0  0.23183506685E+03  0.13379441557E+03  0.40419312456E+03  0.48478915602E+03  0.00000000000E+00 0. -1.
         -3    1    3    3    0  502  0.12469787286E+03  0.73733952233E+02  0.12588878511E+03  0.19192248806E+03  0.00000000000E+00 0.  1.
         11    1    5    5    0    0  0.14665093851E+02 -0.72851090592E+01  0.20996413928E+02  0.26626813356E+02  0.00000000000E+00 0.  1.
        -11    1    5    5    0    0  0.54864868697E+01  0.15907224097E+02  0.75011259092E+03  0.75030129973E+03  0.00000000000E+00 0. -1.
          2    1    6    6  503    0 -0.15148216842E+03 -0.11919969630E+03 -0.49852139375E+02  0.19909960007E+03  0.00000000000E+00 0. -1.
         -2    1    6    6    0  503 -0.22520235200E+03 -0.96950786545E+02  0.14484068686E+02  0.24561217927E+03  0.00000000000E+00 0.  1.
<mgrwt>
<rscale>  0 0.14147194E+04</rscale>
<asrwt>0</asrwt>
<pdfrwt beam="1">  1        2 0.24339802E+00 0.14147194E+04</pdfrwt>
<pdfrwt beam="2">  1       -1 0.48656054E-01 0.14147194E+04</pdfrwt>
<totfact> 0.53439935E+01</totfact>
</mgrwt>
</event>
<event>
12    6  0.1510140E-007  0.2537371E+04  0.7818608E-02  0.8389791E-01
         -1   -1    0    0    0  501 -0.00000000000E+00  0.00000000000E+00  0.36916444477E+03  0.36916444477E+03  0.00000000000E+00 0.  1.
          2   -1    0    0  501    0  0.00000000000E+00 -0.00000000000E+00 -0.43600175663E+04  0.43600175663E+04  0.00000000000E+00 0. -1.
         24    2    1    2    0    0 -0.35476351942E+03  0.98264783755E+03 -0.24369972972E+04  0.26526807226E+04  0.79405680372E+02 0.  0.
        254    2    1    2    0    0  0.35476351942E+03 -0.98264783755E+03 -0.15538558243E+04  0.20765012884E+04  0.89773924436E+03 0.  0.
         23    2    4    4    0    0 -0.54700150939E+02 -0.95097892627E+03 -0.10887111140E+04  0.14492932743E+04  0.88352026070E+02 0.  0.
         23    2    4    4    0    0  0.40946367036E+03 -0.31668911278E+02 -0.46514471029E+03  0.62720801412E+03  0.91470619251E+02 0.  0.
          4    1    3    3  502    0 -0.35785934559E+03  0.95774882132E+03 -0.23696489942E+04  0.25808104293E+04  0.00000000000E+00 0. -1.
         -3    1    3    3    0  502  0.30958261687E+01  0.24899016230E+02 -0.67348302965E+02  0.71870293315E+02  0.00000000000E+00 0.  1.
         11    1    5    5    0    0 -0.67691100503E+02 -0.46968796517E+03 -0.51407055963E+03  0.69961232836E+03  0.00000000000E+00 0. -1.
        -11    1    5    5    0    0  0.12990949564E+02 -0.48129096110E+03 -0.57464055435E+03  0.74968094595E+03  0.00000000000E+00 0.  1.
          2    1    6    6  503    0  0.15447932756E+03  0.15021536582E+02 -0.12347884445E+03  0.19833440002E+03  0.00000000000E+00 0. -1.
         -2    1    6    6    0  503  0.25498434279E+03 -0.46690447861E+02 -0.34166586584E+03  0.42887361410E+03  0.00000000000E+00 0.  1.
<mgrwt>
<rscale>  0 0.25373714E+04</rscale>
<asrwt>0</asrwt>
<pdfrwt beam="1">  1        2 0.67077192E+00 0.25373714E+04</pdfrwt>
<pdfrwt beam="2">  1       -1 0.56794531E-01 0.25373714E+04</pdfrwt>
<totfact> 0.53308148E-01</totfact>
</mgrwt>
</event>
<event>
12    6  0.1510140E-007  0.2762226E+04  0.7818608E-02  0.8315092E-01
          2   -1    0    0  501    0  0.00000000000E+00  0.00000000000E+00  0.20591583645E+04  0.20591583645E+04  0.00000000000E+00 0. -1.
         -1   -1    0    0    0  501 -0.00000000000E+00 -0.00000000000E+00 -0.92633661439E+03  0.92633661439E+03  0.00000000000E+00 0.  1.
         24    2    1    2    0    0 -0.41639061308E+03  0.11562217886E+04  0.59556847859E+03  0.13679505116E+04  0.79729683921E+02 0.  0.
        254    2    1    2    0    0  0.41639061308E+03 -0.11562217886E+04  0.53725327156E+03  0.16175444673E+04  0.90420078450E+03 0.  0.
         23    2    4    4    0    0  0.57476540526E+03 -0.11870725055E+04  0.38306101550E+03  0.13764082734E+04  0.90926284918E+02 0.  0.
         23    2    4    4    0    0 -0.15837479218E+03  0.30850716842E+02  0.15419225606E+03  0.24113619385E+03  0.91307560610E+02 0.  0.
          4    1    3    3  502    0 -0.35803260146E+03  0.96256023494E+03  0.46619598168E+03  0.11278511617E+04  0.00000000000E+00 0. -1.
         -3    1    3    3    0  502 -0.58358011620E+02  0.19366155368E+03  0.12937249692E+03  0.24009934996E+03  0.00000000000E+00 0.  1.
         11    1    5    5    0    0  0.76836284450E+02 -0.98312229601E+02  0.39109730122E+02  0.13076192140E+03  0.00000000000E+00 0.  1.
        -11    1    5    5    0    0  0.49792912081E+03 -0.10887602759E+04  0.34395128537E+03  0.12456463520E+04  0.00000000000E+00 0. -1.
          1    1    6    6  503    0 -0.15375326489E+03  0.53101985021E+02  0.13581981145E+03  0.21191250190E+03  0.00000000000E+00 0. -1.
         -1    1    6    6    0  503 -0.46215272893E+01 -0.22251268179E+02  0.18372444614E+02  0.29223691949E+02  0.00000000000E+00 0.  1.
<mgrwt>
<rscale>  0 0.27622265E+04</rscale>
<asrwt>0</asrwt>
<pdfrwt beam="1">  1        2 0.31679359E+00 0.27622265E+04</pdfrwt>
<pdfrwt beam="2">  1       -1 0.14251333E+00 0.27622265E+04</pdfrwt>
<totfact> 0.24594260E+00</totfact>
</mgrwt>
</event>
<event>
12    6  0.1510140E-007  0.2409133E+04  0.7818608E-02  0.8436092E-01
         -1   -1    0    0    0  501 -0.00000000000E+00  0.00000000000E+00  0.12302872636E+04  0.12302872636E+04  0.00000000000E+00 0.  1.
          2   -1    0    0  501    0  0.00000000000E+00 -0.00000000000E+00 -0.11793838398E+04  0.11793838398E+04  0.00000000000E+00 0. -1.
         24    2    1    2    0    0  0.39014202011E+03  0.89188702582E+03  0.37998558958E+03  0.10481530854E+04  0.81009749539E+02 0.  0.
        254    2    1    2    0    0 -0.39014202011E+03 -0.89188702582E+03 -0.32908216572E+03  0.13615180180E+04  0.89317578273E+03 0.  0.
         23    2    4    4    0    0  0.49670042288E+02  0.20643782403E+00  0.20415750377E+03  0.22922074246E+03  0.91622632091E+02 0.  0.
         23    2    4    4    0    0 -0.43981206240E+03 -0.89209346364E+03 -0.53323966949E+03  0.11322972755E+04  0.92125875752E+02 0.  0.
          4    1    3    3  502    0  0.74874016524E+02  0.25989792701E+03  0.11262835426E+03  0.29298156427E+03  0.00000000000E+00 0. -1.
         -3    1    3    3    0  502  0.31526800358E+03  0.63198909881E+03  0.26735723532E+03  0.75517152116E+03  0.00000000000E+00 0.  1.
         11    1    5    5    0    0  0.55399261112E+02  0.30181468355E+02  0.17860009125E+03  0.18941486678E+03  0.00000000000E+00 0. -1.
        -11    1    5    5    0    0 -0.57292188241E+01 -0.29975030531E+02  0.25557412515E+02  0.39805875674E+02  0.00000000000E+00 0.  1.
          3    1    6    6  503    0 -0.35209890097E+03 -0.73526458649E+03 -0.47444706819E+03  0.94323256343E+03  0.00000000000E+00 0. -1.
         -3    1    6    6    0  503 -0.87713161427E+02 -0.15682887716E+03 -0.58792601291E+02  0.18906471211E+03  0.00000000000E+00 0.  1.
<mgrwt>
<rscale>  0 0.24091334E+04</rscale>
<asrwt>0</asrwt>
<pdfrwt beam="1">  1        2 0.18144367E+00 0.24091334E+04</pdfrwt>
<pdfrwt beam="2">  1       -1 0.18927496E+00 0.24091334E+04</pdfrwt>
<totfact> 0.35686090E+00</totfact>
</mgrwt>
</event>
<event>
12    6  0.1510140E-007  0.1009316E+04  0.7818608E-02  0.9298386E-01
         -1   -1    0    0    0  501 -0.00000000000E+00  0.00000000000E+00  0.19760840514E+03  0.19760840514E+03  0.00000000000E+00 0.  1.
          2   -1    0    0  501    0  0.00000000000E+00 -0.00000000000E+00 -0.12888103821E+04  0.12888103821E+04  0.00000000000E+00 0. -1.
         24    2    1    2    0    0  0.18752397412E+02 -0.43534912006E+02 -0.46633539103E+02  0.10745127316E+03  0.84404669085E+02 0.  0.
        254    2    1    2    0    0 -0.18752397412E+02  0.43534912006E+02 -0.10445684379E+04  0.13789675141E+04  0.89898901135E+03 0.  0.
         23    2    4    4    0    0 -0.38710202342E+03 -0.17561751186E+03 -0.35344453452E+03  0.56059889845E+03  0.93051592937E+02 0.  0.
         23    2    4    4    0    0  0.36834962601E+03  0.21915242387E+03 -0.69112390335E+03  0.81836861563E+03  0.91464252067E+02 0.  0.
          4    1    3    3  502    0  0.48399224687E+02 -0.38901464164E+02 -0.46276572851E+02  0.77442430613E+02  0.00000000000E+00 0. -1.
         -3    1    3    3    0  502 -0.29646827275E+02 -0.46334478418E+01 -0.35696625134E+00  0.30008842551E+02  0.00000000000E+00 0.  1.
         11    1    5    5    0    0 -0.34305015134E+03 -0.16572598184E+03 -0.27420841652E+03  0.46940255973E+03  0.00000000000E+00 0. -1.
        -11    1    5    5    0    0 -0.44051872088E+02 -0.98915300287E+01 -0.79236118001E+02  0.91196338724E+02  0.00000000000E+00 0.  1.
          1    1    6    6  503    0  0.12627450339E+03  0.44119700753E+02 -0.27855919524E+03  0.30900974654E+03  0.00000000000E+00 0. -1.
         -1    1    6    6    0  503  0.24207512262E+03  0.17503272312E+03 -0.41256470810E+03  0.50935886909E+03  0.00000000000E+00 0.  1.
<mgrwt>
<rscale>  0 0.10093161E+04</rscale>
<asrwt>0</asrwt>
<pdfrwt beam="1">  1        2 0.19827851E+00 0.10093161E+04</pdfrwt>
<pdfrwt beam="2">  1       -1 0.30401294E-01 0.10093161E+04</pdfrwt>
<totfact> 0.18998276E+02</totfact>
</mgrwt>
</event>
<event>
12    6  0.1510140E-007  0.2455634E+04  0.7818608E-02  0.8418964E-01
         -1   -1    0    0    0  501 -0.00000000000E+00  0.00000000000E+00  0.86848132784E+03  0.86848132784E+03  0.00000000000E+00 0.  1.
          2   -1    0    0  501    0  0.00000000000E+00 -0.00000000000E+00 -0.17358282856E+04  0.17358282856E+04  0.00000000000E+00 0. -1.
         24    2    1    2    0    0 -0.49088809126E+03 -0.34933080742E+03  0.55121016559E+03  0.82060716652E+03  0.80995950105E+02 0.  0.
        254    2    1    2    0    0  0.49088809126E+03  0.34933080742E+03 -0.14185571234E+04  0.17837024470E+04  0.89793483943E+03 0.  0.
         23    2    4    4    0    0  0.11875157455E+03  0.44535790728E+03 -0.21439171869E+03  0.51638326114E+03  0.90786900515E+02 0.  0.
         23    2    4    4    0    0  0.37213651671E+03 -0.96027099863E+02 -0.12041654047E+04  0.12673191858E+04  0.91524892408E+02 0.  0.
          2    1    3    3  502    0 -0.17402396204E+02 -0.18484637124E+02  0.49017458100E+02  0.55201778973E+02  0.00000000000E+00 0. -1.
         -1    1    3    3    0  502 -0.47348569506E+03 -0.33084617030E+03  0.50219270749E+03  0.76540538754E+03  0.00000000000E+00 0.  1.
         11    1    5    5    0    0  0.11527715688E+03  0.44968104178E+03 -0.21214487415E+03  0.51039916719E+03  0.00000000000E+00 0. -1.
        -11    1    5    5    0    0  0.34744176631E+01 -0.43231345014E+01 -0.22468445411E+01  0.59840939504E+01  0.00000000000E+00 0.  1.
          2    1    6    6  503    0  0.34088160287E+03 -0.60416304023E+02 -0.10918087258E+04  0.11453805877E+04  0.00000000000E+00 0. -1.
         -2    1    6    6    0  503  0.31254913845E+02 -0.35610795840E+02 -0.11235667890E+03  0.12193859813E+03  0.00000000000E+00 0.  1.
<mgrwt>
<rscale>  0 0.24556339E+04</rscale>
<asrwt>0</asrwt>
<pdfrwt beam="1">  1        2 0.26705051E+00 0.24556339E+04</pdfrwt>
<pdfrwt beam="2">  1       -1 0.13361251E+00 0.24556339E+04</pdfrwt>
<totfact> 0.45151448E+00</totfact>
</mgrwt>
</event>
<event>
12    6  0.1510140E-007  0.2060762E+04  0.7818608E-02  0.8578728E-01
         -1   -1    0    0    0  501 -0.00000000000E+00  0.00000000000E+00  0.10813411940E+04  0.10813411940E+04  0.00000000000E+00 0.  1.
          2   -1    0    0  501    0  0.00000000000E+00 -0.00000000000E+00 -0.98182239257E+03  0.98182239257E+03  0.00000000000E+00 0. -1.
         24    2    1    2    0    0  0.91735754661E+02 -0.61735034453E+03  0.59171082882E+03  0.86354960042E+03  0.77841575459E+02 0.  0.
        254    2    1    2    0    0 -0.91735754661E+02  0.61735034453E+03 -0.49219202739E+03  0.11996139861E+04  0.89848974804E+03 0.  0.
         23    2    4    4    0    0 -0.69832316575E+02  0.20919405904E+02  0.22996809546E+03  0.25826369811E+03  0.92198909153E+02 0.  0.
         23    2    4    4    0    0 -0.21903438085E+02  0.59643093863E+03 -0.72216012285E+03  0.94135028803E+03  0.91736015702E+02 0.  0.
          4    1    3    3  502    0  0.38703637214E+02 -0.90911501251E+02  0.75567065072E+02  0.12439153475E+03  0.00000000000E+00 0. -1.
         -3    1    3    3    0  502  0.53032117446E+02 -0.52643884328E+03  0.51614376375E+03  0.73915806567E+03  0.00000000000E+00 0.  1.
         11    1    5    5    0    0 -0.21411846232E+01  0.37602846501E+02  0.13685503793E+03  0.14194315815E+03  0.00000000000E+00 0.  1.
        -11    1    5    5    0    0 -0.67691131952E+02 -0.16683440597E+02  0.93113057526E+02  0.11632053996E+03  0.00000000000E+00 0. -1.
          1    1    6    6  503    0  0.16779476249E+02  0.66195206017E+02 -0.51516705299E+02  0.85541376232E+02  0.00000000000E+00 0. -1.
         -1    1    6    6    0  503 -0.38682914334E+02  0.53023573261E+03 -0.67064341756E+03  0.85580891180E+03  0.00000000000E+00 0.  1.
<mgrwt>
<rscale>  0 0.20607620E+04</rscale>
<asrwt>0</asrwt>
<pdfrwt beam="1">  1        2 0.15104960E+00 0.20607620E+04</pdfrwt>
<pdfrwt beam="2">  1       -1 0.16636018E+00 0.20607620E+04</pdfrwt>
<totfact> 0.71450245E+00</totfact>
</mgrwt>
</event>
<event>
12    6  0.1510140E-007  0.1999780E+04  0.7818608E-02  0.8606724E-01
          2   -1    0    0  501    0  0.00000000000E+00  0.00000000000E+00  0.26341961827E+04  0.26341961827E+04  0.00000000000E+00 0. -1.
         -1   -1    0    0    0  501 -0.00000000000E+00 -0.00000000000E+00 -0.37953884220E+03  0.37953884220E+03  0.00000000000E+00 0.  1.
         24    2    1    2    0    0  0.18202953222E+03 -0.41697654078E+03 -0.81866181828E+02  0.46929656396E+03  0.80827019351E+02 0.  0.
        254    2    1    2    0    0 -0.18202953222E+03  0.41697654078E+03  0.23365235223E+04  0.25444384609E+04  0.89878847619E+03 0.  0.
         23    2    4    4    0    0  0.24856656995E+03  0.49191145415E+03  0.13824173925E+04  0.14910119350E+04  0.90975407886E+02 0.  0.
         23    2    4    4    0    0 -0.43059610217E+03 -0.74934913371E+02  0.95410612976E+03  0.10534265259E+04  0.91436831151E+02 0.  0.
          2    1    3    3  502    0 -0.27735952171E+01 -0.60489307641E+02 -0.11586177183E+02  0.61651347682E+02  0.00000000000E+00 0. -1.
         -1    1    3    3    0  502  0.18480312744E+03 -0.35648723314E+03 -0.70280004645E+02  0.40764521628E+03  0.00000000000E+00 0.  1.
         11    1    5    5    0    0 -0.19084095947E+01  0.32656903210E+02  0.51873080388E+02  0.61326436578E+02  0.00000000000E+00 0.  1.
        -11    1    5    5    0    0  0.25047497955E+03  0.45925455094E+03  0.13305443122E+04  0.14296854985E+04  0.00000000000E+00 0. -1.
          2    1    6    6  503    0 -0.35446162783E+03 -0.45966120569E+02  0.84311594825E+03  0.91575129377E+03  0.00000000000E+00 0. -1.
         -2    1    6    6    0  503 -0.76134474344E+02 -0.28968792802E+02  0.11099018151E+03  0.13767523209E+03  0.00000000000E+00 0.  1.
<mgrwt>
<rscale>  0 0.19997798E+04</rscale>
<asrwt>0</asrwt>
<pdfrwt beam="1">  1        2 0.40526094E+00 0.19997798E+04</pdfrwt>
<pdfrwt beam="2">  1       -1 0.58390593E-01 0.19997798E+04</pdfrwt>
<totfact> 0.91400639E+00</totfact>
</mgrwt>
</event>
<event>
12    6  0.1801956E-007  0.2395920E+04  0.7818608E-02  0.8441033E-01
          2   -1    0    0  501    0  0.00000000000E+00  0.00000000000E+00  0.20181467883E+04  0.20181467883E+04  0.00000000000E+00 0. -1.
         -1   -1    0    0    0  501 -0.00000000000E+00 -0.00000000000E+00 -0.71110209773E+03  0.71110209773E+03  0.00000000000E+00 0.  1.
         24    2    1    2    0    0  0.17060762655E+03  0.47643468731E+03  0.15732074340E+04  0.16545753870E+04  0.80877112249E+02 0.  0.
        254    2    1    2    0    0 -0.17060762655E+03 -0.47643468731E+03 -0.26616274336E+03  0.10746734991E+04  0.90993601436E+03 0.  0.
         23    2    4    4    0    0 -0.37336208169E+02  0.57431378177E+02 -0.46778374234E+03  0.48158304269E+03  0.91696465444E+02 0.  0.
         23    2    4    4    0    0 -0.13327141838E+03 -0.53386606549E+03  0.20162099897E+03  0.59309045642E+03  0.91274396368E+02 0.  0.
          2    1    3    3  502    0  0.16662527107E+03  0.45063867910E+03  0.15339445351E+04  0.16074280813E+04  0.00000000000E+00 0. -1.
         -1    1    3    3    0  502  0.39823554816E+01  0.25796008211E+02  0.39262898919E+02  0.47147305610E+02  0.00000000000E+00 0.  1.
         11    1    5    5    0    0  0.27107327177E+02  0.36289086278E+02 -0.15239017207E+03  0.15897946255E+03  0.00000000000E+00 0. -1.
        -11    1    5    5    0    0 -0.64443535346E+02  0.21142291900E+02 -0.31539357027E+03  0.32260358014E+03  0.00000000000E+00 0.  1.
          4    1    6    6  503    0 -0.13666617822E+03 -0.39598091143E+03  0.13664506606E+03  0.44062501128E+03  0.00000000000E+00 0. -1.
         -4    1    6    6    0  503  0.33947598403E+01 -0.13788515406E+03  0.64975932910E+02  0.15246544514E+03  0.00000000000E+00 0.  1.
<mgrwt>
<rscale>  0 0.23959202E+04</rscale>
<asrwt>0</asrwt>
<pdfrwt beam="1">  1        2 0.31048412E+00 0.23959202E+04</pdfrwt>
<pdfrwt beam="2">  1       -1 0.10940032E+00 0.23959202E+04</pdfrwt>
<totfact> 0.51654808E+00</totfact>
</mgrwt>
</event>
<event>
12    6  0.1510140E-007  0.3234638E+04  0.7818608E-02  0.8179729E-01
          2   -1    0    0  501    0  0.00000000000E+00  0.00000000000E+00  0.34075937657E+04  0.34075937657E+04  0.00000000000E+00 0. -1.
         -1   -1    0    0    0  501 -0.00000000000E+00 -0.00000000000E+00 -0.76761519851E+03  0.76761519851E+03  0.00000000000E+00 0.  1.
         24    2    1    2    0    0 -0.91246551548E+03  0.60590399122E+03  0.24490451891E+04  0.26835169853E+04  0.61058239372E+02 0.  0.
        254    2    1    2    0    0  0.91246551548E+03 -0.60590399122E+03  0.19093337807E+03  0.14916919789E+04  0.99447294660E+03 0.  0.
         23    2    4    4    0    0  0.61431034800E+03 -0.30628731660E+03  0.58544749537E+03  0.90621592438E+03  0.85378028689E+02 0.  0.
         23    2    4    4    0    0  0.29815516748E+03 -0.29961667462E+03 -0.39451411730E+03  0.58547605452E+03  0.92055233746E+02 0.  0.
          2    1    3    3  502    0 -0.21556066248E+03  0.15659612018E+03  0.65509263583E+03  0.70720230881E+03  0.00000000000E+00 0. -1.
         -1    1    3    3    0  502 -0.69690485300E+03  0.44930787104E+03  0.17939525533E+04  0.19763146765E+04  0.00000000000E+00 0.  1.
         11    1    5    5    0    0  0.55042401223E+03 -0.26449609052E+03  0.55080916996E+03  0.82238404463E+03  0.00000000000E+00 0. -1.
        -11    1    5    5    0    0  0.63886335768E+02 -0.41791226077E+02  0.34638325413E+02  0.83831879749E+02  0.00000000000E+00 0.  1.
          3    1    6    6  503    0  0.19569577344E+03 -0.24650995368E+03 -0.26003370772E+03  0.40826648425E+03  0.00000000000E+00 0. -1.
         -3    1    6    6    0  503  0.10245939404E+03 -0.53106720935E+02 -0.13448040958E+03  0.17720957027E+03  0.00000000000E+00 0.  1.
<mgrwt>
<rscale>  0 0.32346380E+04</rscale>
<asrwt>0</asrwt>
<pdfrwt beam="1">  1        2 0.52424519E+00 0.32346380E+04</pdfrwt>
<pdfrwt beam="2">  1       -1 0.11809465E+00 0.32346380E+04</pdfrwt>
<totfact> 0.57758115E-01</totfact>
</mgrwt>
</event>
<event>
12    6  0.1510140E-007  0.2037650E+04  0.7818608E-02  0.8589217E-01
          2   -1    0    0  501    0  0.00000000000E+00  0.00000000000E+00  0.18223935255E+04  0.18223935255E+04  0.00000000000E+00 0. -1.
         -1   -1    0    0    0  501 -0.00000000000E+00 -0.00000000000E+00 -0.56958315100E+03  0.56958315100E+03  0.00000000000E+00 0.  1.
         24    2    1    2    0    0  0.58968150769E+03  0.40172874104E+03  0.43087405960E+02  0.71899157618E+03  0.77344037733E+02 0.  0.
        254    2    1    2    0    0 -0.58968150769E+03 -0.40172874104E+03  0.12097229685E+04  0.16729851003E+04  0.90903202549E+03 0.  0.
         23    2    4    4    0    0 -0.71401192823E+03 -0.15347355737E+03  0.45771690914E+03  0.86650029925E+03  0.89167444806E+02 0.  0.
         23    2    4    4    0    0  0.12433042054E+03 -0.24825518367E+03  0.75200605939E+03  0.80648480106E+03  0.88407755882E+02 0.  0.
          2    1    3    3  502    0  0.19266044973E+03  0.13133206206E+03  0.50538110206E+02  0.23857967222E+03  0.00000000000E+00 0. -1.
         -1    1    3    3    0  502  0.39702105796E+03  0.27039667898E+03 -0.74507042452E+01  0.48041190396E+03  0.00000000000E+00 0.  1.
         11    1    5    5    0    0 -0.47718974155E+03 -0.14263233450E+03  0.32663235149E+03  0.59560282514E+03  0.00000000000E+00 0. -1.
        -11    1    5    5    0    0 -0.23682218668E+03 -0.10841222865E+02  0.13108455766E+03  0.27089747410E+03  0.00000000000E+00 0.  1.
          2    1    6    6  503    0  0.11353226824E+03 -0.13082547917E+03  0.46335085897E+03  0.49467049684E+03  0.00000000000E+00 0. -1.
         -2    1    6    6    0  503  0.10798152292E+02 -0.11742970450E+03  0.28865520042E+03  0.31181430423E+03  0.00000000000E+00 0.  1.
<mgrwt>
<rscale>  0 0.20376503E+04</rscale>
<asrwt>0</asrwt>
<pdfrwt beam="1">  1        2 0.28036823E+00 0.20376503E+04</pdfrwt>
<pdfrwt beam="2">  1       -1 0.87628178E-01 0.20376503E+04</pdfrwt>
<totfact> 0.11329413E+01</totfact>
</mgrwt>
</event>
<event>
12    6  0.1510140E-007  0.2948630E+04  0.7818608E-02  0.8258554E-01
         -1   -1    0    0    0  501 -0.00000000000E+00  0.00000000000E+00  0.85245759291E+03  0.85245759291E+03  0.00000000000E+00 0.  1.
          2   -1    0    0  501    0  0.00000000000E+00 -0.00000000000E+00 -0.25498104544E+04  0.25498104544E+04  0.00000000000E+00 0. -1.
         24    2    1    2    0    0  0.11495901352E+04  0.66643942696E+03 -0.92633518758E+03  0.16218284215E+04  0.80818068987E+02 0.  0.
        254    2    1    2    0    0 -0.11495901352E+04 -0.66643942696E+03 -0.77101767394E+03  0.17804396258E+04  0.89988778123E+03 0.  0.
         23    2    4    4    0    0 -0.12194323148E+04 -0.76239033316E+03 -0.62620206880E+03  0.15711317440E+04  0.89842838225E+02 0.  0.
         23    2    4    4    0    0  0.69842179545E+02  0.95950906208E+02 -0.14481560514E+03  0.20930788182E+03  0.93561335256E+02 0.  0.
          4    1    3    3  502    0  0.10102509886E+04  0.58922620917E+03 -0.78216554595E+03  0.14069746006E+04  0.00000000000E+00 0. -1.
         -1    1    3    3    0  502  0.13933914667E+03  0.77213217787E+02 -0.14416964163E+03  0.21485382092E+03  0.00000000000E+00 0.  1.
         11    1    5    5    0    0 -0.11214574529E+03 -0.41033261096E+02 -0.51988679954E+02  0.13024292513E+03  0.00000000000E+00 0.  1.
        -11    1    5    5    0    0 -0.11072865695E+04 -0.72135707207E+03 -0.57421338884E+03  0.14408888189E+04  0.00000000000E+00 0. -1.
          1    1    6    6  503    0  0.73253827969E+02  0.52569925851E+02 -0.45752800276E+02  0.10110904583E+03  0.00000000000E+00 0. -1.
         -1    1    6    6    0  503 -0.34116484243E+01  0.43380980357E+02 -0.99062804866E+02  0.10819883599E+03  0.00000000000E+00 0.  1.
<mgrwt>
<rscale>  0 0.29486304E+04</rscale>
<asrwt>0</asrwt>
<pdfrwt beam="1">  1        2 0.39227853E+00 0.29486304E+04</pdfrwt>
<pdfrwt beam="2">  1       -1 0.13114732E+00 0.29486304E+04</pdfrwt>
<totfact> 0.15776233E+00</totfact>
</mgrwt>
</event>
<event>
12    6  0.1510140E-007  0.1536789E+04  0.7818608E-02  0.8860351E-01
         -1   -1    0    0    0  501 -0.00000000000E+00  0.00000000000E+00  0.15503931716E+04  0.15503931716E+04  0.00000000000E+00 0.  1.
          2   -1    0    0  501    0  0.00000000000E+00 -0.00000000000E+00 -0.38082607900E+03  0.38082607900E+03  0.00000000000E+00 0. -1.
         24    2    1    2    0    0 -0.59099683298E+02 -0.47884635971E+03  0.52625895266E+03  0.72167689481E+03  0.10527319927E+03 0.  0.
        254    2    1    2    0    0  0.59099683298E+02  0.47884635971E+03  0.64330813997E+03  0.12095423558E+04  0.90352683346E+03 0.  0.
         23    2    4    4    0    0  0.94898091723E+01 -0.16414224471E+03 -0.10624704640E+03  0.21656195085E+03  0.92617010909E+02 0.  0.
         23    2    4    4    0    0  0.49609874126E+02  0.64298860442E+03  0.74955518637E+03  0.99298040496E+03  0.91003418577E+02 0.  0.
          2    1    3    3  502    0  0.19155397560E+02 -0.20621084893E+02  0.21082291857E+02  0.35165628499E+02  0.00000000000E+00 0. -1.
         -1    1    3    3    0  502 -0.78255080857E+02 -0.45822527482E+03  0.50517666080E+03  0.68651126631E+03  0.00000000000E+00 0.  1.
         11    1    5    5    0    0 -0.28525202714E+02 -0.36305103500E+02 -0.59334750508E+02  0.75182181053E+02  0.00000000000E+00 0.  1.
        -11    1    5    5    0    0  0.38015011887E+02 -0.12783714121E+03 -0.46912295897E+02  0.14137976980E+03  0.00000000000E+00 0. -1.
          1    1    6    6  503    0  0.75288785884E+02  0.40701971180E+03  0.47766116333E+03  0.63205508781E+03  0.00000000000E+00 0. -1.
         -1    1    6    6    0  503 -0.25678911758E+02  0.23596889263E+03  0.27189402304E+03  0.36092531715E+03  0.00000000000E+00 0.  1.
<mgrwt>
<rscale>  0 0.15367891E+04</rscale>
<asrwt>0</asrwt>
<pdfrwt beam="1">  1        2 0.58588629E-01 0.15367891E+04</pdfrwt>
<pdfrwt beam="2">  1       -1 0.23852202E+00 0.15367891E+04</pdfrwt>
<totfact> 0.76841656E+00</totfact>
</mgrwt>
</event>
<event>
12    6  0.1510140E-007  0.1609816E+04  0.7818608E-02  0.8814540E-01
          2   -1    0    0  501    0  0.00000000000E+00  0.00000000000E+00  0.16102192960E+04  0.16102192960E+04  0.00000000000E+00 0. -1.
         -1   -1    0    0    0  501 -0.00000000000E+00 -0.00000000000E+00 -0.40235325731E+03  0.40235325731E+03  0.00000000000E+00 0.  1.
         24    2    1    2    0    0  0.13117465911E+02 -0.44081766371E+03  0.82883265098E+03  0.94230518846E+03  0.80518471822E+02 0.  0.
        254    2    1    2    0    0 -0.13117465911E+02  0.44081766371E+03  0.37903338769E+03  0.10702673648E+04  0.89850633982E+03 0.  0.
         23    2    4    4    0    0  0.15285684858E+02  0.34289314351E+03  0.66412300927E+03  0.75302135548E+03  0.90401495172E+02 0.  0.
         23    2    4    4    0    0 -0.28403150770E+02  0.97924520203E+02 -0.28508962159E+03  0.31724600936E+03  0.94725854373E+02 0.  0.
          4    1    3    3  502    0 -0.10875194808E+02 -0.18085178814E+03  0.26562851666E+03  0.32153405419E+03  0.00000000000E+00 0. -1.
         -3    1    3    3    0  502  0.23992660719E+02 -0.25996587557E+03  0.56320413432E+03  0.62077113427E+03  0.00000000000E+00 0.  1.
         11    1    5    5    0    0 -0.31029801568E+02  0.55527427426E+02  0.13037920262E+03  0.14506853641E+03  0.00000000000E+00 0.  1.
        -11    1    5    5    0    0  0.46315486426E+02  0.28736571608E+03  0.53374380666E+03  0.60795281906E+03  0.00000000000E+00 0. -1.
          2    1    6    6  503    0 -0.49376259979E+02  0.12187663128E+02 -0.10831275693E+03  0.11965871258E+03  0.00000000000E+00 0.  1.
         -2    1    6    6    0  503  0.20973109210E+02  0.85736857075E+02 -0.17677686466E+03  0.19758729678E+03  0.00000000000E+00 0. -1.
<mgrwt>
<rscale>  0 0.16098161E+04</rscale>
<asrwt>0</asrwt>
<pdfrwt beam="1">  1        2 0.24772604E+00 0.16098161E+04</pdfrwt>
<pdfrwt beam="2">  1       -1 0.61900502E-01 0.16098161E+04</pdfrwt>
<totfact> 0.31804426E+01</totfact>
</mgrwt>
</event>
<event>
12    6  0.1510140E-007  0.2914800E+04  0.7818608E-02  0.8268488E-01
          2   -1    0    0  501    0  0.00000000000E+00  0.00000000000E+00  0.20647364706E+04  0.20647364706E+04  0.00000000000E+00 0. -1.
         -1   -1    0    0    0  501 -0.00000000000E+00 -0.00000000000E+00 -0.10287096903E+04  0.10287096903E+04  0.00000000000E+00 0.  1.
         24    2    1    2    0    0  0.12883455653E+04 -0.26639994977E+03  0.52848276211E+03  0.14200857739E+04  0.80909495732E+02 0.  0.
        254    2    1    2    0    0 -0.12883455653E+04  0.26639994977E+03  0.50754401815E+03  0.16733603871E+04  0.90096105677E+03 0.  0.
         23    2    4    4    0    0 -0.96875650292E+03  0.58318510686E+03  0.38233037806E+03  0.11970606891E+04  0.90464051428E+02 0.  0.
         23    2    4    4    0    0 -0.31958906237E+03 -0.31678515709E+03  0.12521364008E+03  0.47629969796E+03  0.93235948402E+02 0.  0.
          2    1    3    3  502    0  0.55853057547E+03 -0.10870603426E+03  0.27128344013E+03  0.63037140680E+03  0.00000000000E+00 0. -1.
         -1    1    3    3    0  502  0.72981498982E+03 -0.15769391550E+03  0.25719932198E+03  0.78971436708E+03  0.00000000000E+00 0.  1.
         11    1    5    5    0    0 -0.45044596848E+03  0.21892057323E+03  0.16481727112E+03  0.52724996042E+03  0.00000000000E+00 0. -1.
        -11    1    5    5    0    0 -0.51831053444E+03  0.36426453363E+03  0.21751310694E+03  0.66981072869E+03  0.00000000000E+00 0.  1.
          3    1    6    6  503    0 -0.24143158148E+03 -0.27089338280E+03  0.13022418583E+03  0.38552661640E+03  0.00000000000E+00 0. -1.
         -3    1    6    6    0  503 -0.78157480889E+02 -0.45891774294E+02 -0.50105457467E+01  0.90773081558E+02  0.00000000000E+00 0.  1.
<mgrwt>
<rscale>  0 0.29147998E+04</rscale>
<asrwt>0</asrwt>
<pdfrwt beam="1">  1        2 0.31765176E+00 0.29147998E+04</pdfrwt>
<pdfrwt beam="2">  1       -1 0.15826303E+00 0.29147998E+04</pdfrwt>
<totfact> 0.18161609E+00</totfact>
</mgrwt>
</event>
<event>
12    6  0.1510140E-007  0.1816831E+04  0.7818608E-02  0.8697400E-01
         -1   -1    0    0    0  501 -0.00000000000E+00  0.00000000000E+00  0.15550518872E+04  0.15550518872E+04  0.00000000000E+00 0.  1.
          2   -1    0    0  501    0  0.00000000000E+00 -0.00000000000E+00 -0.53066938160E+03  0.53066938160E+03  0.00000000000E+00 0. -1.
         24    2    1    2    0    0  0.32958814195E+03  0.21485551748E+03  0.10317744060E+04  0.11071252097E+04  0.79853418102E+02 0.  0.
        254    2    1    2    0    0 -0.32958814195E+03 -0.21485551748E+03 -0.73919004412E+01  0.97859605906E+03  0.89599350997E+03 0.  0.
         23    2    4    4    0    0 -0.18857830744E+03  0.33119509766E+03  0.81493902185E+02  0.40005306661E+03  0.90273081561E+02 0.  0.
         23    2    4    4    0    0 -0.14100983451E+03 -0.54605061514E+03 -0.88885802626E+02  0.57854299245E+03  0.93574892362E+02 0.  0.
          4    1    3    3  502    0  0.11272460820E+03  0.87886294872E+02  0.47979050509E+03  0.50062937079E+03  0.00000000000E+00 0. -1.
         -3    1    3    3    0  502  0.21686353376E+03  0.12696922261E+03  0.55198390091E+03  0.60649583892E+03  0.00000000000E+00 0.  1.
         11    1    5    5    0    0 -0.33227363697E+02  0.32663350531E+02  0.39165029854E+02  0.60867493210E+02  0.00000000000E+00 0. -1.
        -11    1    5    5    0    0 -0.15535094375E+03  0.29853174713E+03  0.42328872331E+02  0.33918557340E+03  0.00000000000E+00 0.  1.
          4    1    6    6  503    0  0.63507360585E+01 -0.61304785154E+02 -0.29802413586E+02  0.68460151817E+02  0.00000000000E+00 0. -1.
         -4    1    6    6    0  503 -0.14736057057E+03 -0.48474582999E+03 -0.59083389040E+02  0.51008284063E+03  0.00000000000E+00 0.  1.
<mgrwt>
<rscale>  0 0.18168307E+04</rscale>
<asrwt>0</asrwt>
<pdfrwt beam="1">  1        2 0.81641444E-01 0.18168307E+04</pdfrwt>
<pdfrwt beam="2">  1       -1 0.23923875E+00 0.18168307E+04</pdfrwt>
<totfact> 0.50737714E+00</totfact>
</mgrwt>
</event>
<event>
12    6  0.1510140E-007  0.2277794E+04  0.7818608E-02  0.8486728E-01
         -1   -1    0    0    0  501 -0.00000000000E+00  0.00000000000E+00  0.94176567662E+03  0.94176567662E+03  0.00000000000E+00 0.  1.
          2   -1    0    0  501    0  0.00000000000E+00 -0.00000000000E+00 -0.13772920426E+04  0.13772920426E+04  0.00000000000E+00 0. -1.
         24    2    1    2    0    0 -0.91771745438E+02  0.94586141550E+03 -0.32637599833E+03  0.10078305356E+04  0.78263820649E+02 0.  0.
        254    2    1    2    0    0  0.91771745438E+02 -0.94586141550E+03 -0.10915036763E+03  0.13112271836E+04  0.89684282548E+03 0.  0.
         23    2    4    4    0    0 -0.67419186530E+02 -0.74105630167E+03  0.30985106034E+03  0.81161584437E+03  0.94883140146E+02 0.  0.
         23    2    4    4    0    0  0.15919093197E+03 -0.20480511383E+03 -0.41900142796E+03  0.49961133921E+03  0.82233850468E+02 0.  0.
          2    1    3    3  502    0 -0.46970996881E+02  0.68612257067E+03 -0.26637273285E+03  0.73751263672E+03  0.00000000000E+00 0. -1.
         -1    1    3    3    0  502 -0.44800748558E+02  0.25973884483E+03 -0.60003265485E+02  0.27031789888E+03  0.00000000000E+00 0.  1.
         11    1    5    5    0    0  0.20753430408E+02 -0.76465007255E+02  0.41988757654E+02  0.89669716056E+02  0.00000000000E+00 0.  1.
        -11    1    5    5    0    0 -0.88172616938E+02 -0.66459129441E+03  0.26786230268E+03  0.72194612831E+03  0.00000000000E+00 0. -1.
          3    1    6    6  503    0  0.69177693196E+02 -0.39255851382E+02 -0.87146510091E+02  0.11798766599E+03  0.00000000000E+00 0. -1.
         -3    1    6    6    0  503  0.90013238772E+02 -0.16554926245E+03 -0.33185491787E+03  0.38162367323E+03  0.00000000000E+00 0.  1.
<mgrwt>
<rscale>  0 0.22777940E+04</rscale>
<asrwt>0</asrwt>
<pdfrwt beam="1">  1        2 0.21189108E+00 0.22777940E+04</pdfrwt>
<pdfrwt beam="2">  1       -1 0.14488703E+00 0.22777940E+04</pdfrwt>
<totfact> 0.59090243E+00</totfact>
</mgrwt>
</event>
<event>
12    6  0.1510140E-007  0.1902246E+04  0.7818608E-02  0.8653739E-01
         -1   -1    0    0    0  501 -0.00000000000E+00  0.00000000000E+00  0.97115105964E+03  0.97115105964E+03  0.00000000000E+00 0.  1.
          2   -1    0    0  501    0  0.00000000000E+00 -0.00000000000E+00 -0.93150808033E+03  0.93150808033E+03  0.00000000000E+00 0. -1.
         24    2    1    2    0    0 -0.18859156090E+03  0.15620571351E+03 -0.67878164293E+03  0.72593202040E+03  0.79156665426E+02 0.  0.
        254    2    1    2    0    0  0.18859156090E+03 -0.15620571351E+03  0.71842462225E+03  0.11767271196E+04  0.89921397581E+03 0.  0.
         23    2    4    4    0    0  0.47675422324E+03 -0.36673425052E+01  0.13784478327E+03  0.50452049115E+03  0.90728732721E+02 0.  0.
         23    2    4    4    0    0 -0.28816266234E+03 -0.15253837100E+03  0.58057983899E+03  0.67220662842E+03  0.92103893818E+02 0.  0.
          2    1    3    3  502    0 -0.14927906341E+03  0.15878548409E+03 -0.57140243474E+03  0.61155360448E+03  0.00000000000E+00 0. -1.
         -3    1    3    3    0  502 -0.39312497492E+02 -0.25797705780E+01 -0.10737920820E+03  0.11437841592E+03  0.00000000000E+00 0.  1.
         11    1    5    5    0    0  0.12399590423E+03 -0.37712267945E+02  0.20589246481E+02  0.13122925166E+03  0.00000000000E+00 0.  1.
        -11    1    5    5    0    0  0.35275831901E+03  0.34044925439E+02  0.11725553679E+03  0.37329123950E+03  0.00000000000E+00 0. -1.
          1    1    6    6  503    0 -0.99697274204E+02 -0.40113012381E+02  0.11440903589E+03  0.15696505260E+03  0.00000000000E+00 0. -1.
         -1    1    6    6    0  503 -0.18846538813E+03 -0.11242535862E+03  0.46617080310E+03  0.51524157581E+03  0.00000000000E+00 0.  1.
<mgrwt>
<rscale>  0 0.19022461E+04</rscale>
<asrwt>0</asrwt>
<pdfrwt beam="1">  1        2 0.14330894E+00 0.19022461E+04</pdfrwt>
<pdfrwt beam="2">  1       -1 0.14940785E+00 0.19022461E+04</pdfrwt>
<totfact> 0.10522617E+01</totfact>
</mgrwt>
</event>
<event>
12    6  0.1510140E-007  0.1491047E+04  0.7818608E-02  0.8890429E-01
          2   -1    0    0  501    0  0.00000000000E+00  0.00000000000E+00  0.85965584314E+03  0.85965584314E+03  0.00000000000E+00 0. -1.
         -1   -1    0    0    0  501 -0.00000000000E+00 -0.00000000000E+00 -0.64654355874E+03  0.64654355874E+03  0.00000000000E+00 0.  1.
         24    2    1    2    0    0 -0.28790179021E+03  0.20373574057E+03 -0.25080685271E+03  0.43983483965E+03  0.78453272794E+02 0.  0.
        254    2    1    2    0    0  0.28790179021E+03 -0.20373574057E+03  0.46391913711E+03  0.10663645622E+04  0.89303791691E+03 0.  0.
         23    2    4    4    0    0 -0.11644799381E+03  0.27502702703E+03  0.23480926790E+03  0.39279527375E+03  0.99763389716E+02 0.  0.
         23    2    4    4    0    0  0.40434978401E+03 -0.47876276760E+03  0.22910986921E+03  0.67356928849E+03  0.92150522300E+02 0.  0.
          4    1    3    3  502    0 -0.11550433570E+03  0.39784983916E+02 -0.10264640827E+03  0.15956309611E+03  0.00000000000E+00 0. -1.
         -3    1    3    3    0  502 -0.17239745451E+03  0.16395075665E+03 -0.14816044444E+03  0.28027174354E+03  0.00000000000E+00 0.  1.
         11    1    5    5    0    0 -0.44375095350E+02  0.79149110969E+02  0.19272484087E+02  0.92763998929E+02  0.00000000000E+00 0.  1.
        -11    1    5    5    0    0 -0.72072898456E+02  0.19587791606E+03  0.21553678381E+03  0.30003127482E+03  0.00000000000E+00 0. -1.
          4    1    6    6  503    0  0.56331546642E+02 -0.26086708924E+02  0.16035660466E+02  0.64116315678E+02  0.00000000000E+00 0. -1.
         -4    1    6    6    0  503  0.34801823737E+03 -0.45267605867E+03  0.21307420874E+03  0.60945297281E+03  0.00000000000E+00 0.  1.
<mgrwt>
<rscale>  0 0.14910465E+04</rscale>
<asrwt>0</asrwt>
<pdfrwt beam="1">  1        2 0.13225475E+00 0.14910465E+04</pdfrwt>
<pdfrwt beam="2">  1       -1 0.99468239E-01 0.14910465E+04</pdfrwt>
<totfact> 0.33286604E+01</totfact>
</mgrwt>
</event>
<event>
12    6  0.1510140E-007  0.1409407E+04  0.7818608E-02  0.8947037E-01
          2   -1    0    0  501    0  0.00000000000E+00  0.00000000000E+00  0.19369348481E+04  0.19369348481E+04  0.00000000000E+00 0. -1.
         -1   -1    0    0    0  501 -0.00000000000E+00 -0.00000000000E+00 -0.25638819377E+03  0.25638819377E+03  0.00000000000E+00 0.  1.
         24    2    1    2    0    0  0.11693701532E+03  0.26657417867E+03  0.95770489603E+03  0.10041281768E+04  0.79615760067E+02 0.  0.
        254    2    1    2    0    0 -0.11693701532E+03 -0.26657417867E+03  0.72284175826E+03  0.11891948650E+04  0.89830293403E+03 0.  0.
         23    2    4    4    0    0 -0.90819076550E+02  0.28590609622E+03  0.56682101478E+02  0.31839933618E+03  0.90415021599E+02 0.  0.
         23    2    4    4    0    0 -0.26117938774E+02 -0.55248027489E+03  0.66615965678E+03  0.87079552886E+03  0.92733833620E+02 0.  0.
          2    1    3    3  502    0  0.74935817314E+02  0.21220577582E+03  0.62188932676E+03  0.66135694050E+03  0.00000000000E+00 0. -1.
         -1    1    3    3    0  502  0.42001198010E+02  0.54368402853E+02  0.33581556927E+03  0.34277123629E+03  0.00000000000E+00 0.  1.
         11    1    5    5    0    0 -0.10649053993E+03  0.24069342793E+03  0.61552907788E+02  0.27030042879E+03  0.00000000000E+00 0. -1.
        -11    1    5    5    0    0  0.15671463384E+02  0.45212668290E+02 -0.48708063104E+01  0.48098907395E+02  0.00000000000E+00 0.  1.
          3    1    6    6  503    0  0.97562006264E+01 -0.44442099672E+03  0.49591275357E+03  0.66598398248E+03  0.00000000000E+00 0. -1.
         -3    1    6    6    0  503 -0.35874139400E+02 -0.10805927817E+03  0.17024690321E+03  0.20481154638E+03  0.00000000000E+00 0.  1.
<mgrwt>
<rscale>  0 0.14094073E+04</rscale>
<asrwt>0</asrwt>
<pdfrwt beam="1">  1        2 0.29798997E+00 0.14094073E+04</pdfrwt>
<pdfrwt beam="2">  1       -1 0.39444339E-01 0.14094073E+04</pdfrwt>
<totfact> 0.50169213E+01</totfact>
</mgrwt>
</event>
<event>
12    6  0.1510140E-007  0.1271510E+04  0.7818608E-02  0.9052468E-01
          2   -1    0    0  501    0  0.00000000000E+00  0.00000000000E+00  0.38272354543E+04  0.38272354543E+04  0.00000000000E+00 0. -1.
         -1   -1    0    0    0  501 -0.00000000000E+00 -0.00000000000E+00 -0.10560743402E+03  0.10560743402E+03  0.00000000000E+00 0.  1.
         24    2    1    2    0    0  0.15692066152E+03 -0.24453196885E+03  0.60310131472E+03  0.67416113255E+03  0.79637045567E+02 0.  0.
        254    2    1    2    0    0 -0.15692066152E+03  0.24453196885E+03  0.31185267056E+04  0.32586817558E+04  0.89965437491E+03 0.  0.
         23    2    4    4    0    0 -0.40470597901E+03  0.44490784951E+03  0.18477917524E+04  0.19453820125E+04  0.91906965793E+02 0.  0.
         23    2    4    4    0    0  0.24778531749E+03 -0.20037588066E+03  0.12707349531E+04  0.13132997432E+04  0.91874029772E+02 0.  0.
          2    1    3    3  502    0  0.59306232523E+02 -0.13078054958E+03  0.37148175543E+03  0.39827060647E+03  0.00000000000E+00 0. -1.
         -1    1    3    3    0  502  0.97614428998E+02 -0.11375141926E+03  0.23161955929E+03  0.27589052608E+03  0.00000000000E+00 0.  1.
         11    1    5    5    0    0 -0.15231849563E+03  0.22844161606E+03  0.90068614435E+03  0.94160608891E+03  0.00000000000E+00 0. -1.
        -11    1    5    5    0    0 -0.25238748338E+03  0.21646623345E+03  0.94710560808E+03  0.10037759236E+04  0.00000000000E+00 0.  1.
          3    1    6    6  503    0  0.51416239214E+02 -0.95755866060E+02  0.38518231254E+03  0.40022272478E+03  0.00000000000E+00 0. -1.
         -3    1    6    6    0  503  0.19636907828E+03 -0.10462001460E+03  0.88555264061E+03  0.91307701846E+03  0.00000000000E+00 0.  1.
<mgrwt>
<rscale>  0 0.12715102E+04</rscale>
<asrwt>0</asrwt>
<pdfrwt beam="1">  1        2 0.58880535E+00 0.12715102E+04</pdfrwt>
<pdfrwt beam="2">  1       -1 0.16247300E-01 0.12715102E+04</pdfrwt>
<totfact> 0.15583612E+01</totfact>
</mgrwt>
</event>
<event>
12    6  0.1800036E-007  0.2391376E+04  0.7818608E-02  0.8442739E-01
         -1   -1    0    0    0  501 -0.00000000000E+00  0.00000000000E+00  0.10482880442E+04  0.10482880442E+04  0.00000000000E+00 0.  1.
          2   -1    0    0  501    0  0.00000000000E+00 -0.00000000000E+00 -0.13638142294E+04  0.13638142294E+04  0.00000000000E+00 0. -1.
         24    2    1    2    0    0 -0.25501690565E+03 -0.63058515759E+03 -0.91004003457E+03  0.11389228523E+04  0.79379694691E+02 0.  0.
        254    2    1    2    0    0  0.25501690565E+03  0.63058515759E+03  0.59451384930E+03  0.12731794212E+04  0.89714427964E+03 0.  0.
         23    2    4    4    0    0 -0.24049886006E+03  0.34459066028E+03 -0.16470440267E+02  0.43116749589E+03  0.95140471205E+02 0.  0.
         23    2    4    4    0    0  0.49551576571E+03  0.28599449731E+03  0.61098428957E+03  0.84201192534E+03  0.91397777684E+02 0.  0.
          2    1    3    3  502    0 -0.22638981515E+03 -0.58382830057E+03 -0.79949462132E+03  0.10155291638E+04  0.00000000000E+00 0. -1.
         -1    1    3    3    0  502 -0.28627090492E+02 -0.46756857023E+02 -0.11054541325E+03  0.12339368857E+03  0.00000000000E+00 0.  1.
         11    1    5    5    0    0 -0.22412133862E+03  0.33527417433E+03 -0.34923154969E+02  0.40479472965E+03  0.00000000000E+00 0. -1.
        -11    1    5    5    0    0 -0.16377521440E+02  0.93164859483E+01  0.18452714702E+02  0.26372766234E+02  0.00000000000E+00 0.  1.
          1    1    6    6  503    0  0.38667224296E+03  0.24514928537E+03  0.52980222257E+03  0.70021710250E+03  0.00000000000E+00 0. -1.
         -1    1    6    6    0  503  0.10884352276E+03  0.40845211944E+02  0.81182066991E+02  0.14179482284E+03  0.00000000000E+00 0.  1.
<mgrwt>
<rscale>  0 0.23913763E+04</rscale>
<asrwt>0</asrwt>
<pdfrwt beam="1">  1        2 0.20981757E+00 0.23913763E+04</pdfrwt>
<pdfrwt beam="2">  1       -1 0.16127508E+00 0.23913763E+04</pdfrwt>
<totfact> 0.44489375E+00</totfact>
</mgrwt>
</event>
<event>
12    6  0.1510140E-007  0.1918512E+04  0.7818608E-02  0.8645696E-01
         -1   -1    0    0    0  501 -0.00000000000E+00  0.00000000000E+00  0.27817877076E+03  0.27817877076E+03  0.00000000000E+00 0.  1.
          2   -1    0    0  501    0  0.00000000000E+00 -0.00000000000E+00 -0.33078434292E+04  0.33078434292E+04  0.00000000000E+00 0. -1.
         24    2    1    2    0    0  0.13916381068E+03 -0.60561328739E+03 -0.19483316516E+04  0.20465066069E+04  0.77839883685E+02 0.  0.
        254    2    1    2    0    0 -0.13916381068E+03  0.60561328739E+03 -0.10813330068E+04  0.15395155930E+04  0.90260355051E+03 0.  0.
         23    2    4    4    0    0 -0.14237047449E+03  0.59146811559E+03 -0.19034502867E+03  0.64376573184E+03  0.89995576461E+02 0.  0.
         23    2    4    4    0    0  0.32066638127E+01  0.14145171799E+02 -0.89098797810E+03  0.89574986113E+03  0.91092634296E+02 0.  0.
          2    1    3    3  502    0  0.73632194328E+02 -0.46424056490E+03 -0.14937665022E+04  0.15659755315E+04  0.00000000000E+00 0. -1.
         -1    1    3    3    0  502  0.65531616351E+02 -0.14137272249E+03 -0.45456514938E+03  0.48053107542E+03  0.00000000000E+00 0.  1.
         11    1    5    5    0    0 -0.16434498997E+02  0.25038003941E+03 -0.65394303287E+02  0.25930035055E+03  0.00000000000E+00 0. -1.
        -11    1    5    5    0    0 -0.12593597549E+03  0.34108807618E+03 -0.12495072539E+03  0.38446538129E+03  0.00000000000E+00 0.  1.
          2    1    6    6  503    0 -0.37525034138E+02 -0.11709742445E+02 -0.26426058408E+03  0.26716830380E+03  0.00000000000E+00 0. -1.
         -2    1    6    6    0  503  0.40731697951E+02  0.25854914244E+02 -0.62672739402E+03  0.62858155733E+03  0.00000000000E+00 0.  1.
<mgrwt>
<rscale>  0 0.19185117E+04</rscale>
<asrwt>0</asrwt>
<pdfrwt beam="1">  1        2 0.50889899E+00 0.19185117E+04</pdfrwt>
<pdfrwt beam="2">  1       -1 0.42796734E-01 0.19185117E+04</pdfrwt>
<totfact> 0.63311163E+00</totfact>
</mgrwt>
</event>
<event>
12    6  0.1510140E-007  0.1807039E+04  0.7818608E-02  0.8702565E-01
         -1   -1    0    0    0  501 -0.00000000000E+00  0.00000000000E+00  0.47898571110E+03  0.47898571110E+03  0.00000000000E+00 0.  1.
          2   -1    0    0  501    0  0.00000000000E+00 -0.00000000000E+00 -0.17043249932E+04  0.17043249932E+04  0.00000000000E+00 0. -1.
         24    2    1    2    0    0  0.43975310840E+03 -0.35189978173E+02 -0.10442435283E+04  0.11364856251E+04  0.80832535645E+02 0.  0.
        254    2    1    2    0    0 -0.43975310840E+03  0.35189978173E+02 -0.18109575386E+03  0.10468250792E+04  0.93189374046E+03 0.  0.
         23    2    4    4    0    0 -0.15031494083E+03 -0.33866648467E+03  0.20314216052E+03  0.43082915642E+03  0.84008662461E+02 0.  0.
         23    2    4    4    0    0 -0.28943816757E+03  0.37385646284E+03 -0.38423791438E+03  0.61599592280E+03  0.90934561143E+02 0.  0.
          2    1    3    3  502    0  0.38957319335E+03 -0.56612508486E+02 -0.90358591770E+03  0.98561643643E+03  0.00000000000E+00 0. -1.
         -1    1    3    3    0  502  0.50179915044E+02  0.21422530313E+02 -0.14065761057E+03  0.15086918867E+03  0.00000000000E+00 0.  1.
         11    1    5    5    0    0 -0.37009723841E+02 -0.45078092673E+02  0.40928607888E+01  0.58467987884E+02  0.00000000000E+00 0.  1.
        -11    1    5    5    0    0 -0.11330521699E+03 -0.29358839200E+03  0.19904929973E+03  0.37236116854E+03  0.00000000000E+00 0. -1.
          1    1    6    6  503    0 -0.14520346515E+03  0.13831835052E+03 -0.20479513810E+03  0.28663053042E+03  0.00000000000E+00 0. -1.
         -1    1    6    6    0  503 -0.14423470242E+03  0.23553811232E+03 -0.17944277628E+03  0.32936539238E+03  0.00000000000E+00 0.  1.
<mgrwt>
<rscale>  0 0.18070388E+04</rscale>
<asrwt>0</asrwt>
<pdfrwt beam="1">  1        2 0.26220384E+00 0.18070388E+04</pdfrwt>
<pdfrwt beam="2">  1       -1 0.73690109E-01 0.18070388E+04</pdfrwt>
<totfact> 0.19442824E+01</totfact>
</mgrwt>
</event>
<event>
12    6  0.1510140E-007  0.2574203E+04  0.7818608E-02  0.8377017E-01
          2   -1    0    0  501    0  0.00000000000E+00  0.00000000000E+00  0.33803368552E+04  0.33803368552E+04  0.00000000000E+00 0. -1.
         -1   -1    0    0    0  501 -0.00000000000E+00 -0.00000000000E+00 -0.49007851433E+03  0.49007851433E+03  0.00000000000E+00 0.  1.
         24    2    1    2    0    0  0.19518514524E+03  0.17280989889E+02  0.29388011631E+04  0.29463940619E+04  0.79308374274E+02 0.  0.
        254    2    1    2    0    0 -0.19518514524E+03 -0.17280989889E+02 -0.48542822250E+02  0.92402130761E+03  0.90170011522E+03 0.  0.
         23    2    4    4    0    0 -0.43851906764E+03 -0.11462864258E+03 -0.29899197958E+03  0.55046097826E+03  0.90401251976E+02 0.  0.
         23    2    4    4    0    0  0.24333392239E+03  0.97347652686E+02  0.25044915733E+03  0.37356032935E+03  0.90191884256E+02 0.  0.
          2    1    3    3  502    0  0.14392214571E+03 -0.20516667265E+02  0.18301507849E+04  0.18359156879E+04  0.00000000000E+00 0. -1.
         -1    1    3    3    0  502  0.51262999538E+02  0.37797657154E+02  0.11086503782E+04  0.11104783740E+04  0.00000000000E+00 0.  1.
         11    1    5    5    0    0 -0.40903776760E+03 -0.81595117322E+02 -0.27949213705E+03  0.50208118185E+03  0.00000000000E+00 0. -1.
        -11    1    5    5    0    0 -0.29481300039E+02 -0.33033525253E+02 -0.19499842528E+02  0.48379796416E+02  0.00000000000E+00 0.  1.
          1    1    6    6  503    0  0.21491786095E+03  0.75714862037E+02  0.16614808876E+03  0.28200640895E+03  0.00000000000E+00 0. -1.
         -1    1    6    6    0  503  0.28416061444E+02  0.21632790649E+02  0.84301068567E+02  0.91553920401E+02  0.00000000000E+00 0.  1.
<mgrwt>
<rscale>  0 0.25742031E+04</rscale>
<asrwt>0</asrwt>
<pdfrwt beam="1">  1        2 0.52005181E+00 0.25742031E+04</pdfrwt>
<pdfrwt beam="2">  1       -1 0.75396697E-01 0.25742031E+04</pdfrwt>
<totfact> 0.17535025E+00</totfact>
</mgrwt>
</event>
<event>
12    6  0.1510140E-007  0.2252189E+04  0.7818608E-02  0.8497014E-01
         -1   -1    0    0    0  501 -0.00000000000E+00  0.00000000000E+00  0.56824852442E+03  0.56824852442E+03  0.00000000000E+00 0.  1.
          2   -1    0    0  501    0  0.00000000000E+00 -0.00000000000E+00 -0.22315746475E+04  0.22315746475E+04  0.00000000000E+00 0. -1.
         24    2    1    2    0    0  0.91997862686E+03 -0.37092487026E+02 -0.46692473578E+03  0.10351174397E+04  0.75583587485E+02 0.  0.
        254    2    1    2    0    0 -0.91997862686E+03  0.37092487026E+02 -0.11964013873E+04  0.17647057322E+04  0.91382356896E+03 0.  0.
         23    2    4    4    0    0 -0.69860467215E+03  0.42914110432E+03 -0.88535182724E+03  0.12099669891E+04  0.89228253656E+02 0.  0.
         23    2    4    4    0    0 -0.22137395471E+03 -0.39204861729E+03 -0.31104956002E+03  0.55473874310E+03  0.90965367877E+02 0.  0.
          2    1    3    3  502    0  0.87928952105E+03 -0.22602847301E+02 -0.45507007352E+03  0.99032808823E+03  0.00000000000E+00 0. -1.
         -1    1    3    3    0  502  0.40689105815E+02 -0.14489639725E+02 -0.11854662266E+02  0.44789351512E+02  0.00000000000E+00 0.  1.
         11    1    5    5    0    0 -0.62482388544E+03  0.40291326843E+03 -0.76818183885E+03  0.10690403768E+04  0.00000000000E+00 0. -1.
        -11    1    5    5    0    0 -0.73780786704E+02  0.26227835887E+02 -0.11716998839E+03  0.14092661225E+03  0.00000000000E+00 0.  1.
          4    1    6    6  503    0 -0.16687815331E+03 -0.35735899443E+03 -0.27438680484E+03  0.48046007911E+03  0.00000000000E+00 0. -1.
         -4    1    6    6    0  503 -0.54495801406E+02 -0.34689622865E+02 -0.36662755179E+02  0.74278663981E+02  0.00000000000E+00 0.  1.
<mgrwt>
<rscale>  0 0.22521892E+04</rscale>
<asrwt>0</asrwt>
<pdfrwt beam="1">  1        2 0.34331918E+00 0.22521892E+04</pdfrwt>
<pdfrwt beam="2">  1       -1 0.87422849E-01 0.22521892E+04</pdfrwt>
<totfact> 0.66097020E+00</totfact>
</mgrwt>
</event>
<event>
12    6  0.1510140E-007  0.2751464E+04  0.7818608E-02  0.8318497E-01
         -1   -1    0    0    0  501 -0.00000000000E+00  0.00000000000E+00  0.27445497298E+04  0.27445497298E+04  0.00000000000E+00 0.  1.
          2   -1    0    0  501    0  0.00000000000E+00 -0.00000000000E+00 -0.68959914771E+03  0.68959914771E+03  0.00000000000E+00 0. -1.
         24    2    1    2    0    0 -0.39906918170E+03 -0.10368220370E+04  0.26598437113E+03  0.11451928261E+04  0.80391386410E+02 0.  0.
        254    2    1    2    0    0  0.39906918170E+03  0.10368220370E+04  0.17889662109E+04  0.22889560514E+04  0.89703040814E+03 0.  0.
         23    2    4    4    0    0 -0.24025591422E+03  0.58175746885E+03  0.85643640530E+03  0.10667599554E+04  0.91262419412E+02 0.  0.
         23    2    4    4    0    0  0.63932509592E+03  0.45506456816E+03  0.93252980561E+03  0.12221960960E+04  0.91274965066E+02 0.  0.
          4    1    3    3  502    0 -0.36904593568E+03 -0.90930979046E+03  0.25376455014E+03  0.10136250020E+04  0.00000000000E+00 0. -1.
         -3    1    3    3    0  502 -0.30023246024E+02 -0.12751224655E+03  0.12219820987E+02  0.13156782413E+03  0.00000000000E+00 0.  1.
         11    1    5    5    0    0 -0.42469706818E+02  0.37043145779E+02  0.82231130725E+02  0.99688662880E+02  0.00000000000E+00 0.  1.
        -11    1    5    5    0    0 -0.19778620740E+03  0.54471432307E+03  0.77420527458E+03  0.96707129250E+03  0.00000000000E+00 0. -1.
          1    1    6    6  503    0  0.63185476150E+03  0.44466389726E+03  0.89408344553E+03  0.11816732326E+04  0.00000000000E+00 0. -1.
         -1    1    6    6    0  503  0.74703344237E+01  0.10400670903E+02  0.38446360087E+02  0.40522863368E+02  0.00000000000E+00 0.  1.
<mgrwt>
<rscale>  0 0.27514644E+04</rscale>
<asrwt>0</asrwt>
<pdfrwt beam="1">  1        2 0.10609218E+00 0.27514644E+04</pdfrwt>
<pdfrwt beam="2">  1       -1 0.42223841E+00 0.27514644E+04</pdfrwt>
<totfact> 0.20919245E-01</totfact>
</mgrwt>
</event>
<event>
12    6  0.1510140E-007  0.1648979E+04  0.7818608E-02  0.8791011E-01
          2   -1    0    0  501    0  0.00000000000E+00  0.00000000000E+00  0.15053937304E+04  0.15053937304E+04  0.00000000000E+00 0. -1.
         -1   -1    0    0    0  501 -0.00000000000E+00 -0.00000000000E+00 -0.45156497653E+03  0.45156497653E+03  0.00000000000E+00 0.  1.
         24    2    1    2    0    0  0.26023074833E+03  0.15858838718E+03  0.93938534851E+03  0.99072292596E+03  0.78846458968E+02 0.  0.
        254    2    1    2    0    0 -0.26023074833E+03 -0.15858838718E+03  0.11444340535E+03  0.96623578096E+03  0.90974940090E+03 0.  0.
         23    2    4    4    0    0 -0.56405689085E+03  0.71928965642E+00 -0.49671158808E+02  0.57445314162E+03  0.96790983131E+02 0.  0.
         23    2    4    4    0    0  0.30382614252E+03 -0.15930767684E+03  0.16411456416E+03  0.39178263933E+03  0.94184847706E+02 0.  0.
          2    1    3    3  502    0  0.25462653897E+03  0.15095014708E+03  0.93409005841E+03  0.97986981710E+03  0.00000000000E+00 0. -1.
         -1    1    3    3    0  502  0.56042093605E+01  0.76382401075E+01  0.52952900994E+01  0.10853108851E+02  0.00000000000E+00 0.  1.
         11    1    5    5    0    0 -0.23382036449E+03 -0.38606015703E+02 -0.48415261001E+02  0.24188101372E+03  0.00000000000E+00 0.  1.
        -11    1    5    5    0    0 -0.33023652636E+03  0.39325305360E+02 -0.12558978064E+01  0.33257212791E+03  0.00000000000E+00 0. -1.
          1    1    6    6  503    0  0.94418240123E+02 -0.10120469398E+03  0.61634424615E+02  0.15151236401E+03  0.00000000000E+00 0. -1.
         -1    1    6    6    0  503  0.20940790239E+03 -0.58102982865E+02  0.10248013954E+03  0.24027027532E+03  0.00000000000E+00 0.  1.
<mgrwt>
<rscale>  0 0.16489792E+04</rscale>
<asrwt>0</asrwt>
<pdfrwt beam="1">  1        2 0.23159903E+00 0.16489792E+04</pdfrwt>
<pdfrwt beam="2">  1       -1 0.69471535E-01 0.16489792E+04</pdfrwt>
<totfact> 0.28755230E+01</totfact>
</mgrwt>
</event>
<event>
12    6  0.1510140E-007  0.1721340E+04  0.7818608E-02  0.8749286E-01
          2   -1    0    0  501    0  0.00000000000E+00  0.00000000000E+00  0.17170515253E+04  0.17170515253E+04  0.00000000000E+00 0. -1.
         -1   -1    0    0    0  501 -0.00000000000E+00 -0.00000000000E+00 -0.43140993754E+03  0.43140993754E+03  0.00000000000E+00 0.  1.
         24    2    1    2    0    0  0.15367527191E+03 -0.49141995009E+03  0.32244244870E+02  0.52512195360E+03  0.97998562645E+02 0.  0.
        254    2    1    2    0    0 -0.15367527191E+03  0.49141995009E+03  0.12533973429E+04  0.16233395092E+04  0.89393322264E+03 0.  0.
         23    2    4    4    0    0  0.80065489477E+02 -0.23440591750E+03  0.36141247819E+03  0.44633963769E+03  0.85108613031E+02 0.  0.
         23    2    4    4    0    0 -0.23374076139E+03  0.72582586759E+03  0.89198486469E+03  0.11769998715E+04  0.90740096885E+02 0.  0.
          4    1    3    3  502    0 -0.14110548813E+02 -0.30030397415E+02  0.19143505882E+01  0.33235479459E+02  0.00000000000E+00 0. -1.
         -3    1    3    3    0  502  0.16778582073E+03 -0.46138955268E+03  0.30329894282E+02  0.49188647414E+03  0.00000000000E+00 0.  1.
         11    1    5    5    0    0  0.41796356674E+02 -0.11599044490E+03  0.25238511208E+03  0.28088959315E+03  0.00000000000E+00 0. -1.
        -11    1    5    5    0    0  0.38269132804E+02 -0.11841547260E+03  0.10902736611E+03  0.16545004454E+03  0.00000000000E+00 0.  1.
          2    1    6    6  503    0 -0.15550593941E+03  0.47700950655E+03  0.51894798490E+03  0.72182212321E+03  0.00000000000E+00 0. -1.
         -2    1    6    6    0  503 -0.78234821983E+02  0.24881636104E+03  0.37303687979E+03  0.45517774834E+03  0.00000000000E+00 0.  1.
<mgrwt>
<rscale>  0 0.17213403E+04</rscale>
<asrwt>0</asrwt>
<pdfrwt beam="1">  1        2 0.26416177E+00 0.17213403E+04</pdfrwt>
<pdfrwt beam="2">  1       -1 0.66370761E-01 0.17213403E+04</pdfrwt>
<totfact> 0.23883902E+01</totfact>
</mgrwt>
</event>
<event>
12    6  0.1510140E-007  0.2393939E+04  0.7818608E-02  0.8441776E-01
          2   -1    0    0  501    0  0.00000000000E+00  0.00000000000E+00  0.10951902382E+04  0.10951902382E+04  0.00000000000E+00 0. -1.
         -1   -1    0    0    0  501 -0.00000000000E+00 -0.00000000000E+00 -0.13082078691E+04  0.13082078691E+04  0.00000000000E+00 0.  1.
         24    2    1    2    0    0  0.67074221616E+03 -0.52882555339E+03 -0.65834051831E+03  0.10814903424E+04  0.81593726854E+02 0.  0.
        254    2    1    2    0    0 -0.67074221616E+03  0.52882555339E+03  0.44532288738E+03  0.13219077648E+04  0.90530441189E+03 0.  0.
         23    2    4    4    0    0 -0.57828607993E+03  0.74755200776E+03  0.48203748017E+03  0.10648159624E+04  0.90686862607E+02 0.  0.
         23    2    4    4    0    0 -0.92456136225E+02 -0.21872645437E+03 -0.36714592791E+02  0.25709180236E+03  0.91426662141E+02 0.  0.
          2    1    3    3  502    0  0.19562858796E+03 -0.18685377718E+03 -0.17339973711E+03  0.32132903277E+03  0.00000000000E+00 0. -1.
         -1    1    3    3    0  502  0.47511362820E+03 -0.34197177620E+03 -0.48494078120E+03  0.76016130965E+03  0.00000000000E+00 0.  1.
         11    1    5    5    0    0 -0.55637940763E+03  0.74051354932E+03  0.46679292349E+03  0.10372145368E+04  0.00000000000E+00 0. -1.
        -11    1    5    5    0    0 -0.21906672303E+02  0.70384584367E+01  0.15244556680E+02  0.27601425632E+02  0.00000000000E+00 0.  1.
          2    1    6    6  503    0 -0.74153691917E+02 -0.12199109491E+03  0.18918761200E+02  0.14400873858E+03  0.00000000000E+00 0. -1.
         -2    1    6    6    0  503 -0.18302444309E+02 -0.96735359461E+02 -0.55633353991E+02  0.11308306378E+03  0.00000000000E+00 0.  1.
<mgrwt>
<rscale>  0 0.23939394E+04</rscale>
<asrwt>0</asrwt>
<pdfrwt beam="1">  1        2 0.16849081E+00 0.23939394E+04</pdfrwt>
<pdfrwt beam="2">  1       -1 0.20126275E+00 0.23939394E+04</pdfrwt>
<totfact> 0.33188733E+00</totfact>
</mgrwt>
</event>
<event>
12    6  0.1510140E-007  0.3125790E+04  0.7818608E-02  0.8208695E-01
          2   -1    0    0  501    0  0.00000000000E+00  0.00000000000E+00  0.15872024737E+04  0.15872024737E+04  0.00000000000E+00 0. -1.
         -1   -1    0    0    0  501 -0.00000000000E+00 -0.00000000000E+00 -0.15389602491E+04  0.15389602491E+04  0.00000000000E+00 0.  1.
         24    2    1    2    0    0 -0.85071955392E+03  0.94032912990E+03 -0.61904760923E+03  0.14135169911E+04  0.82871645992E+02 0.  0.
        254    2    1    2    0    0  0.85071955392E+03 -0.94032912990E+03  0.66728983380E+03  0.17126457317E+04  0.93804959791E+03 0.  0.
         23    2    4    4    0    0  0.77176360989E+02  0.14325221069E+03  0.25259213984E+03  0.31527910725E+03  0.95502564338E+02 0.  0.
         23    2    4    4    0    0  0.77354319293E+03 -0.10835813406E+04  0.41469769396E+03  0.13973666245E+04  0.90231440210E+02 0.  0.
          2    1    3    3  502    0 -0.15275213732E+03  0.15225117390E+03 -0.13840249550E+03  0.25625941187E+03  0.00000000000E+00 0. -1.
         -1    1    3    3    0  502 -0.69796741660E+03  0.78807795601E+03 -0.48064511374E+03  0.11572575792E+04  0.00000000000E+00 0.  1.
         11    1    5    5    0    0  0.16122962918E+02  0.32038149422E+02  0.38781772955E+01  0.36075382337E+02  0.00000000000E+00 0. -1.
        -11    1    5    5    0    0  0.61053398071E+02  0.11121406127E+03  0.24871396255E+03  0.27920372491E+03  0.00000000000E+00 0.  1.
          1    1    6    6  503    0  0.25913406062E+01 -0.23391831607E+02  0.65069817856E+01  0.24417895979E+02  0.00000000000E+00 0. -1.
         -1    1    6    6    0  503  0.77095185233E+03 -0.10601895090E+04  0.40819071218E+03  0.13729487285E+04  0.00000000000E+00 0.  1.
<mgrwt>
<rscale>  0 0.31257905E+04</rscale>
<asrwt>0</asrwt>
<pdfrwt beam="1">  1        2 0.24418500E+00 0.31257905E+04</pdfrwt>
<pdfrwt beam="2">  1       -1 0.23676312E+00 0.31257905E+04</pdfrwt>
<totfact> 0.93112162E-01</totfact>
</mgrwt>
</event>
<event>
12    6  0.1510140E-007  0.2130473E+04  0.7818608E-02  0.8547937E-01
          2   -1    0    0  501    0  0.00000000000E+00  0.00000000000E+00  0.21839387248E+04  0.21839387248E+04  0.00000000000E+00 0. -1.
         -1   -1    0    0    0  501 -0.00000000000E+00 -0.00000000000E+00 -0.51957924081E+03  0.51957924081E+03  0.00000000000E+00 0.  1.
         24    2    1    2    0    0 -0.57584509366E+03  0.51833189573E+03  0.91516207993E+02  0.78349830697E+03  0.72310819927E+02 0.  0.
        254    2    1    2    0    0  0.57584509366E+03 -0.51833189573E+03  0.15728432760E+04  0.19200196587E+04  0.78254328487E+03 0.  0.
         23    2    4    4    0    0  0.62315565263E+03 -0.57294156344E+03  0.90710972343E+03  0.12440451303E+04  0.90637923935E+02 0.  0.
         23    2    4    4    0    0 -0.47310558975E+02  0.54609667707E+02  0.66573355262E+03  0.67597452843E+03  0.92303278391E+02 0.  0.
          4    1    3    3  502    0 -0.25135530148E+02  0.11811904101E+02 -0.74507681689E+01  0.28754650069E+02  0.00000000000E+00 0. -1.
         -1    1    3    3    0  502 -0.55070956351E+03  0.50651999163E+03  0.98966976162E+02  0.75474365690E+03  0.00000000000E+00 0.  1.
         11    1    5    5    0    0  0.61709180017E+03 -0.55923894697E+03  0.87159756674E+03  0.12055010610E+04  0.00000000000E+00 0.  1.
        -11    1    5    5    0    0  0.60638524587E+01 -0.13702616471E+02  0.35512156685E+02  0.38544069287E+02  0.00000000000E+00 0. -1.
          3    1    6    6  503    0 -0.17346943802E+01  0.32459561073E+02  0.53152740376E+03  0.53252043455E+03  0.00000000000E+00 0. -1.
         -3    1    6    6    0  503 -0.45575864594E+02  0.22150106634E+02  0.13420614886E+03  0.14345409388E+03  0.00000000000E+00 0.  1.
<mgrwt>
<rscale>  0 0.21304734E+04</rscale>
<asrwt>0</asrwt>
<pdfrwt beam="1">  1        2 0.33599057E+00 0.21304734E+04</pdfrwt>
<pdfrwt beam="2">  1       -1 0.79935269E-01 0.21304734E+04</pdfrwt>
<totfact> 0.86197263E+00</totfact>
</mgrwt>
</event>
<event>
12    6  0.1510140E-007  0.1173136E+04  0.7818608E-02  0.9136701E-01
          2   -1    0    0  501    0  0.00000000000E+00  0.00000000000E+00  0.34895925459E+03  0.34895925459E+03  0.00000000000E+00 0. -1.
         -1   -1    0    0    0  501 -0.00000000000E+00 -0.00000000000E+00 -0.98596657493E+03  0.98596657493E+03  0.00000000000E+00 0.  1.
         24    2    1    2    0    0  0.59740834773E+02  0.94850014289E+02  0.95892089838E+02  0.16784534205E+03  0.80070427787E+02 0.  0.
        254    2    1    2    0    0 -0.59740834773E+02 -0.94850014289E+02 -0.73289941017E+03  0.11670804875E+04  0.90131560856E+03 0.  0.
         23    2    4    4    0    0 -0.12309415625E+03 -0.47458819473E+03 -0.31016252982E+03  0.58717550488E+03  0.90488412235E+02 0.  0.
         23    2    4    4    0    0  0.63353321481E+02  0.37973818044E+03 -0.42273688036E+03  0.57990498258E+03  0.96791475747E+02 0.  0.
          4    1    3    3  502    0  0.64804983701E+02  0.10217235179E+03  0.10097755931E+03  0.15759233125E+03  0.00000000000E+00 0. -1.
         -3    1    3    3    0  502 -0.50641489284E+01 -0.73223375012E+01 -0.50854694752E+01  0.10253010808E+02  0.00000000000E+00 0.  1.
         11    1    5    5    0    0 -0.34366048551E+02 -0.50962069794E+02 -0.66199915010E+02  0.90335965141E+02  0.00000000000E+00 0.  1.
        -11    1    5    5    0    0 -0.88728107703E+02 -0.42362612494E+03 -0.24396261481E+03  0.49683953974E+03  0.00000000000E+00 0. -1.
          3    1    6    6  503    0  0.35021350599E+02  0.35640062837E+03 -0.39924540143E+03  0.53632526834E+03  0.00000000000E+00 0. -1.
         -3    1    6    6    0  503  0.28331970882E+02  0.23337552072E+02 -0.23491478932E+02  0.43579714239E+02  0.00000000000E+00 0.  1.
<mgrwt>
<rscale>  0 0.11731362E+04</rscale>
<asrwt>0</asrwt>
<pdfrwt beam="1">  1        2 0.53686040E-01 0.11731362E+04</pdfrwt>
<pdfrwt beam="2">  1       -1 0.15168716E+00 0.11731362E+04</pdfrwt>
<totfact> 0.35528332E+01</totfact>
</mgrwt>
</event>
<event>
12    6  0.1510140E-007  0.2342040E+04  0.7818608E-02  0.8461527E-01
          2   -1    0    0  501    0  0.00000000000E+00  0.00000000000E+00  0.28153667800E+04  0.28153667800E+04  0.00000000000E+00 0. -1.
         -1   -1    0    0    0  501 -0.00000000000E+00 -0.00000000000E+00 -0.48707269211E+03  0.48707269211E+03  0.00000000000E+00 0.  1.
         24    2    1    2    0    0  0.16406554580E+03  0.82660008089E+03  0.24247061301E+03  0.88039035415E+03  0.78166363937E+02 0.  0.
        254    2    1    2    0    0 -0.16406554580E+03 -0.82660008089E+03  0.20858234749E+04  0.24220491179E+04  0.89748379616E+03 0.  0.
         23    2    4    4    0    0  0.33619215257E+03 -0.36821637243E+03  0.59448956239E+03  0.78114136032E+03  0.90307943453E+02 0.  0.
         23    2    4    4    0    0 -0.50025769837E+03 -0.45838370846E+03  0.14913339125E+04  0.16409077576E+04  0.90155651684E+02 0.  0.
          2    1    3    3  502    0 -0.32315463159E+01  0.58312303585E+01  0.82657599722E+01  0.10619271491E+02  0.00000000000E+00 0. -1.
         -1    1    3    3    0  502  0.16729709212E+03  0.82076885054E+03  0.23420485303E+03  0.86977108266E+03  0.00000000000E+00 0.  1.
         11    1    5    5    0    0  0.27345658974E+03 -0.29510956620E+03  0.52918028486E+03  0.66475554636E+03  0.00000000000E+00 0. -1.
        -11    1    5    5    0    0  0.62735562829E+02 -0.73106806234E+02  0.65309277524E+02  0.11638581396E+03  0.00000000000E+00 0.  1.
          3    1    6    6  503    0 -0.27799049491E+03 -0.22663485027E+03  0.69049841834E+03  0.77809391230E+03  0.00000000000E+00 0. -1.
         -3    1    6    6    0  503 -0.22226720346E+03 -0.23174885819E+03  0.80083549415E+03  0.86281384533E+03  0.00000000000E+00 0.  1.
<mgrwt>
<rscale>  0 0.23420404E+04</rscale>
<asrwt>0</asrwt>
<pdfrwt beam="1">  1        2 0.43313334E+00 0.23420404E+04</pdfrwt>
<pdfrwt beam="2">  1       -1 0.74934262E-01 0.23420404E+04</pdfrwt>
<totfact> 0.41681008E+00</totfact>
</mgrwt>
</event>
<event>
12    6  0.1510140E-007  0.1778198E+04  0.7818608E-02  0.8717980E-01
         -1   -1    0    0    0  501 -0.00000000000E+00  0.00000000000E+00  0.42749038780E+03  0.42749038780E+03  0.00000000000E+00 0.  1.
          2   -1    0    0  501    0  0.00000000000E+00 -0.00000000000E+00 -0.18491567715E+04  0.18491567715E+04  0.00000000000E+00 0. -1.
         24    2    1    2    0    0  0.61666441489E+03 -0.29461230122E+02 -0.82073840260E+03  0.10302655582E+04  0.81808497657E+02 0.  0.
        254    2    1    2    0    0 -0.61666441489E+03  0.29461230122E+02 -0.60092798112E+03  0.12463816011E+04  0.90067180060E+03 0.  0.
         23    2    4    4    0    0 -0.76985828394E+03  0.65911016432E+02 -0.19933834670E+03  0.80313250635E+03  0.90884579858E+02 0.  0.
         23    2    4    4    0    0  0.15319386905E+03 -0.36449786310E+02 -0.40158963442E+03  0.44324909474E+03  0.10197341359E+03 0.  0.
          4    1    3    3  502    0  0.32643750850E+03 -0.28894362974E+02 -0.49875138173E+03  0.59678243267E+03  0.00000000000E+00 0. -1.
         -3    1    3    3    0  502  0.29022690639E+03 -0.56686714828E+00 -0.32198702087E+03  0.43348312555E+03  0.00000000000E+00 0.  1.
         11    1    5    5    0    0 -0.32146939473E+03 -0.17075977139E+02 -0.87984114410E+02  0.33372947897E+03  0.00000000000E+00 0. -1.
        -11    1    5    5    0    0 -0.44838888921E+03  0.82986993571E+02 -0.11135423229E+03  0.46940302739E+03  0.00000000000E+00 0.  1.
          3    1    6    6  503    0  0.12435386699E+02 -0.39218323390E+02 -0.14321532420E+03  0.14900786831E+03  0.00000000000E+00 0. -1.
         -3    1    6    6    0  503  0.14075848235E+03  0.27685370800E+01 -0.25837431022E+03  0.29424122643E+03  0.00000000000E+00 0.  1.
<mgrwt>
<rscale>  0 0.17781977E+04</rscale>
<asrwt>0</asrwt>
<pdfrwt beam="1">  1        2 0.28448565E+00 0.17781977E+04</pdfrwt>
<pdfrwt beam="2">  1       -1 0.65767753E-01 0.17781977E+04</pdfrwt>
<totfact> 0.20452565E+01</totfact>
</mgrwt>
</event>
<event>
12    6  0.1510140E-007  0.1689159E+04  0.7818608E-02  0.8767572E-01
          2   -1    0    0  501    0  0.00000000000E+00  0.00000000000E+00  0.14329632172E+04  0.14329632172E+04  0.00000000000E+00 0. -1.
         -1   -1    0    0    0  501 -0.00000000000E+00 -0.00000000000E+00 -0.49778955383E+03  0.49778955383E+03  0.00000000000E+00 0.  1.
         24    2    1    2    0    0 -0.77373472687E+02  0.24914013721E+03 -0.28066741230E+03  0.39475889584E+03  0.94883756622E+02 0.  0.
        254    2    1    2    0    0  0.77373472687E+02 -0.24914013721E+03  0.12158410756E+04  0.15359938752E+04  0.90163751091E+03 0.  0.
         23    2    4    4    0    0 -0.20675695662E+03 -0.32971889530E+03  0.15145079650E+03  0.42746017949E+03  0.91224296418E+02 0.  0.
         23    2    4    4    0    0  0.28413042931E+03  0.80578758091E+02  0.10643902791E+04  0.11085336957E+04  0.93259053203E+02 0.  0.
          4    1    3    3  502    0  0.21588654364E+02  0.65397850436E+02 -0.67115777564E+02  0.96163800034E+02  0.00000000000E+00 0. -1.
         -3    1    3    3    0  502 -0.98962127051E+02  0.18374228677E+03 -0.21355163474E+03  0.29859509580E+03  0.00000000000E+00 0.  1.
         11    1    5    5    0    0 -0.17220466093E+03 -0.20309999604E+03  0.12226102429E+03  0.29300479808E+03  0.00000000000E+00 0. -1.
        -11    1    5    5    0    0 -0.34552295689E+02 -0.12661889926E+03  0.29189772212E+02  0.13445538141E+03  0.00000000000E+00 0.  1.
          3    1    6    6  503    0  0.28513755256E+03  0.65539482573E+02  0.97749387636E+03  0.10203397111E+04  0.00000000000E+00 0. -1.
         -3    1    6    6    0  503 -0.10071232491E+01  0.15039275518E+02  0.86896402772E+02  0.88193984603E+02  0.00000000000E+00 0.  1.
<mgrwt>
<rscale>  0 0.16891585E+04</rscale>
<asrwt>0</asrwt>
<pdfrwt beam="1">  1        2 0.22045588E+00 0.16891585E+04</pdfrwt>
<pdfrwt beam="2">  1       -1 0.76583009E-01 0.16891585E+04</pdfrwt>
<totfact> 0.25734007E+01</totfact>
</mgrwt>
</event>
<event>
12    6  0.1510140E-007  0.2277340E+04  0.7818608E-02  0.8486909E-01
         -1   -1    0    0    0  501 -0.00000000000E+00  0.00000000000E+00  0.94096776482E+03  0.94096776482E+03  0.00000000000E+00 0.  1.
          2   -1    0    0  501    0  0.00000000000E+00 -0.00000000000E+00 -0.13779108502E+04  0.13779108502E+04  0.00000000000E+00 0. -1.
         24    2    1    2    0    0 -0.52828844341E+03  0.40226095205E+03  0.51767221233E+03  0.84580208779E+03  0.80585974672E+02 0.  0.
        254    2    1    2    0    0  0.52828844341E+03 -0.40226095205E+03 -0.95461529774E+03  0.14730765273E+04  0.90430168391E+03 0.  0.
         23    2    4    4    0    0  0.40520408332E+03 -0.46841249193E+03 -0.14018513170E+03  0.64168444692E+03  0.92230399197E+02 0.  0.
         23    2    4    4    0    0  0.12308436009E+03  0.66151539878E+02 -0.81443016604E+03  0.83139208035E+03  0.91599727020E+02 0.  0.
          4    1    3    3  502    0 -0.13373536352E+02  0.16901891377E+01  0.83265535644E+00  0.13505611013E+02  0.00000000000E+00 0. -1.
         -3    1    3    3    0  502 -0.51491490705E+03  0.40057076291E+03  0.51683955697E+03  0.83229647678E+03  0.00000000000E+00 0.  1.
         11    1    5    5    0    0  0.38741356447E+03 -0.46737174917E+03 -0.14290664832E+03  0.62365690247E+03  0.00000000000E+00 0.  1.
        -11    1    5    5    0    0  0.17790518844E+02 -0.10407427526E+01  0.27215166113E+01  0.18027544450E+02  0.00000000000E+00 0. -1.
          2    1    6    6  503    0 -0.42739551721E+01  0.16630402078E+02 -0.25260665935E+03  0.25318957584E+03  0.00000000000E+00 0. -1.
         -2    1    6    6    0  503  0.12735831526E+03  0.49521137800E+02 -0.56182350669E+03  0.57820250452E+03  0.00000000000E+00 0.  1.
<mgrwt>
<rscale>  0 0.22773403E+04</rscale>
<asrwt>0</asrwt>
<pdfrwt beam="1">  1        2 0.21198629E+00 0.22773403E+04</pdfrwt>
<pdfrwt beam="2">  1       -1 0.14476427E+00 0.22773403E+04</pdfrwt>
<totfact> 0.59177140E+00</totfact>
</mgrwt>
</event>
<event>
12    6  0.1510140E-007  0.2400537E+04  0.7818608E-02  0.8439303E-01
         -1   -1    0    0    0  501 -0.00000000000E+00  0.00000000000E+00  0.74726452112E+03  0.74726452112E+03  0.00000000000E+00 0.  1.
          2   -1    0    0  501    0  0.00000000000E+00 -0.00000000000E+00 -0.19278907950E+04  0.19278907950E+04  0.00000000000E+00 0. -1.
         24    2    1    2    0    0  0.56961237675E+03  0.55011397534E+03 -0.12430734579E+04  0.14760647274E+04  0.80323172710E+02 0.  0.
        254    2    1    2    0    0 -0.56961237675E+03 -0.55011397534E+03  0.62447184062E+02  0.11990905887E+04  0.89823991421E+03 0.  0.
         23    2    4    4    0    0 -0.53780803404E+03 -0.40817881233E+03  0.42137516283E+03  0.80100592240E+03  0.90587171044E+02 0.  0.
         23    2    4    4    0    0 -0.31804342716E+02 -0.14193516301E+03 -0.35892797877E+03  0.39808466629E+03  0.92114064519E+02 0.  0.
          2    1    3    3  502    0  0.56090175452E+03  0.52806770680E+03 -0.12207603687E+04  0.14435103599E+04  0.00000000000E+00 0. -1.
         -1    1    3    3    0  502  0.87106222304E+01  0.22046268535E+02 -0.22313089194E+02  0.32554367530E+02  0.00000000000E+00 0.  1.
         11    1    5    5    0    0 -0.18002694011E+03 -0.15051487247E+03  0.19649041013E+03  0.30606030006E+03  0.00000000000E+00 0. -1.
        -11    1    5    5    0    0 -0.35778109392E+03 -0.25766393987E+03  0.22488475271E+03  0.49494562234E+03  0.00000000000E+00 0.  1.
          1    1    6    6  503    0 -0.64578776300E+02 -0.94096319758E+02 -0.23321315810E+03  0.25963996775E+03  0.00000000000E+00 0. -1.
         -1    1    6    6    0  503  0.32774433584E+02 -0.47838843247E+02 -0.12571482067E+03  0.13844469854E+03  0.00000000000E+00 0.  1.
<mgrwt>
<rscale>  0 0.24005369E+04</rscale>
<asrwt>0</asrwt>
<pdfrwt beam="1">  1        2 0.29659858E+00 0.24005369E+04</pdfrwt>
<pdfrwt beam="2">  1       -1 0.11496377E+00 0.24005369E+04</pdfrwt>
<totfact> 0.51508295E+00</totfact>
</mgrwt>
</event>
<event>
12    6  0.1510140E-007  0.1299513E+04  0.7818608E-02  0.9029951E-01
          2   -1    0    0  501    0  0.00000000000E+00  0.00000000000E+00  0.24749529428E+04  0.24749529428E+04  0.00000000000E+00 0. -1.
         -1   -1    0    0    0  501 -0.00000000000E+00 -0.00000000000E+00 -0.17058253646E+03  0.17058253646E+03  0.00000000000E+00 0.  1.
         24    2    1    2    0    0 -0.27230617824E+03  0.15762561023E+03  0.99118784531E+03  0.10426958356E+04  0.75926103588E+02 0.  0.
        254    2    1    2    0    0  0.27230617824E+03 -0.15762561023E+03  0.13131825610E+04  0.16028396436E+04  0.86351027611E+03 0.  0.
         23    2    4    4    0    0  0.31216457194E+03 -0.20662729261E+03  0.11891962162E+03  0.40341011063E+03  0.91958049831E+02 0.  0.
         23    2    4    4    0    0 -0.39858393699E+02  0.49001682379E+02  0.11942629394E+04  0.11994295330E+04  0.91528027528E+02 0.  0.
          4    1    3    3  502    0 -0.22755572553E+03  0.15557832906E+03  0.89694575209E+03  0.93834849970E+03  0.00000000000E+00 0. -1.
         -3    1    3    3    0  502 -0.44750452711E+02  0.20472811717E+01  0.94242093224E+02  0.10434733592E+03  0.00000000000E+00 0.  1.
         11    1    5    5    0    0  0.20285139973E+03 -0.12195908239E+03  0.11948617855E+03  0.26514082110E+03  0.00000000000E+00 0.  1.
        -11    1    5    5    0    0  0.10931317221E+03 -0.84668210217E+02 -0.56655693308E+00  0.13826928953E+03  0.00000000000E+00 0. -1.
          2    1    6    6  503    0  0.15957462027E+02  0.11404493931E+02  0.73504346542E+03  0.73530510615E+03  0.00000000000E+00 0. -1.
         -2    1    6    6    0  503 -0.55815855726E+02  0.37597188449E+02  0.45921947394E+03  0.46412442682E+03  0.00000000000E+00 0.  1.
<mgrwt>
<rscale>  0 0.12995134E+04</rscale>
<asrwt>0</asrwt>
<pdfrwt beam="1">  1        2 0.38076196E+00 0.12995134E+04</pdfrwt>
<pdfrwt beam="2">  1       -1 0.26243469E-01 0.12995134E+04</pdfrwt>
<totfact> 0.52005870E+01</totfact>
</mgrwt>
</event>
<event>
12    6  0.1510140E-007  0.2526703E+04  0.7818608E-02  0.8393534E-01
          2   -1    0    0  501    0  0.00000000000E+00  0.00000000000E+00  0.10910545895E+04  0.10910545895E+04  0.00000000000E+00 0. -1.
         -1   -1    0    0    0  501 -0.00000000000E+00 -0.00000000000E+00 -0.14628569150E+04  0.14628569150E+04  0.00000000000E+00 0.  1.
         24    2    1    2    0    0 -0.60175070590E+03  0.45159585779E+03 -0.99143748259E+03  0.12470991804E+04  0.79153982972E+02 0.  0.
        254    2    1    2    0    0  0.60175070590E+03 -0.45159585779E+03  0.61963515710E+03  0.13068123240E+04  0.87049870275E+03 0.  0.
         23    2    4    4    0    0  0.42669380397E+03  0.14267595065E+03  0.52471243908E+02  0.46244648853E+03  0.93163802427E+02 0.  0.
         23    2    4    4    0    0  0.17505690193E+03 -0.59427180844E+03  0.56716391319E+03  0.84436583549E+03  0.86457264050E+02 0.  0.
          2    1    3    3  502    0 -0.88197922714E+02  0.49618067047E+02 -0.97258679986E+02  0.14035696271E+03  0.00000000000E+00 0. -1.
         -1    1    3    3    0  502 -0.51355278319E+03  0.40197779074E+03 -0.89417880261E+03  0.11067422177E+04  0.00000000000E+00 0.  1.
         11    1    5    5    0    0  0.91590742204E+02 -0.12591396994E+01  0.32495401019E+02  0.97192595282E+02  0.00000000000E+00 0. -1.
        -11    1    5    5    0    0  0.33510306176E+03  0.14393509035E+03  0.19975842889E+02  0.36525389325E+03  0.00000000000E+00 0.  1.
          4    1    6    6  503    0  0.81103773209E+02 -0.17964927326E+03  0.22095697559E+03  0.29609739694E+03  0.00000000000E+00 0. -1.
         -4    1    6    6    0  503  0.93953128725E+02 -0.41462253518E+03  0.34620693760E+03  0.54826843856E+03  0.00000000000E+00 0.  1.
<mgrwt>
<rscale>  0 0.25267028E+04</rscale>
<asrwt>0</asrwt>
<pdfrwt beam="1">  1        2 0.16785455E+00 0.25267028E+04</pdfrwt>
<pdfrwt beam="2">  1       -1 0.22505491E+00 0.25267028E+04</pdfrwt>
<totfact> 0.22789062E+00</totfact>
</mgrwt>
</event>
<event>
12    6  0.1510140E-007  0.3000159E+04  0.7818608E-02  0.8243685E-01
          2   -1    0    0  501    0  0.00000000000E+00  0.00000000000E+00  0.20800484970E+04  0.20800484970E+04  0.00000000000E+00 0. -1.
         -1   -1    0    0    0  501 -0.00000000000E+00 -0.00000000000E+00 -0.10818204520E+04  0.10818204520E+04  0.00000000000E+00 0.  1.
         24    2    1    2    0    0  0.25163009135E+02  0.21014843328E+03 -0.97114867055E+03  0.99866678619E+03  0.97005507542E+02 0.  0.
        254    2    1    2    0    0 -0.25163009135E+02 -0.21014843328E+03  0.19693767155E+04  0.21632021628E+04  0.86959956799E+03 0.  0.
         23    2    4    4    0    0 -0.30768715363E+03  0.64863250884E+02  0.15345436642E+04  0.15691486558E+04  0.92328874289E+02 0.  0.
         23    2    4    4    0    0  0.28252414450E+03 -0.27501168417E+03  0.43483305134E+03  0.59405350700E+03  0.91479330941E+02 0.  0.
          2    1    3    3  502    0  0.51524616070E+02  0.61348348867E+02 -0.28303956789E+03  0.29415948559E+03  0.00000000000E+00 0. -1.
         -1    1    3    3    0  502 -0.26361606935E+02  0.14880008442E+03 -0.68810910266E+03  0.70450730060E+03  0.00000000000E+00 0.  1.
         11    1    5    5    0    0 -0.25626260288E+03  0.51644199777E+02  0.14055728194E+04  0.14296756960E+04  0.00000000000E+00 0.  1.
        -11    1    5    5    0    0 -0.51424550749E+02  0.13219051107E+02  0.12897084475E+03  0.13947295985E+03  0.00000000000E+00 0. -1.
          1    1    6    6  503    0  0.26159231951E+03 -0.26972962675E+03  0.43156825671E+03  0.57222003930E+03  0.00000000000E+00 0. -1.
         -1    1    6    6    0  503  0.20931824987E+02 -0.52820574138E+01  0.32647946262E+01  0.21833467699E+02  0.00000000000E+00 0.  1.
<mgrwt>
<rscale>  0 0.30001593E+04</rscale>
<asrwt>0</asrwt>
<pdfrwt beam="1">  1        2 0.32000746E+00 0.30001593E+04</pdfrwt>
<pdfrwt beam="2">  1       -1 0.16643392E+00 0.30001593E+04</pdfrwt>
<totfact> 0.15346650E+00</totfact>
</mgrwt>
</event>
<event>
12    6  0.1510140E-007  0.1861597E+04  0.7818608E-02  0.8674212E-01
         -1   -1    0    0    0  501 -0.00000000000E+00  0.00000000000E+00  0.37363455812E+03  0.37363455812E+03  0.00000000000E+00 0.  1.
          2   -1    0    0  501    0  0.00000000000E+00 -0.00000000000E+00 -0.23188060867E+04  0.23188060867E+04  0.00000000000E+00 0. -1.
         24    2    1    2    0    0 -0.95783484738E+02 -0.38328031770E+03  0.10457592221E+03  0.41828725231E+03  0.89161785834E+02 0.  0.
        254    2    1    2    0    0  0.95783484738E+02  0.38328031770E+03 -0.20497474508E+04  0.22741533925E+04  0.90234736260E+03 0.  0.
         23    2    4    4    0    0 -0.22297601961E+03 -0.17002379727E+03 -0.35806973333E+03  0.46365602540E+03  0.90202987789E+02 0.  0.
         23    2    4    4    0    0  0.31875950435E+03  0.55330411497E+03 -0.16916777175E+04  0.18104973671E+04  0.91510389187E+02 0.  0.
          2    1    3    3  502    0 -0.90988667215E+02 -0.20772672298E+03  0.35360136039E+02  0.22952051809E+03  0.00000000000E+00 0. -1.
         -1    1    3    3    0  502 -0.47948175230E+01 -0.17555359472E+03  0.69215786167E+02  0.18876673423E+03  0.00000000000E+00 0.  1.
         11    1    5    5    0    0 -0.87483474096E+02 -0.94443021044E+02 -0.10197291610E+03  0.16422946776E+03  0.00000000000E+00 0. -1.
        -11    1    5    5    0    0 -0.13549254552E+03 -0.75580776222E+02 -0.25609681722E+03  0.29942655764E+03  0.00000000000E+00 0.  1.
          1    1    6    6  503    0  0.80850399097E+01  0.38250142360E+02 -0.61333735846E+02  0.72734231375E+02  0.00000000000E+00 0. -1.
         -1    1    6    6    0  503  0.31067446444E+03  0.51505397261E+03 -0.16303439816E+04  0.17377631357E+04  0.00000000000E+00 0.  1.
<mgrwt>
<rscale>  0 0.18615973E+04</rscale>
<asrwt>0</asrwt>
<pdfrwt beam="1">  1        2 0.35673940E+00 0.18615973E+04</pdfrwt>
<pdfrwt beam="2">  1       -1 0.57482239E-01 0.18615973E+04</pdfrwt>
<totfact> 0.14508667E+01</totfact>
</mgrwt>
</event>
<event>
12    6  0.1510140E-007  0.1368287E+04  0.7818608E-02  0.8977100E-01
         -1   -1    0    0    0  501 -0.00000000000E+00  0.00000000000E+00  0.78985264049E+03  0.78985264049E+03  0.00000000000E+00 0.  1.
          2   -1    0    0  501    0  0.00000000000E+00 -0.00000000000E+00 -0.59258147855E+03  0.59258147855E+03  0.00000000000E+00 0. -1.
         24    2    1    2    0    0 -0.30676895827E+03 -0.20934170689E+03 -0.41349561495E+02  0.38214625466E+03  0.79967679178E+02 0.  0.
        254    2    1    2    0    0  0.30676895827E+03  0.20934170689E+03  0.23862072343E+03  0.10002878644E+04  0.89761061602E+03 0.  0.
         23    2    4    4    0    0 -0.24410613972E+03 -0.51366693069E+02 -0.11455595939E+03  0.28988904561E+03  0.93200033931E+02 0.  0.
         23    2    4    4    0    0  0.55087509799E+03  0.26070839996E+03  0.35317668282E+03  0.71039881878E+03  0.92197988301E+02 0.  0.
          2    1    3    3  502    0 -0.44631790356E+02 -0.33741766727E+02  0.22373272237E+02  0.60258334219E+02  0.00000000000E+00 0. -1.
         -1    1    3    3    0  502 -0.26213716791E+03 -0.17559994016E+03 -0.63722833732E+02  0.32188792044E+03  0.00000000000E+00 0.  1.
         11    1    5    5    0    0 -0.21487675555E+03 -0.52438819152E+02 -0.61943585134E+02  0.22969296369E+03  0.00000000000E+00 0. -1.
        -11    1    5    5    0    0 -0.29229384173E+02  0.10721260825E+01 -0.52612374256E+02  0.60196081918E+02  0.00000000000E+00 0.  1.
          3    1    6    6  503    0  0.42706844395E+03  0.17475321176E+03  0.22912647370E+03  0.51519421754E+03  0.00000000000E+00 0. -1.
         -3    1    6    6    0  503  0.12380665404E+03  0.85955188198E+02  0.12405020913E+03  0.19520460124E+03  0.00000000000E+00 0.  1.
<mgrwt>
<rscale>  0 0.13682866E+04</rscale>
<asrwt>0</asrwt>
<pdfrwt beam="1">  1        2 0.91166382E-01 0.13682866E+04</pdfrwt>
<pdfrwt beam="2">  1       -1 0.12151579E+00 0.13682866E+04</pdfrwt>
<totfact> 0.33705349E+01</totfact>
</mgrwt>
</event>
<event>
12    6  0.1510140E-007  0.2653263E+04  0.7818608E-02  0.8350331E-01
         -1   -1    0    0    0  501 -0.00000000000E+00  0.00000000000E+00  0.71548892455E+03  0.71548892455E+03  0.00000000000E+00 0.  1.
          2   -1    0    0  501    0  0.00000000000E+00 -0.00000000000E+00 -0.24597872114E+04  0.24597872114E+04  0.00000000000E+00 0. -1.
         24    2    1    2    0    0  0.71720007411E+03  0.76926651778E+02 -0.18901319402E+04  0.20246337209E+04  0.79052490308E+02 0.  0.
        254    2    1    2    0    0 -0.71720007411E+03 -0.76926651778E+02  0.14583365333E+03  0.11506424151E+04  0.88454330418E+03 0.  0.
         23    2    4    4    0    0 -0.77676816615E+03 -0.31552370189E+03 -0.13499647704E+02  0.84360258343E+03  0.92515338597E+02 0.  0.
         23    2    4    4    0    0  0.59568092036E+02  0.23859705012E+03  0.15933330103E+03  0.30703983169E+03  0.91703039836E+02 0.  0.
          2    1    3    3  502    0  0.59176262170E+03  0.42814098945E+02 -0.16089404886E+04  0.17148485483E+04  0.00000000000E+00 0. -1.
         -1    1    3    3    0  502  0.12543745242E+03  0.34112552833E+02 -0.28119145156E+03  0.30978517260E+03  0.00000000000E+00 0.  1.
         11    1    5    5    0    0 -0.61099115468E+03 -0.22396526340E+03  0.21096181790E+02  0.65108807330E+03  0.00000000000E+00 0. -1.
        -11    1    5    5    0    0 -0.16577701147E+03 -0.91558438493E+02 -0.34595829493E+02  0.19251451013E+03  0.00000000000E+00 0.  1.
          4    1    6    6  503    0  0.16868111167E+02  0.17640600831E+03  0.14773501201E+03  0.23071464348E+03  0.00000000000E+00 0. -1.
         -4    1    6    6    0  503  0.42699980869E+02  0.62191041806E+02  0.11598289016E+02  0.76325188209E+02  0.00000000000E+00 0.  1.
<mgrwt>
<rscale>  0 0.26532625E+04</rscale>
<asrwt>0</asrwt>
<pdfrwt beam="1">  1        2 0.37842880E+00 0.26532625E+04</pdfrwt>
<pdfrwt beam="2">  1       -1 0.11007522E+00 0.26532625E+04</pdfrwt>
<totfact> 0.28017807E+00</totfact>
</mgrwt>
</event>
<event>
12    6  0.1510140E-007  0.3921804E+04  0.7818608E-02  0.8020510E-01
          2   -1    0    0  501    0  0.00000000000E+00  0.00000000000E+00  0.31303454965E+04  0.31303454965E+04  0.00000000000E+00 0. -1.
         -1   -1    0    0    0  501 -0.00000000000E+00 -0.00000000000E+00 -0.12283427540E+04  0.12283427540E+04  0.00000000000E+00 0.  1.
         24    2    1    2    0    0  0.11272104400E+04 -0.12876446666E+03 -0.72401102781E+03  0.13477435115E+04  0.70971407064E+02 0.  0.
        254    2    1    2    0    0 -0.11272104400E+04  0.12876446666E+03  0.26260137703E+04  0.30109447390E+04  0.93949786345E+03 0.  0.
         23    2    4    4    0    0 -0.89491333186E+03  0.42960494054E+02  0.93003543140E+03  0.12945037638E+04  0.89769789755E+02 0.  0.
         23    2    4    4    0    0 -0.23229710811E+03  0.85803972604E+02  0.16959783389E+04  0.17164409752E+04  0.92210775788E+02 0.  0.
          2    1    3    3  502    0  0.21182914091E+03  0.22967876227E+01 -0.12515585352E+03  0.24605049856E+03  0.00000000000E+00 0. -1.
         -1    1    3    3    0  502  0.91538129905E+03 -0.13106125428E+03 -0.59885517429E+03  0.11016930130E+04  0.00000000000E+00 0.  1.
         11    1    5    5    0    0 -0.77042496546E+03  0.51609240390E+02  0.83761644607E+03  0.11392187901E+04  0.00000000000E+00 0. -1.
        -11    1    5    5    0    0 -0.12448836639E+03 -0.86487463355E+01  0.92418985325E+02  0.15528497361E+03  0.00000000000E+00 0.  1.
          1    1    6    6  503    0 -0.14741342273E+03  0.60002662646E+02  0.13466603395E+04  0.13560328560E+04  0.00000000000E+00 0. -1.
         -1    1    6    6    0  503 -0.84883685373E+02  0.25801309958E+02  0.34931799945E+03  0.36040811919E+03  0.00000000000E+00 0.  1.
<mgrwt>
<rscale>  0 0.39218043E+04</rscale>
<asrwt>0</asrwt>
<pdfrwt beam="1">  1        2 0.48159161E+00 0.39218043E+04</pdfrwt>
<pdfrwt beam="2">  1       -1 0.18897581E+00 0.39218043E+04</pdfrwt>
<totfact> 0.23279771E-01</totfact>
</mgrwt>
</event>
<event>
12    6  0.1510140E-007  0.1648656E+04  0.7818608E-02  0.8791202E-01
          4   -1    0    0  501    0  0.00000000000E+00  0.00000000000E+00  0.40471284888E+03  0.40471284888E+03  0.00000000000E+00 0. -1.
         -3   -1    0    0    0  501 -0.00000000000E+00 -0.00000000000E+00 -0.16790098228E+04  0.16790098228E+04  0.00000000000E+00 0.  1.
         24    2    1    2    0    0  0.13658551787E+03  0.42405208495E+03 -0.90182990883E+03  0.10090507733E+04  0.80065624368E+02 0.  0.
        254    2    1    2    0    0 -0.13658551787E+03 -0.42405208495E+03 -0.37246706510E+03  0.10746718984E+04  0.90427440534E+03 0.  0.
         23    2    4    4    0    0 -0.45975112278E+03 -0.63638776902E+01 -0.12925849442E+03  0.48597384326E+03  0.89728613660E+02 0.  0.
         23    2    4    4    0    0  0.32316560491E+03 -0.41768820726E+03 -0.24320857068E+03  0.58869805513E+03  0.92279708390E+02 0.  0.
          4    1    3    3  502    0  0.26810980733E+02  0.51937752957E+02 -0.69998425671E+02  0.91192864120E+02  0.00000000000E+00 0. -1.
         -3    1    3    3    0  502  0.10977453714E+03  0.37211433199E+03 -0.83183148316E+03  0.91785790919E+03  0.00000000000E+00 0.  1.
         11    1    5    5    0    0 -0.17712137564E+03 -0.44824034142E+02 -0.61763230183E+02  0.19286231448E+03  0.00000000000E+00 0.  1.
        -11    1    5    5    0    0 -0.28262974715E+03  0.38460156452E+02 -0.67495264236E+02  0.29311152877E+03  0.00000000000E+00 0. -1.
          4    1    6    6  503    0  0.28148329180E+03 -0.39190929726E+03 -0.24168589291E+03  0.53966453624E+03  0.00000000000E+00 0. -1.
         -4    1    6    6    0  503  0.41682313112E+02 -0.25778909994E+02 -0.15226777658E+01  0.49033518887E+02  0.00000000000E+00 0.  1.
<mgrwt>
<rscale>  0 0.16486562E+04</rscale>
<asrwt>0</asrwt>
<pdfrwt beam="1">  1        4 0.62263514E-01 0.16486562E+04</pdfrwt>
<pdfrwt beam="2">  1       -3 0.25830921E+00 0.16486562E+04</pdfrwt>
<totfact> 0.34732302E-01</totfact>
</mgrwt>
</event>
<event>
12    6  0.1510140E-007  0.2115779E+04  0.7818608E-02  0.8554324E-01
          2   -1    0    0  501    0  0.00000000000E+00  0.00000000000E+00  0.20803565949E+04  0.20803565949E+04  0.00000000000E+00 0. -1.
         -1   -1    0    0    0  501 -0.00000000000E+00 -0.00000000000E+00 -0.53795089254E+03  0.53795089254E+03  0.00000000000E+00 0.  1.
         24    2    1    2    0    0  0.22109448362E+03  0.71450674612E+03  0.11894224170E+04  0.14071914426E+04  0.77842207422E+02 0.  0.
        254    2    1    2    0    0 -0.22109448362E+03 -0.71450674612E+03  0.35298328536E+03  0.12111160448E+04  0.88476110520E+03 0.  0.
         23    2    4    4    0    0 -0.11479282601E+03 -0.75282858078E+03 -0.65434136558E+02  0.76898426221E+03  0.84420994818E+02 0.  0.
         23    2    4    4    0    0 -0.10630165761E+03  0.38321834659E+02  0.41841742192E+03  0.44213178258E+03  0.87400050251E+02 0.  0.
          2    1    3    3  502    0  0.65308167165E+02  0.24340456004E+03  0.33604576656E+03  0.42004487114E+03  0.00000000000E+00 0. -1.
         -1    1    3    3    0  502  0.15578631646E+03  0.47110218608E+03  0.85337665043E+03  0.98714657150E+03  0.00000000000E+00 0.  1.
         11    1    5    5    0    0 -0.11056772406E+03 -0.70625646253E+03 -0.81609753456E+02  0.71950230321E+03  0.00000000000E+00 0. -1.
        -11    1    5    5    0    0 -0.42251019505E+01 -0.46572118251E+02  0.16175616898E+02  0.49481959004E+02  0.00000000000E+00 0.  1.
          4    1    6    6  503    0 -0.33806101096E+02 -0.15093276343E+02  0.23392191251E+03  0.23683352933E+03  0.00000000000E+00 0. -1.
         -4    1    6    6    0  503 -0.72495556517E+02  0.53415111001E+02  0.18449550941E+03  0.20529825325E+03  0.00000000000E+00 0.  1.
<mgrwt>
<rscale>  0 0.21157785E+04</rscale>
<asrwt>0</asrwt>
<pdfrwt beam="1">  1        2 0.32005486E+00 0.21157785E+04</pdfrwt>
<pdfrwt beam="2">  1       -1 0.82761677E-01 0.21157785E+04</pdfrwt>
<totfact> 0.91568183E+00</totfact>
</mgrwt>
</event>
<event>
12    6  0.1510140E-007  0.2536441E+04  0.7818608E-02  0.8390117E-01
         -1   -1    0    0    0  501 -0.00000000000E+00  0.00000000000E+00  0.70007587551E+03  0.70007587551E+03  0.00000000000E+00 0.  1.
          2   -1    0    0  501    0  0.00000000000E+00 -0.00000000000E+00 -0.22974417488E+04  0.22974417488E+04  0.00000000000E+00 0. -1.
         24    2    1    2    0    0 -0.46678024592E+03  0.66869526105E+03 -0.15829651160E+04  0.17824873340E+04  0.80283168399E+02 0.  0.
        254    2    1    2    0    0  0.46678024592E+03 -0.66869526105E+03 -0.14400757318E+02  0.12150302904E+04  0.90058540659E+03 0.  0.
         23    2    4    4    0    0 -0.53062416268E+02 -0.57878247390E+03 -0.23808559539E+03  0.63471459772E+03  0.91504632207E+02 0.  0.
         23    2    4    4    0    0  0.51984266219E+03 -0.89912787151E+02  0.22368483807E+03  0.58031569265E+03  0.91709833849E+02 0.  0.
          2    1    3    3  502    0 -0.33652533636E+03  0.50904294234E+03 -0.12484808874E+04  0.13896325217E+04  0.00000000000E+00 0. -1.
         -1    1    3    3    0  502 -0.13025490956E+03  0.15965231871E+03 -0.33448422855E+03  0.39285481222E+03  0.00000000000E+00 0.  1.
         11    1    5    5    0    0 -0.20398410499E+02 -0.74934664945E+02 -0.28857654153E+01  0.77715035889E+02  0.00000000000E+00 0. -1.
        -11    1    5    5    0    0 -0.32664005769E+02 -0.50384780896E+03 -0.23519982997E+03  0.55699956183E+03  0.00000000000E+00 0.  1.
          3    1    6    6  503    0  0.28946523497E+03 -0.52865876118E+02  0.75096688270E+02  0.30368476370E+03  0.00000000000E+00 0. -1.
         -3    1    6    6    0  503  0.23037742722E+03 -0.37046911033E+02  0.14858814980E+03  0.27663092894E+03  0.00000000000E+00 0.  1.
<mgrwt>
<rscale>  0 0.25364412E+04</rscale>
<asrwt>0</asrwt>
<pdfrwt beam="1">  1        2 0.35345258E+00 0.25364412E+04</pdfrwt>
<pdfrwt beam="2">  1       -1 0.10770398E+00 0.25364412E+04</pdfrwt>
<totfact> 0.36898102E+00</totfact>
</mgrwt>
</event>
<event>
12    6  0.1510140E-007  0.2399811E+04  0.7818608E-02  0.8439574E-01
         -1   -1    0    0    0  501 -0.00000000000E+00  0.00000000000E+00  0.13275616975E+04  0.13275616975E+04  0.00000000000E+00 0.  1.
          2   -1    0    0  501    0  0.00000000000E+00 -0.00000000000E+00 -0.10845245690E+04  0.10845245690E+04  0.00000000000E+00 0. -1.
         24    2    1    2    0    0  0.61428162293E+03 -0.82180342387E+03  0.16106849008E+03  0.10418732320E+04  0.82788847336E+02 0.  0.
        254    2    1    2    0    0 -0.61428162293E+03  0.82180342387E+03  0.81968638455E+02  0.13702130345E+04  0.90446786701E+03 0.  0.
         23    2    4    4    0    0 -0.57130626837E+02  0.79553705384E+03  0.60927320307E+02  0.80448279669E+03  0.85658153438E+02 0.  0.
         23    2    4    4    0    0 -0.55715099609E+03  0.26266370025E+02  0.21041318148E+02  0.56573023780E+03  0.92199838705E+02 0.  0.
          4    1    3    3  502    0  0.24810473510E+03 -0.33673676196E+03  0.10683480710E+03  0.43169582166E+03  0.00000000000E+00 0. -1.
         -3    1    3    3    0  502  0.36617688782E+03 -0.48506666191E+03  0.54233682981E+02  0.61017741030E+03  0.00000000000E+00 0.  1.
         11    1    5    5    0    0 -0.25087113545E+02  0.10097822509E+03  0.30891032670E+02  0.10853672700E+03  0.00000000000E+00 0. -1.
        -11    1    5    5    0    0 -0.32043513292E+02  0.69455882875E+03  0.30036287637E+02  0.69594606969E+03  0.00000000000E+00 0.  1.
          1    1    6    6  503    0 -0.29964070557E+02  0.13753478620E+02  0.19672908575E+02  0.38393059663E+02  0.00000000000E+00 0. -1.
         -1    1    6    6    0  503 -0.52718692553E+03  0.12512891405E+02  0.13684095735E+01  0.52733717814E+03  0.00000000000E+00 0.  1.
<mgrwt>
<rscale>  0 0.23998111E+04</rscale>
<asrwt>0</asrwt>
<pdfrwt beam="1">  1        2 0.16684993E+00 0.23998111E+04</pdfrwt>
<pdfrwt beam="2">  1       -1 0.20424026E+00 0.23998111E+04</pdfrwt>
<totfact> 0.32132534E+00</totfact>
</mgrwt>
</event>
<event>
12    6  0.1510140E-007  0.2052779E+04  0.7818608E-02  0.8582335E-01
         -1   -1    0    0    0  501 -0.00000000000E+00  0.00000000000E+00  0.15089569024E+04  0.15089569024E+04  0.00000000000E+00 0.  1.
          2   -1    0    0  501    0  0.00000000000E+00 -0.00000000000E+00 -0.69814829153E+03  0.69814829153E+03  0.00000000000E+00 0. -1.
         24    2    1    2    0    0  0.14240940253E+03  0.41938056949E+03  0.10755054460E+04  0.11661250591E+04  0.83517598078E+02 0.  0.
        254    2    1    2    0    0 -0.14240940253E+03 -0.41938056949E+03 -0.26469683507E+03  0.10409801348E+04  0.90410990850E+03 0.  0.
         23    2    4    4    0    0  0.35705642073E+03 -0.24227763231E+03 -0.33486505586E-01  0.44140075729E+03  0.92988648294E+02 0.  0.
         23    2    4    4    0    0 -0.49946582326E+03 -0.17710293719E+03 -0.26466334857E+03  0.59957937756E+03  0.92828782979E+02 0.  0.
          2    1    3    3  502    0  0.36600059547E+02  0.32093865702E+02  0.99453522330E+02  0.11072751997E+03  0.00000000000E+00 0. -1.
         -1    1    3    3    0  502  0.10580934298E+03  0.38728670379E+03  0.97605192365E+03  0.10553975392E+04  0.00000000000E+00 0.  1.
         11    1    5    5    0    0  0.19452316129E+03 -0.11482471126E+03  0.44206413395E+02  0.23016989721E+03  0.00000000000E+00 0.  1.
        -11    1    5    5    0    0  0.16253325944E+03 -0.12745292105E+03 -0.44239899901E+02  0.21123086008E+03  0.00000000000E+00 0. -1.
          2    1    6    6  503    0 -0.37338756100E+02 -0.41757900678E+02 -0.35243280812E+02  0.66181521730E+02  0.00000000000E+00 0. -1.
         -2    1    6    6    0  503 -0.46212706716E+03 -0.13534503651E+03 -0.22942006776E+03  0.53339785583E+03  0.00000000000E+00 0.  1.
<mgrwt>
<rscale>  0 0.20527793E+04</rscale>
<asrwt>0</asrwt>
<pdfrwt beam="1">  1        2 0.10740743E+00 0.20527793E+04</pdfrwt>
<pdfrwt beam="2">  1       -1 0.23214721E+00 0.20527793E+04</pdfrwt>
<totfact> 0.39653130E+00</totfact>
</mgrwt>
</event>
<event>
12    6  0.1510140E-007  0.1574966E+04  0.7818608E-02  0.8836077E-01
          2   -1    0    0  501    0  0.00000000000E+00  0.00000000000E+00  0.14131735750E+04  0.14131735750E+04  0.00000000000E+00 0. -1.
         -1   -1    0    0    0  501 -0.00000000000E+00 -0.00000000000E+00 -0.43882045864E+03  0.43882045864E+03  0.00000000000E+00 0.  1.
         24    2    1    2    0    0  0.53351914334E+03  0.95191587691E+02  0.39003519556E+03  0.67277130354E+03  0.82399383572E+02 0.  0.
        254    2    1    2    0    0 -0.53351914334E+03 -0.95191587691E+02  0.58431792076E+03  0.11792227301E+04  0.86915746553E+03 0.  0.
         23    2    4    4    0    0 -0.52337209973E+03 -0.32741731885E+03  0.96667145451E+02  0.63140790130E+03  0.90614266790E+02 0.  0.
         23    2    4    4    0    0 -0.10147043612E+02  0.23222573116E+03  0.48765077531E+03  0.54781482876E+03  0.90917848874E+02 0.  0.
          4    1    3    3  502    0  0.27080529281E+03  0.72377699707E+02  0.24222525854E+03  0.37046877588E+03  0.00000000000E+00 0. -1.
         -1    1    3    3    0  502  0.26271385054E+03  0.22813887984E+02  0.14780993702E+03  0.30230252766E+03  0.00000000000E+00 0.  1.
         11    1    5    5    0    0 -0.27667982567E+03 -0.21182960909E+03  0.23115840011E+02  0.34922464300E+03  0.00000000000E+00 0. -1.
        -11    1    5    5    0    0 -0.24669227406E+03 -0.11558770977E+03  0.73551305440E+02  0.28218325830E+03  0.00000000000E+00 0.  1.
          2    1    6    6  503    0 -0.22685526038E+01  0.22004507973E+03  0.37942312146E+03  0.43861929796E+03  0.00000000000E+00 0. -1.
         -2    1    6    6    0  503 -0.78784910078E+01  0.12180651435E+02  0.10822765384E+03  0.10919553080E+03  0.00000000000E+00 0.  1.
<mgrwt>
<rscale>  0 0.15749660E+04</rscale>
<asrwt>0</asrwt>
<pdfrwt beam="1">  1        2 0.21741132E+00 0.15749660E+04</pdfrwt>
<pdfrwt beam="2">  1       -1 0.67510840E-01 0.15749660E+04</pdfrwt>
<totfact> 0.34601831E+01</totfact>
</mgrwt>
</event>
<event>
12    6  0.1510140E-007  0.1436932E+04  0.7818608E-02  0.8927511E-01
         -3   -1    0    0    0  501 -0.00000000000E+00  0.00000000000E+00  0.12596346732E+04  0.12596346732E+04  0.00000000000E+00 0.  1.
          4   -1    0    0  501    0  0.00000000000E+00 -0.00000000000E+00 -0.40979592204E+03  0.40979592204E+03  0.00000000000E+00 0. -1.
         24    2    1    2    0    0  0.38621609632E+03 -0.19176162138E+03  0.18107984158E+03  0.47471772612E+03  0.81434746726E+02 0.  0.
        254    2    1    2    0    0 -0.38621609632E+03  0.19176162138E+03  0.66875890953E+03  0.11947128691E+04  0.89115933928E+03 0.  0.
         23    2    4    4    0    0  0.24332326428E+03  0.21898813742E+03  0.32099228586E+03  0.46921331402E+03  0.99815185209E+02 0.  0.
         23    2    4    4    0    0 -0.62953936060E+03 -0.27226516039E+02  0.34776662367E+03  0.72549955506E+03  0.91361316421E+02 0.  0.
          4    1    3    3  502    0  0.30670281415E+03 -0.11431183160E+03  0.14509477130E+03  0.35803114908E+03  0.00000000000E+00 0. -1.
         -3    1    3    3    0  502  0.79513282167E+02 -0.77449789783E+02  0.35985070282E+02  0.11668657704E+03  0.00000000000E+00 0.  1.
         11    1    5    5    0    0  0.26780673253E+02  0.81216307545E+02  0.76365816843E+02  0.11465178173E+03  0.00000000000E+00 0.  1.
        -11    1    5    5    0    0  0.21654259103E+03  0.13777182988E+03  0.24462646902E+03  0.35456153229E+03  0.00000000000E+00 0. -1.
          2    1    6    6  503    0 -0.51038695954E+03 -0.15623058896E+02  0.31998531025E+03  0.60260229605E+03  0.00000000000E+00 0. -1.
         -2    1    6    6    0  503 -0.11915240106E+03 -0.11603457142E+02  0.27781313421E+02  0.12289725901E+03  0.00000000000E+00 0.  1.
<mgrwt>
<rscale>  0 0.14369317E+04</rscale>
<asrwt>0</asrwt>
<pdfrwt beam="1">  1        4 0.63045527E-01 0.14369317E+04</pdfrwt>
<pdfrwt beam="2">  1       -3 0.19378995E+00 0.14369317E+04</pdfrwt>
<totfact> 0.84024666E-01</totfact>
</mgrwt>
</event>
<event>
12    6  0.1510140E-007  0.1561964E+04  0.7818608E-02  0.8844262E-01
         -1   -1    0    0    0  501 -0.00000000000E+00  0.00000000000E+00  0.12762524658E+04  0.12762524658E+04  0.00000000000E+00 0.  1.
          2   -1    0    0  501    0  0.00000000000E+00 -0.00000000000E+00 -0.47790902706E+03  0.47790902706E+03  0.00000000000E+00 0. -1.
         24    2    1    2    0    0 -0.48453836172E+03 -0.18467720305E+03  0.22768094862E+03  0.57263626579E+03  0.84797318496E+02 0.  0.
        254    2    1    2    0    0  0.48453836172E+03  0.18467720305E+03  0.57066249010E+03  0.11815252270E+04  0.89524471025E+03 0.  0.
         23    2    4    4    0    0 -0.23878364678E+02  0.44381535943E+03  0.29744085011E+03  0.54249492728E+03  0.91035362639E+02 0.  0.
         23    2    4    4    0    0  0.50841672640E+03 -0.25913815638E+03  0.27322164000E+03  0.63903029976E+03  0.89830438478E+02 0.  0.
          4    1    3    3  502    0 -0.31569647100E+03 -0.12189984364E+03  0.10365221707E+03  0.35393165412E+03  0.00000000000E+00 0. -1.
         -3    1    3    3    0  502 -0.16884189072E+03 -0.62777359413E+02  0.12402873155E+03  0.21870461167E+03  0.00000000000E+00 0.  1.
         11    1    5    5    0    0 -0.74765239178E+01  0.14120351489E+03  0.14766223085E+03  0.20444673009E+03  0.00000000000E+00 0. -1.
        -11    1    5    5    0    0 -0.16401840761E+02  0.30261184454E+03  0.14977861926E+03  0.33804819719E+03  0.00000000000E+00 0.  1.
          3    1    6    6  503    0  0.40131604859E+03 -0.24149495532E+03  0.23439137016E+03  0.52374965270E+03  0.00000000000E+00 0.  1.
         -3    1    6    6    0  503  0.10710067781E+03 -0.17643201061E+02  0.38830269839E+02  0.11528064706E+03  0.00000000000E+00 0. -1.
<mgrwt>
<rscale>  0 0.15619636E+04</rscale>
<asrwt>0</asrwt>
<pdfrwt beam="1">  1        2 0.73524466E-01 0.15619636E+04</pdfrwt>
<pdfrwt beam="2">  1       -1 0.19634653E+00 0.15619636E+04</pdfrwt>
<totfact> 0.11381792E+01</totfact>
</mgrwt>
</event>
<event>
12    6  0.1510140E-007  0.1634023E+04  0.7818608E-02  0.8799915E-01
         -1   -1    0    0    0  501 -0.00000000000E+00  0.00000000000E+00  0.48142094264E+03  0.48142094264E+03  0.00000000000E+00 0.  1.
          4   -1    0    0  501    0  0.00000000000E+00 -0.00000000000E+00 -0.13865370925E+04  0.13865370925E+04  0.00000000000E+00 0. -1.
         24    2    1    2    0    0  0.16971680692E+03  0.52917603957E+03 -0.20614129263E+03  0.59833249337E+03  0.81709636440E+02 0.  0.
        254    2    1    2    0    0 -0.16971680692E+03 -0.52917603957E+03 -0.69897485725E+03  0.12696255418E+04  0.90252539571E+03 0.  0.
         23    2    4    4    0    0  0.17080150669E+03 -0.26983983325E+03 -0.75807775005E+03  0.82758196356E+03  0.90682638904E+02 0.  0.
         23    2    4    4    0    0 -0.34051831361E+03 -0.25933620632E+03  0.59102892796E+02  0.44204357824E+03  0.93281205539E+02 0.  0.
          4    1    3    3  502    0  0.17906674212E+02  0.26423692418E+02 -0.31598232135E+02  0.44914460660E+02  0.00000000000E+00 0. -1.
         -3    1    3    3    0  502  0.15181013271E+03  0.50275234715E+03 -0.17454306049E+03  0.55341803271E+03  0.00000000000E+00 0.  1.
         11    1    5    5    0    0  0.90140167955E+02 -0.20299067732E+03 -0.57862213426E+03  0.61978547838E+03  0.00000000000E+00 0.  1.
        -11    1    5    5    0    0  0.80661338734E+02 -0.66849155929E+02 -0.17945561579E+03  0.20779648518E+03  0.00000000000E+00 0. -1.
          3    1    6    6  503    0 -0.16907464385E+03 -0.96114022935E+02 -0.12072782282E+02  0.19485864792E+03  0.00000000000E+00 0. -1.
         -3    1    6    6    0  503 -0.17144366976E+03 -0.16322218339E+03  0.71175675078E+02  0.24718493032E+03  0.00000000000E+00 0.  1.
<mgrwt>
<rscale>  0 0.16340232E+04</rscale>
<asrwt>0</asrwt>
<pdfrwt beam="1">  1        4 0.21331340E+00 0.16340232E+04</pdfrwt>
<pdfrwt beam="2">  1       -1 0.74064760E-01 0.16340232E+04</pdfrwt>
<totfact> 0.77258662E-01</totfact>
</mgrwt>
</event>
<event>
12    6  0.1510140E-007  0.2160154E+04  0.7818608E-02  0.8535198E-01
         -1   -1    0    0    0  501 -0.00000000000E+00  0.00000000000E+00  0.47802356838E+03  0.47802356838E+03  0.00000000000E+00 0.  1.
          2   -1    0    0  501    0  0.00000000000E+00 -0.00000000000E+00 -0.24403948717E+04  0.24403948717E+04  0.00000000000E+00 0. -1.
         24    2    1    2    0    0 -0.58288571450E+03  0.38510253048E+03 -0.66408729757E+02  0.70670765045E+03  0.83461779630E+02 0.  0.
        254    2    1    2    0    0  0.58288571450E+03 -0.38510253048E+03 -0.18959625736E+04  0.22117107896E+04  0.89940581575E+03 0.  0.
         23    2    4    4    0    0 -0.73117333524E+02 -0.29776907146E+03 -0.17393994535E+03  0.36464796868E+03  0.93276321174E+02 0.  0.
         23    2    4    4    0    0  0.65600304803E+03 -0.87333459027E+02 -0.17220226282E+04  0.18470628209E+04  0.91170172543E+02 0.  0.
          4    1    3    3  502    0 -0.35245945363E+03  0.21366477215E+03 -0.77047323099E+02  0.41930489063E+03  0.00000000000E+00 0. -1.
         -3    1    3    3    0  502 -0.23042626088E+03  0.17143775834E+03  0.10638593342E+02  0.28740275982E+03  0.00000000000E+00 0.  1.
         11    1    5    5    0    0 -0.84704672859E+02 -0.27199000791E+03 -0.13174884694E+03  0.31386494655E+03  0.00000000000E+00 0. -1.
        -11    1    5    5    0    0  0.11587339335E+02 -0.25779063551E+02 -0.42191098417E+02  0.50783022124E+02  0.00000000000E+00 0.  1.
          4    1    6    6  503    0  0.28521742784E+03 -0.77581372796E+02 -0.82655352891E+03  0.87781466535E+03  0.00000000000E+00 0. -1.
         -4    1    6    6    0  503  0.37078562019E+03 -0.97520862307E+01 -0.89546909929E+03  0.96924815559E+03  0.00000000000E+00 0.  1.
<mgrwt>
<rscale>  0 0.21601539E+04</rscale>
<asrwt>0</asrwt>
<pdfrwt beam="1">  1        2 0.37544537E+00 0.21601539E+04</pdfrwt>
<pdfrwt beam="2">  1       -1 0.73542087E-01 0.21601539E+04</pdfrwt>
<totfact> 0.73269992E+00</totfact>
</mgrwt>
</event>
<event>
12    6  0.1510140E-007  0.1546432E+04  0.7818608E-02  0.8854150E-01
         -1   -1    0    0    0  501 -0.00000000000E+00  0.00000000000E+00  0.93559435017E+03  0.93559435017E+03  0.00000000000E+00 0.  1.
          2   -1    0    0  501    0  0.00000000000E+00 -0.00000000000E+00 -0.63901924158E+03  0.63901924158E+03  0.00000000000E+00 0. -1.
         24    2    1    2    0    0 -0.13110963294E+03 -0.31863252708E+03  0.31778591894E+03  0.47651794736E+03  0.85819815391E+02 0.  0.
        254    2    1    2    0    0  0.13110963294E+03  0.31863252708E+03 -0.21210810348E+02  0.10980956444E+04  0.10424239649E+04 0.  0.
         23    2    4    4    0    0 -0.28225210962E+03  0.50960389268E+03  0.14002613279E+03  0.60620954355E+03  0.92305536242E+02 0.  0.
         23    2    4    4    0    0  0.41336174256E+03 -0.19097136560E+03 -0.16123694313E+03  0.49188610084E+03  0.92825598171E+02 0.  0.
          4    1    3    3  502    0 -0.13738323174E+02 -0.13785827591E+03  0.10706389782E+03  0.17508947420E+03  0.00000000000E+00 0. -1.
         -3    1    3    3    0  502 -0.11737130977E+03 -0.18077425117E+03  0.21072202112E+03  0.30142847315E+03  0.00000000000E+00 0.  1.
         11    1    5    5    0    0 -0.27300262441E+03  0.43948948575E+03  0.13796134727E+03  0.53545753740E+03  0.00000000000E+00 0. -1.
        -11    1    5    5    0    0 -0.92494852011E+01  0.70114406930E+02  0.20647855160E+01  0.70752006154E+02  0.00000000000E+00 0.  1.
          3    1    6    6  503    0  0.25232195129E+03 -0.68843081631E+02 -0.74497761793E+02  0.27194788747E+03  0.00000000000E+00 0. -1.
         -3    1    6    6    0  503  0.16103979127E+03 -0.12212828397E+03 -0.86739181340E+02  0.21993821336E+03  0.00000000000E+00 0.  1.
<mgrwt>
<rscale>  0 0.15464318E+04</rscale>
<asrwt>0</asrwt>
<pdfrwt beam="1">  1        2 0.98310653E-01 0.15464318E+04</pdfrwt>
<pdfrwt beam="2">  1       -1 0.14393759E+00 0.15464318E+04</pdfrwt>
<totfact> 0.19681707E+01</totfact>
</mgrwt>
</event>
<event>
12    6  0.1510140E-007  0.1830805E+04  0.7818608E-02  0.8690087E-01
          2   -1    0    0  501    0  0.00000000000E+00  0.00000000000E+00  0.16518980355E+04  0.16518980355E+04  0.00000000000E+00 0. -1.
         -1   -1    0    0    0  501 -0.00000000000E+00 -0.00000000000E+00 -0.50727206540E+03  0.50727206540E+03  0.00000000000E+00 0.  1.
         24    2    1    2    0    0  0.44413252982E+03 -0.73923820683E+02  0.10784579948E+04  0.11714021092E+04  0.79955109956E+02 0.  0.
        254    2    1    2    0    0 -0.44413252982E+03  0.73923820683E+02  0.66167975310E+02  0.98776799170E+03  0.87669206062E+03 0.  0.
         23    2    4    4    0    0 -0.30671148117E+02  0.41662870252E+03  0.10787369856E+03  0.44141260167E+03  0.93210272909E+02 0.  0.
         23    2    4    4    0    0 -0.41346138171E+03 -0.34270488184E+03 -0.41705723253E+02  0.54635539003E+03  0.91476197251E+02 0.  0.
          2    1    3    3  502    0  0.34907431282E+03 -0.27064814640E+02  0.86199638650E+03  0.93038870930E+03  0.00000000000E+00 0. -1.
         -1    1    3    3    0  502  0.95058217006E+02 -0.46859006043E+02  0.21646160828E+03  0.24101339989E+03  0.00000000000E+00 0.  1.
         11    1    5    5    0    0 -0.21471765881E+02  0.32414055990E+02 -0.86113532517E+01  0.39822897441E+02  0.00000000000E+00 0. -1.
        -11    1    5    5    0    0 -0.91993822360E+01  0.38421464653E+03  0.11648505181E+03  0.40158970423E+03  0.00000000000E+00 0.  1.
          3    1    6    6  503    0 -0.13956739481E+03 -0.17376480044E+03 -0.21697484121E+02  0.22392865914E+03  0.00000000000E+00 0. -1.
         -3    1    6    6    0  503 -0.27389398689E+03 -0.16894008140E+03 -0.20008239131E+02  0.32242673089E+03  0.00000000000E+00 0.  1.
<mgrwt>
<rscale>  0 0.18308050E+04</rscale>
<asrwt>0</asrwt>
<pdfrwt beam="1">  1        2 0.25413816E+00 0.18308050E+04</pdfrwt>
<pdfrwt beam="2">  1       -1 0.78041857E-01 0.18308050E+04</pdfrwt>
<totfact> 0.18399815E+01</totfact>
</mgrwt>
</event>
<event>
12    6  0.1510140E-007  0.1466120E+04  0.7818608E-02  0.8907300E-01
         -3   -1    0    0    0  501 -0.00000000000E+00  0.00000000000E+00  0.14020724150E+03  0.14020724150E+03  0.00000000000E+00 0.  1.
          2   -1    0    0  501    0  0.00000000000E+00 -0.00000000000E+00 -0.38327343728E+04  0.38327343728E+04  0.00000000000E+00 0. -1.
         24    2    1    2    0    0 -0.26080537449E+03  0.36835288361E+03 -0.13031064519E+04  0.13814389188E+04  0.81140442346E+02 0.  0.
        254    2    1    2    0    0  0.26080537449E+03 -0.36835288361E+03 -0.23894206795E+04  0.25915026955E+04  0.89601994788E+03 0.  0.
         23    2    4    4    0    0  0.63186641668E+02 -0.39374030128E+03 -0.23293571181E+04  0.23649743368E+04  0.90416004396E+02 0.  0.
         23    2    4    4    0    0  0.19761873282E+03  0.25387417666E+02 -0.60063561384E+02  0.22652835863E+03  0.89497381648E+02 0.  0.
          2    1    3    3  502    0 -0.67295166400E+02  0.10604848707E+03 -0.26298625740E+03  0.29143900324E+03  0.00000000000E+00 0. -1.
         -1    1    3    3    0  502 -0.19351020809E+03  0.26230439654E+03 -0.10401201945E+04  0.10899999156E+04  0.00000000000E+00 0.  1.
         11    1    5    5    0    0 -0.15438028599E+02 -0.13211254231E+02 -0.11161314645E+03  0.11344762856E+03  0.00000000000E+00 0. -1.
        -11    1    5    5    0    0  0.78624670267E+02 -0.38052904705E+03 -0.22177439716E+04  0.22515267083E+04  0.00000000000E+00 0.  1.
          4    1    6    6  503    0 -0.75775859650E+01  0.90932191013E+01 -0.77314787619E+01  0.14137970382E+02  0.00000000000E+00 0. -1.
         -4    1    6    6    0  503  0.20519631879E+03  0.16294198565E+02 -0.52332082623E+02  0.21239038825E+03  0.00000000000E+00 0.  1.
<mgrwt>
<rscale>  0 0.14661202E+04</rscale>
<asrwt>0</asrwt>
<pdfrwt beam="1">  1        2 0.58965151E+00 0.14661202E+04</pdfrwt>
<pdfrwt beam="2">  1       -3 0.21570342E-01 0.14661202E+04</pdfrwt>
<totfact> 0.60109315E+00</totfact>
</mgrwt>
</event>
<event>
12    6  0.1510140E-007  0.2373814E+04  0.7818608E-02  0.8449373E-01
          2   -1    0    0  501    0  0.00000000000E+00  0.00000000000E+00  0.40251486253E+04  0.40251486253E+04  0.00000000000E+00 0. -1.
         -1   -1    0    0    0  501 -0.00000000000E+00 -0.00000000000E+00 -0.34998651117E+03  0.34998651117E+03  0.00000000000E+00 0.  1.
         24    2    1    2    0    0 -0.78843548077E+03 -0.63908694546E+03  0.16811735218E+04  0.19653865115E+04  0.79605891655E+02 0.  0.
        254    2    1    2    0    0  0.78843548077E+03  0.63908694546E+03  0.19939885923E+04  0.24097486250E+04  0.89489401497E+03 0.  0.
         23    2    4    4    0    0  0.12039978167E+03  0.62308120675E+03  0.69130093809E+03  0.94274781063E+03  0.90278180179E+02 0.  0.
         23    2    4    4    0    0  0.66803569910E+03  0.16005738706E+02  0.13026876542E+04  0.14670008143E+04  0.92565575805E+02 0.  0.
          4    1    3    3  502    0 -0.66415310012E+03 -0.50799586821E+03  0.13440954439E+04  0.15829566339E+04  0.00000000000E+00 0. -1.
         -3    1    3    3    0  502 -0.12428238065E+03 -0.13109107725E+03  0.33707807788E+03  0.38242987757E+03  0.00000000000E+00 0.  1.
         11    1    5    5    0    0  0.52104471804E+02  0.39714761927E+03  0.38037467467E+03  0.55238211467E+03  0.00000000000E+00 0. -1.
        -11    1    5    5    0    0  0.68295309869E+02  0.22593358748E+03  0.31092626342E+03  0.39036569596E+03  0.00000000000E+00 0.  1.
          2    1    6    6  503    0  0.11948016070E+03  0.38486567413E+02  0.23448520343E+03  0.26596998947E+03  0.00000000000E+00 0. -1.
         -2    1    6    6    0  503  0.54855553840E+03 -0.22480828708E+02  0.10682024508E+04  0.12010308249E+04  0.00000000000E+00 0.  1.
<mgrwt>
<rscale>  0 0.23738136E+04</rscale>
<asrwt>0</asrwt>
<pdfrwt beam="1">  1        2 0.61925360E+00 0.23738136E+04</pdfrwt>
<pdfrwt beam="2">  1       -1 0.53844081E-01 0.23738136E+04</pdfrwt>
<totfact> 0.11707517E+00</totfact>
</mgrwt>
</event>
<event>
12    6  0.1510140E-007  0.2046838E+04  0.7818608E-02  0.8585030E-01
         -1   -1    0    0    0  501 -0.00000000000E+00  0.00000000000E+00  0.30032908208E+03  0.30032908208E+03  0.00000000000E+00 0.  1.
          2   -1    0    0  501    0  0.00000000000E+00 -0.00000000000E+00 -0.34874625994E+04  0.34874625994E+04  0.00000000000E+00 0. -1.
         24    2    1    2    0    0 -0.22428148740E+03 -0.10589194310E+03  0.16292720266E+03  0.30773311125E+03  0.81480704391E+02 0.  0.
        254    2    1    2    0    0  0.22428148740E+03  0.10589194310E+03 -0.33500607200E+04  0.34800585703E+04  0.90905749847E+03 0.  0.
         23    2    4    4    0    0  0.24197105430E+03  0.38313883676E+03 -0.89107467928E+03  0.10039077103E+04  0.92039379164E+02 0.  0.
         23    2    4    4    0    0 -0.17689566892E+02 -0.27724689366E+03 -0.24589860407E+04  0.24761508600E+04  0.86786935536E+02 0.  0.
          4    1    3    3  502    0 -0.36694746378E+02 -0.47607204972E+02  0.15340107059E+02  0.62034419974E+02  0.00000000000E+00 0. -1.
         -3    1    3    3    0  502 -0.18758674103E+03 -0.58284738131E+02  0.14758709560E+03  0.24569869128E+03  0.00000000000E+00 0.  1.
         11    1    5    5    0    0 -0.23818097838E+01 -0.18972770736E+01 -0.24297488069E+02  0.24487560201E+02  0.00000000000E+00 0.  1.
        -11    1    5    5    0    0  0.24435286408E+03  0.38503611383E+03 -0.86677719121E+03  0.97942015006E+03  0.00000000000E+00 0. -1.
          3    1    6    6  503    0  0.23781636242E+02 -0.21453769018E+03 -0.18355780203E+04  0.18482258129E+04  0.00000000000E+00 0. -1.
         -3    1    6    6    0  503 -0.41471203134E+02 -0.62709203478E+02 -0.62340802046E+03  0.62792504717E+03  0.00000000000E+00 0.  1.
<mgrwt>
<rscale>  0 0.20468380E+04</rscale>
<asrwt>0</asrwt>
<pdfrwt beam="1">  1        2 0.53653272E+00 0.20468380E+04</pdfrwt>
<pdfrwt beam="2">  1       -1 0.46204473E-01 0.20468380E+04</pdfrwt>
<totfact> 0.40933016E+00</totfact>
</mgrwt>
</event>
<event>
12    6  0.1510140E-007  0.1903887E+04  0.7818608E-02  0.8652924E-01
          2   -1    0    0  501    0  0.00000000000E+00  0.00000000000E+00  0.39098132518E+03  0.39098132518E+03  0.00000000000E+00 0. -1.
         -1   -1    0    0    0  501 -0.00000000000E+00 -0.00000000000E+00 -0.23177476051E+04  0.23177476051E+04  0.00000000000E+00 0.  1.
         24    2    1    2    0    0 -0.45880521773E+03  0.57819996714E+03 -0.77601189705E+03  0.10739015035E+04  0.79073036735E+02 0.  0.
        254    2    1    2    0    0  0.45880521773E+03 -0.57819996714E+03 -0.11507543829E+04  0.16348274267E+04  0.89644165213E+03 0.  0.
         23    2    4    4    0    0  0.93349794916E+02 -0.18308185219E+02 -0.90767262375E+03  0.91753211913E+03  0.94584480084E+02 0.  0.
         23    2    4    4    0    0  0.36545542281E+03 -0.55989178192E+03 -0.24308175913E+03  0.71729530760E+03  0.91582439175E+02 0.  0.
          4    1    3    3  502    0 -0.17181984859E+03  0.16785793402E+03 -0.28289980218E+03  0.37112079497E+03  0.00000000000E+00 0. -1.
         -3    1    3    3    0  502 -0.28698536914E+03  0.41034203312E+03 -0.49311209487E+03  0.70278070858E+03  0.00000000000E+00 0.  1.
         11    1    5    5    0    0  0.45305140369E+02  0.19126615056E+02 -0.16010120397E+03  0.16748366684E+03  0.00000000000E+00 0. -1.
        -11    1    5    5    0    0  0.48044654546E+02 -0.37434800275E+02 -0.74757141978E+03  0.75004845229E+03  0.00000000000E+00 0.  1.
          1    1    6    6  503    0  0.57467773285E+01 -0.32030593345E+02 -0.29046300335E+02  0.43619627725E+02  0.00000000000E+00 0. -1.
         -1    1    6    6    0  503  0.35970864549E+03 -0.52786118857E+03 -0.21403545879E+03  0.67367567988E+03  0.00000000000E+00 0.  1.
<mgrwt>
<rscale>  0 0.19038866E+04</rscale>
<asrwt>0</asrwt>
<pdfrwt beam="1">  1        2 0.60150972E-01 0.19038866E+04</pdfrwt>
<pdfrwt beam="2">  1       -1 0.35657656E+00 0.19038866E+04</pdfrwt>
<totfact> 0.12296133E+00</totfact>
</mgrwt>
</event>
<event>
12    6  0.1510140E-007  0.2042584E+04  0.7818608E-02  0.8586966E-01
          2   -1    0    0  501    0  0.00000000000E+00  0.00000000000E+00  0.24963544075E+04  0.24963544075E+04  0.00000000000E+00 0. -1.
         -1   -1    0    0    0  501 -0.00000000000E+00 -0.00000000000E+00 -0.41782431761E+03  0.41782431761E+03  0.00000000000E+00 0.  1.
         24    2    1    2    0    0 -0.10626321970E+02 -0.61689140002E+03  0.16242261574E+04  0.17394843135E+04  0.83828089799E+02 0.  0.
        254    2    1    2    0    0  0.10626321970E+02  0.61689140002E+03  0.45430393249E+03  0.11746944115E+04  0.89041955239E+03 0.  0.
         23    2    4    4    0    0  0.35310031320E+03  0.13342496370E+02  0.65591493397E+02  0.37399845389E+03  0.10351205783E+03 0.  0.
         23    2    4    4    0    0 -0.34247399123E+03  0.60354890365E+03  0.38871243909E+03  0.80069595765E+03  0.91961636137E+02 0.  0.
          4    1    3    3  502    0 -0.30143160993E+02 -0.42151899610E+03  0.10171087488E+04  0.11014068645E+04  0.00000000000E+00 0. -1.
         -3    1    3    3    0  502  0.19516839023E+02 -0.19537240392E+03  0.60711740858E+03  0.63807744907E+03  0.00000000000E+00 0.  1.
         11    1    5    5    0    0  0.15773593609E+03  0.45433872350E+02  0.63504800799E+02  0.17600489202E+03  0.00000000000E+00 0. -1.
        -11    1    5    5    0    0  0.19536437711E+03 -0.32091375980E+02  0.20866925977E+01  0.19799356187E+03  0.00000000000E+00 0.  1.
          1    1    6    6  503    0 -0.18776889357E+03  0.26166969182E+03  0.14468421542E+03  0.35307464820E+03  0.00000000000E+00 0. -1.
         -1    1    6    6    0  503 -0.15470509766E+03  0.34187921183E+03  0.24402822367E+03  0.44762130945E+03  0.00000000000E+00 0.  1.
<mgrwt>
<rscale>  0 0.20425842E+04</rscale>
<asrwt>0</asrwt>
<pdfrwt beam="1">  1        2 0.38405452E+00 0.20425842E+04</pdfrwt>
<pdfrwt beam="2">  1       -1 0.64280666E-01 0.20425842E+04</pdfrwt>
<totfact> 0.90513483E+00</totfact>
</mgrwt>
</event>
<event>
12    6  0.1510140E-007  0.2036346E+04  0.7818608E-02  0.8589814E-01
         -1   -1    0    0    0  501 -0.00000000000E+00  0.00000000000E+00  0.94807246430E+03  0.94807246430E+03  0.00000000000E+00 0.  1.
          2   -1    0    0  501    0  0.00000000000E+00 -0.00000000000E+00 -0.10934565098E+04  0.10934565098E+04  0.00000000000E+00 0. -1.
         24    2    1    2    0    0  0.34991290768E+03 -0.42505920110E+03 -0.66517938236E+03  0.86710566519E+03  0.79336350354E+02 0.  0.
        254    2    1    2    0    0 -0.34991290768E+03  0.42505920110E+03  0.51979533685E+03  0.11744233089E+04  0.89775751121E+03 0.  0.
         23    2    4    4    0    0 -0.62856062116E+03  0.15590005633E+03  0.30438575885E+03  0.72135613694E+03  0.91163063100E+02 0.  0.
         23    2    4    4    0    0  0.27864771348E+03  0.26915914477E+03  0.21540957800E+03  0.45306717198E+03  0.93687686454E+02 0.  0.
          4    1    3    3  502    0  0.29995909761E+03 -0.33958985950E+03 -0.50195943308E+03  0.67621003052E+03  0.00000000000E+00 0. -1.
         -3    1    3    3    0  502  0.49953810062E+02 -0.85469341608E+02 -0.16321994928E+03  0.19089563467E+03  0.00000000000E+00 0.  1.
         11    1    5    5    0    0 -0.30222334319E+03  0.93280894118E+02  0.19477688632E+03  0.37145431727E+03  0.00000000000E+00 0.  1.
        -11    1    5    5    0    0 -0.32633727797E+03  0.62619162214E+02  0.10960887253E+03  0.34990181967E+03  0.00000000000E+00 0. -1.
          3    1    6    6  503    0  0.25569529669E+03  0.27015572223E+03  0.18640479506E+03  0.41606603637E+03  0.00000000000E+00 0. -1.
         -3    1    6    6    0  503  0.22952416787E+02 -0.99657745462E+00  0.29004782940E+02  0.37001135610E+02  0.00000000000E+00 0.  1.
<mgrwt>
<rscale>  0 0.20363458E+04</rscale>
<asrwt>0</asrwt>
<pdfrwt beam="1">  1        2 0.16822408E+00 0.20363458E+04</pdfrwt>
<pdfrwt beam="2">  1       -1 0.14585730E+00 0.20363458E+04</pdfrwt>
<totfact> 0.87382809E+00</totfact>
</mgrwt>
</event>
<event>
12    6  0.1510140E-007  0.1233872E+04  0.7818608E-02  0.9083715E-01
         -1   -1    0    0    0  501 -0.00000000000E+00  0.00000000000E+00  0.52412603189E+03  0.52412603189E+03  0.00000000000E+00 0.  1.
          2   -1    0    0  501    0  0.00000000000E+00 -0.00000000000E+00 -0.72618001693E+03  0.72618001693E+03  0.00000000000E+00 0. -1.
         24    2    1    2    0    0  0.26547286469E+03 -0.85760307225E+01 -0.14376671356E+03  0.30962794920E+03  0.68199771296E+02 0.  0.
        254    2    1    2    0    0 -0.26547286469E+03  0.85760307225E+01 -0.58287271483E+02  0.94067809963E+03  0.90051568055E+03 0.  0.
         23    2    4    4    0    0  0.30959189417E+03 -0.33866714404E+02 -0.13491593320E+03  0.35138850277E+03  0.90980632917E+02 0.  0.
         23    2    4    4    0    0 -0.57506475887E+03  0.42442745126E+02  0.76628661720E+02  0.58928959685E+03  0.94283687135E+02 0.  0.
          2    1    3    3  502    0  0.22229781292E+03 -0.10848680608E+02 -0.14626319225E+03  0.26632110864E+03  0.00000000000E+00 0. -1.
         -1    1    3    3    0  502  0.43175051771E+02  0.22726498855E+01  0.24964786928E+01  0.43306840555E+02  0.00000000000E+00 0.  1.
         11    1    5    5    0    0  0.15067383310E+03 -0.38843025253E+02 -0.23792065390E+02  0.15740853524E+03  0.00000000000E+00 0. -1.
        -11    1    5    5    0    0  0.15891806108E+03  0.49763108490E+01 -0.11112386781E+03  0.19397996753E+03  0.00000000000E+00 0.  1.
          3    1    6    6  503    0 -0.27737457771E+03  0.35728356557E+02 -0.78354621362E+01  0.27977592157E+03  0.00000000000E+00 0. -1.
         -3    1    6    6    0  503 -0.29769018116E+03  0.67143885698E+01  0.84464123857E+02  0.30951367529E+03  0.00000000000E+00 0.  1.
<mgrwt>
<rscale>  0 0.12338717E+04</rscale>
<asrwt>0</asrwt>
<pdfrwt beam="1">  1        2 0.11172000E+00 0.12338717E+04</pdfrwt>
<pdfrwt beam="2">  1       -1 0.80634774E-01 0.12338717E+04</pdfrwt>
<totfact> 0.67459098E+01</totfact>
</mgrwt>
</event>
<event>
12    6  0.1510140E-007  0.1135495E+04  0.7818608E-02  0.9171271E-01
          4   -1    0    0  501    0  0.00000000000E+00  0.00000000000E+00  0.21577926589E+04  0.21577926589E+04  0.00000000000E+00 0. -1.
         -3   -1    0    0    0  501 -0.00000000000E+00 -0.00000000000E+00 -0.14938279081E+03  0.14938279081E+03  0.00000000000E+00 0.  1.
         24    2    1    2    0    0  0.19176228743E+03 -0.10556693360E+03  0.39107300319E+03  0.45512885208E+03  0.79290767585E+02 0.  0.
        254    2    1    2    0    0 -0.19176228743E+03  0.10556693360E+03  0.16173368649E+04  0.18520465977E+04  0.87543184365E+03 0.  0.
         23    2    4    4    0    0 -0.23825221116E+03  0.40823415095E+03  0.51691254813E+03  0.70619646519E+03  0.89975701708E+02 0.  0.
         23    2    4    4    0    0  0.46489923730E+02 -0.30266721735E+03  0.11004243168E+04  0.11458501325E+04  0.90940044033E+02 0.  0.
          4    1    3    3  502    0 -0.67377848624E+01 -0.91381574507E+01  0.28474178348E+02  0.30654241126E+02  0.00000000000E+00 0. -1.
         -3    1    3    3    0  502  0.19850007229E+03 -0.96428776149E+02  0.36259882484E+03  0.42447461095E+03  0.00000000000E+00 0.  1.
         11    1    5    5    0    0 -0.21036891714E+03  0.34719789009E+03  0.48320962789E+03  0.63110458774E+03  0.00000000000E+00 0. -1.
        -11    1    5    5    0    0 -0.27883294023E+02  0.61036260866E+02  0.33702920247E+02  0.75091877451E+02  0.00000000000E+00 0.  1.
          4    1    6    6  503    0  0.55774142532E+02 -0.97948747196E+02  0.33426185627E+03  0.35275444804E+03  0.00000000000E+00 0. -1.
         -4    1    6    6    0  503 -0.92842188020E+01 -0.20471847016E+03  0.76616246052E+03  0.79309568443E+03  0.00000000000E+00 0.  1.
<mgrwt>
<rscale>  0 0.11354948E+04</rscale>
<asrwt>0</asrwt>
<pdfrwt beam="1">  1        4 0.33196808E+00 0.11354948E+04</pdfrwt>
<pdfrwt beam="2">  1       -3 0.22981969E-01 0.11354948E+04</pdfrwt>
<totfact> 0.79820357E-01</totfact>
</mgrwt>
</event>
<event>
12    6  0.1510140E-007  0.2212997E+04  0.7818608E-02  0.8513038E-01
          2   -1    0    0  501    0  0.00000000000E+00  0.00000000000E+00  0.23522793216E+04  0.23522793216E+04  0.00000000000E+00 0. -1.
         -1   -1    0    0    0  501 -0.00000000000E+00 -0.00000000000E+00 -0.52049026729E+03  0.52049026729E+03  0.00000000000E+00 0.  1.
         24    2    1    2    0    0  0.26423932274E+03  0.65790404758E+03  0.15237576922E+04  0.16824438360E+04  0.78227879540E+02 0.  0.
        254    2    1    2    0    0 -0.26423932274E+03 -0.65790404758E+03  0.30803136205E+03  0.11903257529E+04  0.90516955451E+03 0.  0.
         23    2    4    4    0    0  0.17781202610E+02 -0.64029776589E+02  0.48929042547E+03  0.50228897124E+03  0.92049479712E+02 0.  0.
         23    2    4    4    0    0 -0.28202052535E+03 -0.59387427099E+03 -0.18125906343E+03  0.68803678161E+03  0.91200539043E+02 0.  0.
          2    1    3    3  502    0  0.25402348727E+03  0.65518000669E+03  0.14998606481E+04  0.16563123912E+04  0.00000000000E+00 0. -1.
         -1    1    3    3    0  502  0.10215835470E+02  0.27240408878E+01  0.23897044097E+02  0.26131444845E+02  0.00000000000E+00 0.  1.
         11    1    5    5    0    0  0.17148665710E+02 -0.21956174646E+02  0.42204471345E+03  0.42296322593E+03  0.00000000000E+00 0. -1.
        -11    1    5    5    0    0  0.63253689969E+00 -0.42073601943E+02  0.67245712028E+02  0.79325745314E+02  0.00000000000E+00 0.  1.
          2    1    6    6  503    0 -0.23898812643E+03 -0.53239571292E+03 -0.13214308266E+03  0.59834965865E+03  0.00000000000E+00 0. -1.
         -2    1    6    6    0  503 -0.43032398919E+02 -0.61478558061E+02 -0.49115980772E+02  0.89687122962E+02  0.00000000000E+00 0.  1.
<mgrwt>
<rscale>  0 0.22129966E+04</rscale>
<asrwt>0</asrwt>
<pdfrwt beam="1">  1        2 0.36188912E+00 0.22129966E+04</pdfrwt>
<pdfrwt beam="2">  1       -1 0.80075427E-01 0.22129966E+04</pdfrwt>
<totfact> 0.68474706E+00</totfact>
</mgrwt>
</event>
<event>
12    6  0.1510140E-007  0.1106687E+04  0.7818608E-02  0.9198699E-01
          2   -1    0    0  501    0  0.00000000000E+00  0.00000000000E+00  0.91977808459E+03  0.91977808459E+03  0.00000000000E+00 0. -1.
         -1   -1    0    0    0  501 -0.00000000000E+00 -0.00000000000E+00 -0.33289442903E+03  0.33289442903E+03  0.00000000000E+00 0.  1.
         24    2    1    2    0    0 -0.10186967895E+03 -0.39298537992E+02 -0.52572382253E+02  0.14677461909E+03  0.82807770498E+02 0.  0.
        254    2    1    2    0    0  0.10186967895E+03  0.39298537992E+02  0.63945603782E+03  0.11058978945E+04  0.89564743188E+03 0.  0.
         23    2    4    4    0    0  0.41665812835E+03 -0.40823714562E+02  0.56752726279E+02  0.43267850907E+03  0.93376917248E+02 0.  0.
         23    2    4    4    0    0 -0.31478844940E+03  0.80122252554E+02  0.58270331154E+03  0.67321938546E+03  0.90387213951E+02 0.  0.
          4    1    3    3  502    0 -0.15891380153E+02  0.18529089650E+02  0.92646126944E+01  0.26109312032E+02  0.00000000000E+00 0. -1.
         -3    1    3    3    0  502 -0.85978298800E+02 -0.57827627642E+02 -0.61836994947E+02  0.12066530706E+03  0.00000000000E+00 0.  1.
         11    1    5    5    0    0  0.57063384990E+02  0.38099895231E+01 -0.23016009581E+02  0.61648054501E+02  0.00000000000E+00 0.  1.
        -11    1    5    5    0    0  0.35959474336E+03 -0.44633704085E+02  0.79768735860E+02  0.37103045457E+03  0.00000000000E+00 0. -1.
          1    1    6    6  503    0 -0.20143006468E+03  0.89586735036E+02  0.34052764538E+03  0.40565863891E+03  0.00000000000E+00 0. -1.
         -1    1    6    6    0  503 -0.11335838472E+03 -0.94644824819E+01  0.24217566616E+03  0.26756074655E+03  0.00000000000E+00 0.  1.
<mgrwt>
<rscale>  0 0.11066869E+04</rscale>
<asrwt>0</asrwt>
<pdfrwt beam="1">  1        2 0.14150432E+00 0.11066869E+04</pdfrwt>
<pdfrwt beam="2">  1       -1 0.51214528E-01 0.11066869E+04</pdfrwt>
<totfact> 0.12340536E+02</totfact>
</mgrwt>
</event>
<event>
12    6  0.1510140E-007  0.2222410E+04  0.7818608E-02  0.8509158E-01
          2   -1    0    0  501    0  0.00000000000E+00  0.00000000000E+00  0.23195776553E+04  0.23195776553E+04  0.00000000000E+00 0. -1.
         -1   -1    0    0    0  501 -0.00000000000E+00 -0.00000000000E+00 -0.53232804934E+03  0.53232804934E+03  0.00000000000E+00 0.  1.
         24    2    1    2    0    0  0.29427191693E+03  0.37253544653E+03 -0.27200507674E+03  0.55297290806E+03  0.80085299861E+02 0.  0.
        254    2    1    2    0    0 -0.29427191693E+03 -0.37253544653E+03  0.20592546827E+04  0.22989327966E+04  0.90508758413E+03 0.  0.
         23    2    4    4    0    0  0.17671510568E+03 -0.13765640960E+03  0.90577400943E+02  0.25952642130E+03  0.94721603178E+02 0.  0.
         23    2    4    4    0    0 -0.47098702262E+03 -0.23487903693E+03  0.19686772818E+04  0.20394063753E+04  0.80567899149E+02 0.  0.
          2    1    3    3  502    0  0.97241856115E+02  0.75765098696E+02 -0.48689205632E+02  0.13254043725E+03  0.00000000000E+00 0. -1.
         -1    1    3    3    0  502  0.19703006082E+03  0.29677034784E+03 -0.22331587111E+03  0.42043247081E+03  0.00000000000E+00 0.  1.
         11    1    5    5    0    0  0.55138019388E+01 -0.50317091146E+02  0.12949106438E+02  0.52248359121E+02  0.00000000000E+00 0. -1.
        -11    1    5    5    0    0  0.17120130374E+03 -0.87339318456E+02  0.77628294505E+02  0.20727806218E+03  0.00000000000E+00 0.  1.
          3    1    6    6  503    0 -0.20870287058E+03 -0.10162656755E+03  0.10239384462E+04  0.10499213252E+04  0.00000000000E+00 0. -1.
         -3    1    6    6    0  503 -0.26228415203E+03 -0.13325246938E+03  0.94473883557E+03  0.98948505013E+03  0.00000000000E+00 0.  1.
<mgrwt>
<rscale>  0 0.22224097E+04</rscale>
<asrwt>0</asrwt>
<pdfrwt beam="1">  1        2 0.35685809E+00 0.22224097E+04</pdfrwt>
<pdfrwt beam="2">  1       -1 0.81896625E-01 0.22224097E+04</pdfrwt>
<totfact> 0.68061871E+00</totfact>
</mgrwt>
</event>
<event>
12    6  0.1510140E-007  0.2677853E+04  0.7818608E-02  0.8342227E-01
         -1   -1    0    0    0  501 -0.00000000000E+00  0.00000000000E+00  0.12365520034E+04  0.12365520034E+04  0.00000000000E+00 0.  1.
          2   -1    0    0  501    0  0.00000000000E+00 -0.00000000000E+00 -0.14497765413E+04  0.14497765413E+04  0.00000000000E+00 0. -1.
         24    2    1    2    0    0  0.68367244238E+03 -0.22965357953E+03 -0.10408795196E+04  0.12688550473E+04  0.80088586648E+02 0.  0.
        254    2    1    2    0    0 -0.68367244238E+03  0.22965357953E+03  0.82765498172E+03  0.14174734973E+04  0.89669926500E+03 0.  0.
         23    2    4    4    0    0 -0.23144378308E+03 -0.25847950007E+03  0.61810309884E+03  0.71472157341E+03  0.91638474579E+02 0.  0.
         23    2    4    4    0    0 -0.45222865929E+03  0.48813307959E+03  0.20955188289E+03  0.70275192393E+03  0.84638119638E+02 0.  0.
          2    1    3    3  502    0  0.36910700552E+03 -0.12541173346E+03 -0.63185336968E+03  0.74243300384E+03  0.00000000000E+00 0. -1.
         -3    1    3    3    0  502  0.31456543685E+03 -0.10424184607E+03 -0.40902614992E+03  0.52642204348E+03  0.00000000000E+00 0.  1.
         11    1    5    5    0    0 -0.22625647837E+03 -0.24129882839E+03  0.52957847720E+03  0.62439609392E+03  0.00000000000E+00 0.  1.
        -11    1    5    5    0    0 -0.51873047134E+01 -0.17180671675E+02  0.88524621636E+02  0.90325479490E+02  0.00000000000E+00 0. -1.
          2    1    6    6  503    0 -0.35511487590E+02  0.28024898127E+02 -0.59811642995E+01  0.45631513149E+02  0.00000000000E+00 0. -1.
         -2    1    6    6    0  503 -0.41671717170E+03  0.46010818146E+03  0.21553304719E+03  0.65712041078E+03  0.00000000000E+00 0.  1.
<mgrwt>
<rscale>  0 0.26778529E+04</rscale>
<asrwt>0</asrwt>
<pdfrwt beam="1">  1        2 0.22304255E+00 0.26778529E+04</pdfrwt>
<pdfrwt beam="2">  1       -1 0.19023877E+00 0.26778529E+04</pdfrwt>
<totfact> 0.23883084E+00</totfact>
</mgrwt>
</event>
<event>
12    6  0.1510140E-007  0.1146740E+04  0.7818608E-02  0.9160796E-01
          2   -1    0    0  501    0  0.00000000000E+00  0.00000000000E+00  0.50176511566E+03  0.50176511566E+03  0.00000000000E+00 0. -1.
         -1   -1    0    0    0  501 -0.00000000000E+00 -0.00000000000E+00 -0.65519353527E+03  0.65519353527E+03  0.00000000000E+00 0.  1.
         24    2    1    2    0    0  0.48695215172E+02 -0.40143080974E+02  0.16207638051E+03  0.19171911210E+03  0.80652178478E+02 0.  0.
        254    2    1    2    0    0 -0.48695215172E+02  0.40143080974E+02 -0.31550480012E+03  0.96523953884E+03  0.91003373427E+03 0.  0.
         23    2    4    4    0    0 -0.34016162501E+03  0.28819826005E+03  0.83639671046E+01  0.45513483558E+03  0.91156976628E+02 0.  0.
         23    2    4    4    0    0  0.29146640984E+03 -0.24805517908E+03 -0.32386876723E+03  0.51010470325E+03  0.93977603532E+02 0.  0.
          4    1    3    3  502    0  0.42204082269E+02  0.16512258149E+02  0.68439126934E+02  0.82083818898E+02  0.00000000000E+00 0. -1.
         -3    1    3    3    0  502  0.64911329028E+01 -0.56655339123E+02  0.93637253578E+02  0.10963529320E+03  0.00000000000E+00 0.  1.
         11    1    5    5    0    0 -0.23796179413E+03  0.22245346927E+03 -0.31441445422E+02  0.32726125030E+03  0.00000000000E+00 0.  1.
        -11    1    5    5    0    0 -0.10219983089E+03  0.65744790777E+02  0.39805412527E+02  0.12787358529E+03  0.00000000000E+00 0. -1.
          3    1    6    6  503    0  0.36991595149E+02  0.75173141776E+00 -0.19588993678E+02  0.41864924282E+02  0.00000000000E+00 0. -1.
         -3    1    6    6    0  503  0.25447481469E+03 -0.24880691049E+03 -0.30427977355E+03  0.46823977897E+03  0.00000000000E+00 0.  1.
<mgrwt>
<rscale>  0 0.11467402E+04</rscale>
<asrwt>0</asrwt>
<pdfrwt beam="1">  1        2 0.77194633E-01 0.11467402E+04</pdfrwt>
<pdfrwt beam="2">  1       -1 0.10079901E+00 0.11467402E+04</pdfrwt>
<totfact> 0.65020258E+01</totfact>
</mgrwt>
</event>
<event>
12    6  0.1510140E-007  0.1958316E+04  0.7818608E-02  0.8626361E-01
          4   -1    0    0  501    0  0.00000000000E+00  0.00000000000E+00  0.11279346870E+04  0.11279346870E+04  0.00000000000E+00 0. -1.
         -1   -1    0    0    0  501 -0.00000000000E+00 -0.00000000000E+00 -0.85000552114E+03  0.85000552114E+03  0.00000000000E+00 0.  1.
         24    2    1    2    0    0 -0.66790862902E+03  0.62384986434E+01 -0.28152674712E+03  0.72895722925E+03  0.77333544754E+02 0.  0.
        254    2    1    2    0    0  0.66790862902E+03 -0.62384986434E+01  0.55945591298E+03  0.12489829789E+04  0.89488921516E+03 0.  0.
         23    2    4    4    0    0  0.33207535003E+03 -0.10407134297E+03 -0.19724907555E+03  0.40997371811E+03  0.89812967973E+02 0.  0.
         23    2    4    4    0    0  0.33583327899E+03  0.97832844322E+02  0.75670498853E+03  0.83900926078E+03  0.94756758629E+02 0.  0.
          4    1    3    3  502    0 -0.22100030423E+03 -0.39786958997E+01 -0.13269144323E+03  0.25780609690E+03  0.00000000000E+00 0. -1.
         -3    1    3    3    0  502 -0.44690832479E+03  0.10217194543E+02 -0.14883530389E+03  0.47115113235E+03  0.00000000000E+00 0.  1.
         11    1    5    5    0    0  0.26161072945E+03 -0.63629606923E+02 -0.18761561922E+03  0.32815929244E+03  0.00000000000E+00 0. -1.
        -11    1    5    5    0    0  0.70464620579E+02 -0.40441736042E+02 -0.96334563309E+01  0.81814425674E+02  0.00000000000E+00 0.  1.
          4    1    6    6  503    0  0.30935543025E+03  0.58695875108E+02  0.66853381321E+03  0.73897459183E+03  0.00000000000E+00 0. -1.
         -4    1    6    6    0  503  0.26477848746E+02  0.39136969214E+02  0.88171175323E+02  0.10003466895E+03  0.00000000000E+00 0.  1.
<mgrwt>
<rscale>  0 0.19583163E+04</rscale>
<asrwt>0</asrwt>
<pdfrwt beam="1">  1        4 0.17352841E+00 0.19583163E+04</pdfrwt>
<pdfrwt beam="2">  1       -1 0.13077008E+00 0.19583163E+04</pdfrwt>
<totfact> 0.38258781E-01</totfact>
</mgrwt>
</event>
<event>
12    6  0.1510140E-007  0.1319730E+04  0.7818608E-02  0.9014064E-01
          2   -1    0    0  501    0  0.00000000000E+00  0.00000000000E+00  0.35509542849E+04  0.35509542849E+04  0.00000000000E+00 0. -1.
         -1   -1    0    0    0  501 -0.00000000000E+00 -0.00000000000E+00 -0.12262102580E+03  0.12262102580E+03  0.00000000000E+00 0.  1.
         24    2    1    2    0    0 -0.85413031505E+02 -0.32613875483E+03  0.72985632104E+03  0.80784181828E+03  0.79096653854E+02 0.  0.
        254    2    1    2    0    0  0.85413031505E+02  0.32613875483E+03  0.26984769380E+04  0.28657334924E+04  0.90387432255E+03 0.  0.
         23    2    4    4    0    0 -0.35414988697E+03 -0.62026338142E+02  0.10902941407E+04  0.11514949368E+04  0.89049801501E+02 0.  0.
         23    2    4    4    0    0  0.43956291847E+03  0.38816509297E+03  0.16081827973E+04  0.17142385556E+04  0.92055511383E+02 0.  0.
          2    1    3    3  502    0  0.15159817827E+02 -0.42845134879E+02  0.10610387505E+03  0.11542771747E+03  0.00000000000E+00 0. -1.
         -1    1    3    3    0  502 -0.10057284933E+03 -0.28329361995E+03  0.62375244599E+03  0.69241410081E+03  0.00000000000E+00 0.  1.
         11    1    5    5    0    0 -0.40529275085E+02  0.90291450993E+01  0.21562767199E+03  0.21958925413E+03  0.00000000000E+00 0.  1.
        -11    1    5    5    0    0 -0.31362061188E+03 -0.71055483241E+02  0.87466646875E+03  0.93190568270E+03  0.00000000000E+00 0. -1.
          3    1    6    6  503    0  0.44190911027E+03  0.38582398135E+03  0.15718234536E+04  0.16777284571E+04  0.00000000000E+00 0. -1.
         -3    1    6    6    0  503 -0.23461917945E+01  0.23411116184E+01  0.36359343656E+02  0.36510098474E+02  0.00000000000E+00 0.  1.
<mgrwt>
<rscale>  0 0.13197298E+04</rscale>
<asrwt>0</asrwt>
<pdfrwt beam="1">  1        2 0.54630058E+00 0.13197298E+04</pdfrwt>
<pdfrwt beam="2">  1       -1 0.18864776E-01 0.13197298E+04</pdfrwt>
<totfact> 0.19220400E+01</totfact>
</mgrwt>
</event>
<event>
12    6  0.1510140E-007  0.1864063E+04  0.7818608E-02  0.8672954E-01
          2   -1    0    0  501    0  0.00000000000E+00  0.00000000000E+00  0.57967057050E+03  0.57967057050E+03  0.00000000000E+00 0. -1.
         -1   -1    0    0    0  501 -0.00000000000E+00 -0.00000000000E+00 -0.14985795011E+04  0.14985795011E+04  0.00000000000E+00 0.  1.
         24    2    1    2    0    0  0.42937704830E+03  0.47696101918E+03 -0.10757641195E+02  0.64682767268E+03  0.80086502425E+02 0.  0.
        254    2    1    2    0    0 -0.42937704830E+03 -0.47696101918E+03 -0.90815128936E+03  0.14314223989E+04  0.90131839892E+03 0.  0.
         23    2    4    4    0    0 -0.51145081931E+03 -0.53957118897E+03 -0.10126992838E+04  0.12596288479E+04  0.91575033201E+02 0.  0.
         23    2    4    4    0    0  0.82073771007E+02  0.62610169793E+02  0.10454799440E+03  0.17179355094E+03  0.89031476242E+02 0.  0.
          4    1    3    3  502    0  0.32573770233E+03  0.31201626287E+03  0.79031560810E+01  0.45113374834E+03  0.00000000000E+00 0. -1.
         -3    1    3    3    0  502  0.10363934597E+03  0.16494475631E+03 -0.18660797276E+02  0.19569392434E+03  0.00000000000E+00 0.  1.
         11    1    5    5    0    0 -0.53053233289E+02 -0.83887344137E+02 -0.17951800001E+03  0.20513031077E+03  0.00000000000E+00 0. -1.
        -11    1    5    5    0    0 -0.45839758602E+03 -0.45568384484E+03 -0.83318128375E+03  0.10544985372E+04  0.00000000000E+00 0.  1.
          3    1    6    6  503    0 -0.95103081255E+01 -0.13994290031E+02  0.12820833931E+02  0.21228751655E+02  0.00000000000E+00 0. -1.
         -3    1    6    6    0  503  0.91584079132E+02  0.76604459824E+02  0.91727160469E+02  0.15056479928E+03  0.00000000000E+00 0.  1.
<mgrwt>
<rscale>  0 0.18640627E+04</rscale>
<asrwt>0</asrwt>
<pdfrwt beam="1">  1        2 0.89180089E-01 0.18640627E+04</pdfrwt>
<pdfrwt beam="2">  1       -1 0.23055069E+00 0.18640627E+04</pdfrwt>
<totfact> 0.51915700E+00</totfact>
</mgrwt>
</event>
<event>
12    6  0.1510140E-007  0.1617500E+04  0.7818608E-02  0.8809869E-01
         -1   -1    0    0    0  501 -0.00000000000E+00  0.00000000000E+00  0.48663384323E+03  0.48663384323E+03  0.00000000000E+00 0.  1.
          2   -1    0    0  501    0  0.00000000000E+00 -0.00000000000E+00 -0.13440828821E+04  0.13440828821E+04  0.00000000000E+00 0. -1.
         24    2    1    2    0    0  0.12163002171E+03 -0.43823306315E+02 -0.90489173175E+03  0.91759231564E+03  0.80201416327E+02 0.  0.
        254    2    1    2    0    0 -0.12163002171E+03  0.43823306315E+02  0.47442692876E+02  0.91312440969E+03  0.90267991786E+03 0.  0.
         23    2    4    4    0    0  0.20889401788E+03 -0.17988991328E+03  0.31276790905E+03  0.42552408703E+03  0.85146298229E+02 0.  0.
         23    2    4    4    0    0 -0.33052403959E+03  0.22371321960E+03 -0.26532521617E+03  0.48760032266E+03  0.89793423782E+02 0.  0.
          4    1    3    3  502    0  0.77776008910E+02 -0.66893355815E+02 -0.60775267623E+03  0.61634985526E+03  0.00000000000E+00 0. -1.
         -3    1    3    3    0  502  0.43854012797E+02  0.23070049501E+02 -0.29713905552E+03  0.30124246038E+03  0.00000000000E+00 0.  1.
         11    1    5    5    0    0  0.11539625180E+03 -0.13675166994E+03  0.24033529662E+03  0.29963038725E+03  0.00000000000E+00 0.  1.
        -11    1    5    5    0    0  0.93497766081E+02 -0.43138243345E+02  0.72432612425E+02  0.12589369978E+03  0.00000000000E+00 0. -1.
          1    1    6    6  503    0  0.38097293891E+01  0.53977522526E+01  0.22015981824E+01  0.69639645286E+01  0.00000000000E+00 0. -1.
         -1    1    6    6    0  503 -0.33433376898E+03  0.21831546734E+03 -0.26752681435E+03  0.48063635813E+03  0.00000000000E+00 0.  1.
<mgrwt>
<rscale>  0 0.16174996E+04</rscale>
<asrwt>0</asrwt>
<pdfrwt beam="1">  1        2 0.20678198E+00 0.16174996E+04</pdfrwt>
<pdfrwt beam="2">  1       -1 0.74866745E-01 0.16174996E+04</pdfrwt>
<totfact> 0.30529960E+01</totfact>
</mgrwt>
</event>
<event>
12    6  0.1510140E-007  0.2370166E+04  0.7818608E-02  0.8450758E-01
         -1   -1    0    0    0  501 -0.00000000000E+00  0.00000000000E+00  0.43044450640E+03  0.43044450640E+03  0.00000000000E+00 0.  1.
          2   -1    0    0  501    0  0.00000000000E+00 -0.00000000000E+00 -0.32627231244E+04  0.32627231244E+04  0.00000000000E+00 0. -1.
         24    2    1    2    0    0 -0.14682433304E+03 -0.21692341187E+03  0.28490639900E+03  0.39505207681E+03  0.79254878785E+02 0.  0.
        254    2    1    2    0    0  0.14682433304E+03  0.21692341187E+03 -0.31171850170E+04  0.32981155540E+04  0.10450409685E+04 0.  0.
         23    2    4    4    0    0  0.17897112086E+03  0.61552066430E+03 -0.21846807166E+04  0.22787109828E+04  0.93795305249E+02 0.  0.
         23    2    4    4    0    0 -0.32146787829E+02 -0.39859725242E+03 -0.93250430038E+03  0.10194045712E+04  0.98530319822E+02 0.  0.
          2    1    3    3  502    0 -0.10958006207E+02 -0.66574072846E+02  0.10059674403E+03  0.12112757731E+03  0.00000000000E+00 0. -1.
         -1    1    3    3    0  502 -0.13586632683E+03 -0.15034933903E+03  0.18430965496E+03  0.27392449950E+03  0.00000000000E+00 0.  1.
         11    1    5    5    0    0  0.18842976842E+03  0.56936323157E+03 -0.19898819894E+04  0.20782951183E+04  0.00000000000E+00 0.  1.
        -11    1    5    5    0    0 -0.94586475560E+01  0.46157432728E+02 -0.19479872721E+03  0.20041586447E+03  0.00000000000E+00 0. -1.
          2    1    6    6  503    0 -0.15952588904E+02 -0.11118890143E+02 -0.87804316945E+02  0.89931712343E+02  0.00000000000E+00 0. -1.
         -2    1    6    6    0  503 -0.16194198925E+02 -0.38747836228E+03 -0.84469998344E+03  0.92947285885E+03  0.00000000000E+00 0.  1.
<mgrwt>
<rscale>  0 0.23701656E+04</rscale>
<asrwt>0</asrwt>
<pdfrwt beam="1">  1        2 0.50195739E+00 0.23701656E+04</pdfrwt>
<pdfrwt beam="2">  1       -1 0.66222233E-01 0.23701656E+04</pdfrwt>
<totfact> 0.27978964E+00</totfact>
</mgrwt>
</event>
<event>
12    6  0.1510140E-007  0.2406898E+04  0.7818608E-02  0.8436926E-01
          2   -1    0    0  501    0  0.00000000000E+00  0.00000000000E+00  0.22042068878E+04  0.22042068878E+04  0.00000000000E+00 0. -1.
         -1   -1    0    0    0  501 -0.00000000000E+00 -0.00000000000E+00 -0.65705671673E+03  0.65705671673E+03  0.00000000000E+00 0.  1.
         24    2    1    2    0    0  0.30544540497E+03 -0.87599669299E+03  0.14740703160E+03  0.94295165730E+03  0.82230733296E+02 0.  0.
        254    2    1    2    0    0 -0.30544540497E+03  0.87599669299E+03  0.13997431394E+04  0.19183119472E+04  0.92734716736E+03 0.  0.
         23    2    4    4    0    0  0.20962932199E+03  0.21953117793E+03  0.86933621240E+03  0.92529831245E+03  0.91066602607E+02 0.  0.
         23    2    4    4    0    0 -0.51507472696E+03  0.65646551506E+03  0.53040692704E+03  0.99301363475E+03  0.92171707866E+02 0.  0.
          2    1    3    3  502    0  0.53584586565E+02 -0.14836949338E+03  0.56761775408E+02  0.16765057003E+03  0.00000000000E+00 0. -1.
         -3    1    3    3    0  502  0.25186081840E+03 -0.72762719961E+03  0.90645256192E+02  0.77530108727E+03  0.00000000000E+00 0.  1.
         11    1    5    5    0    0  0.14245081536E+03  0.10608744951E+03  0.39727290347E+03  0.43516955497E+03  0.00000000000E+00 0.  1.
        -11    1    5    5    0    0  0.67178506630E+02  0.11344372842E+03  0.47206330894E+03  0.49012875749E+03  0.00000000000E+00 0. -1.
          1    1    6    6  503    0 -0.77504742469E+02  0.81068239558E+02  0.38232863305E+02  0.11849386654E+03  0.00000000000E+00 0. -1.
         -1    1    6    6    0  503 -0.43756998449E+03  0.57539727550E+03  0.49217406374E+03  0.87451976821E+03  0.00000000000E+00 0.  1.
<mgrwt>
<rscale>  0 0.24068975E+04</rscale>
<asrwt>0</asrwt>
<pdfrwt beam="1">  1        2 0.33910875E+00 0.24068975E+04</pdfrwt>
<pdfrwt beam="2">  1       -1 0.10108565E+00 0.24068975E+04</pdfrwt>
<totfact> 0.48818066E+00</totfact>
</mgrwt>
</event>
<event>
12    6  0.1510140E-007  0.1698970E+04  0.7818608E-02  0.8761952E-01
         -1   -1    0    0    0  501 -0.00000000000E+00  0.00000000000E+00  0.18895641306E+03  0.18895641306E+03  0.00000000000E+00 0.  1.
          2   -1    0    0  501    0  0.00000000000E+00 -0.00000000000E+00 -0.38190024937E+04  0.38190024937E+04  0.00000000000E+00 0. -1.
         24    2    1    2    0    0 -0.20301981268E+02  0.60264660350E+03 -0.12274481217E+04  0.13713202003E+04  0.10146477791E+03 0.  0.
        254    2    1    2    0    0  0.20301981268E+02 -0.60264660350E+03 -0.24025979589E+04  0.26366387064E+04  0.90321183390E+03 0.  0.
         23    2    4    4    0    0 -0.19096770856E+03 -0.74913564086E+03 -0.20148298278E+04  0.21600804805E+04  0.93464287694E+02 0.  0.
         23    2    4    4    0    0  0.21126968983E+03  0.14648903736E+03 -0.38776813110E+03  0.47655822592E+03  0.10319738025E+03 0.  0.
          2    1    3    3  502    0 -0.11944507169E+02  0.16078319224E+03 -0.43579924192E+03  0.46466642381E+03  0.00000000000E+00 0. -1.
         -1    1    3    3    0  502 -0.83574740987E+01  0.44186341125E+03 -0.79164887981E+03  0.90665377652E+03  0.00000000000E+00 0.  1.
         11    1    5    5    0    0 -0.90449215420E+02 -0.37962836759E+03 -0.11453202797E+04  0.12099823557E+04  0.00000000000E+00 0.  1.
        -11    1    5    5    0    0 -0.10051849314E+03 -0.36950727326E+03 -0.86950954811E+03  0.95009812478E+03  0.00000000000E+00 0. -1.
          1    1    6    6  503    0  0.20337237156E+03  0.13690195448E+03 -0.29776728296E+03  0.38570431869E+03  0.00000000000E+00 0. -1.
         -1    1    6    6    0  503  0.78973182736E+01  0.95870828791E+01 -0.90000848137E+02  0.90853907233E+02  0.00000000000E+00 0.  1.
<mgrwt>
<rscale>  0 0.16989703E+04</rscale>
<asrwt>0</asrwt>
<pdfrwt beam="1">  1        2 0.58753881E+00 0.16989703E+04</pdfrwt>
<pdfrwt beam="2">  1       -1 0.29070219E-01 0.16989703E+04</pdfrwt>
<totfact> 0.56298102E+00</totfact>
</mgrwt>
</event>
<event>
12    6  0.1510140E-007  0.1297397E+04  0.7818608E-02  0.9031632E-01
          2   -1    0    0  501    0  0.00000000000E+00  0.00000000000E+00  0.11340371893E+04  0.11340371893E+04  0.00000000000E+00 0. -1.
         -1   -1    0    0    0  501 -0.00000000000E+00 -0.00000000000E+00 -0.37107237844E+03  0.37107237844E+03  0.00000000000E+00 0.  1.
         24    2    1    2    0    0 -0.10409628262E+03  0.30968245046E+03  0.14455449613E+03  0.36592572448E+03  0.79160452916E+02 0.  0.
        254    2    1    2    0    0  0.10409628262E+03 -0.30968245046E+03  0.61841031475E+03  0.11391838433E+04  0.89920479050E+03 0.  0.
         23    2    4    4    0    0 -0.97648946959E+02  0.19046164967E+03 -0.84991403117E+02  0.24758521498E+03  0.90906233193E+02 0.  0.
         23    2    4    4    0    0  0.20174522958E+03 -0.50014410013E+03  0.70340171787E+03  0.89159862832E+03  0.96586120956E+02 0.  0.
          2    1    3    3  502    0 -0.92025245716E+02  0.21503557009E+03  0.67961385036E+02  0.24357276553E+03  0.00000000000E+00 0. -1.
         -1    1    3    3    0  502 -0.12071036901E+02  0.94646880373E+02  0.76593111097E+02  0.12235295895E+03  0.00000000000E+00 0.  1.
         11    1    5    5    0    0 -0.85739909415E+02  0.11566202299E+03 -0.15522728823E+02  0.14481018865E+03  0.00000000000E+00 0. -1.
        -11    1    5    5    0    0 -0.11909037544E+02  0.74799626684E+02 -0.69468674294E+02  0.10277502632E+03  0.00000000000E+00 0.  1.
          2    1    6    6  503    0  0.13801294727E+03 -0.40956850354E+03  0.60452828630E+03  0.74313416126E+03  0.00000000000E+00 0.  1.
         -2    1    6    6    0  503  0.63732282309E+02 -0.90575596595E+02  0.98873431576E+02  0.14846446706E+03  0.00000000000E+00 0. -1.
<mgrwt>
<rscale>  0 0.12973972E+04</rscale>
<asrwt>0</asrwt>
<pdfrwt beam="1">  1        2 0.17446726E+00 0.12973972E+04</pdfrwt>
<pdfrwt beam="2">  1       -1 0.57088059E-01 0.12973972E+04</pdfrwt>
<totfact> 0.72103555E+01</totfact>
</mgrwt>
</event>
<event>
12    6  0.1510140E-007  0.2010067E+04  0.7818608E-02  0.8601928E-01
         -1   -1    0    0    0  501 -0.00000000000E+00  0.00000000000E+00  0.27935285412E+03  0.27935285412E+03  0.00000000000E+00 0.  1.
          2   -1    0    0  501    0  0.00000000000E+00 -0.00000000000E+00 -0.36158307425E+04  0.36158307425E+04  0.00000000000E+00 0. -1.
         24    2    1    2    0    0  0.53535217726E+03  0.43630821670E+03 -0.55271257167E+03  0.88809688014E+03  0.79107951343E+02 0.  0.
        254    2    1    2    0    0 -0.53535217726E+03 -0.43630821670E+03 -0.27837653167E+04  0.30070867165E+04  0.90346796752E+03 0.  0.
         23    2    4    4    0    0 -0.62063301545E+03  0.15776166870E+02 -0.19763035377E+04  0.20735385647E+04  0.91390804266E+02 0.  0.
         23    2    4    4    0    0  0.85280838197E+02 -0.45208438357E+03 -0.80746177903E+03  0.93354815175E+03  0.88682105365E+02 0.  0.
          4    1    3    3  502    0  0.29434996243E+02  0.71389048525E+01 -0.36902252296E+02  0.47740540328E+02  0.00000000000E+00 0. -1.
         -3    1    3    3    0  502  0.50591718101E+03  0.42916931185E+03 -0.51581031938E+03  0.84035633981E+03  0.00000000000E+00 0.  1.
         11    1    5    5    0    0 -0.12558891645E+03 -0.23545225221E+02 -0.32641966365E+03  0.35053780165E+03  0.00000000000E+00 0. -1.
        -11    1    5    5    0    0 -0.49504409900E+03  0.39321392091E+02 -0.16498838740E+04  0.17230007631E+04  0.00000000000E+00 0.  1.
          4    1    6    6  503    0 -0.13135503078E+02 -0.51779830809E+02 -0.12969162909E+03  0.14026264997E+03  0.00000000000E+00 0. -1.
         -4    1    6    6    0  503  0.98416341275E+02 -0.40030455277E+03 -0.67777014994E+03  0.79328550179E+03  0.00000000000E+00 0.  1.
<mgrwt>
<rscale>  0 0.20100673E+04</rscale>
<asrwt>0</asrwt>
<pdfrwt beam="1">  1        2 0.55628164E+00 0.20100673E+04</pdfrwt>
<pdfrwt beam="2">  1       -1 0.42977363E-01 0.20100673E+04</pdfrwt>
<totfact> 0.38157615E+00</totfact>
</mgrwt>
</event>
<event>
12    6  0.1510140E-007  0.1258109E+04  0.7818608E-02  0.9063461E-01
          2   -1    0    0  501    0  0.00000000000E+00  0.00000000000E+00  0.50301646006E+03  0.50301646006E+03  0.00000000000E+00 0. -1.
         -1   -1    0    0    0  501 -0.00000000000E+00 -0.00000000000E+00 -0.78667291795E+03  0.78667291795E+03  0.00000000000E+00 0.  1.
         24    2    1    2    0    0  0.12209888946E+03  0.26201987619E+03  0.74197688077E+02  0.30872124961E+03  0.78999738754E+02 0.  0.
        254    2    1    2    0    0 -0.12209888946E+03 -0.26201987619E+03 -0.35785414597E+03  0.98096812840E+03  0.86641579211E+03 0.  0.
         23    2    4    4    0    0 -0.40286550586E+00  0.12196372193E+03  0.22176318650E+03  0.27000559036E+03  0.94068040097E+02 0.  0.
         23    2    4    4    0    0 -0.12169602396E+03 -0.38398359812E+03 -0.57961733247E+03  0.71096253804E+03  0.85194791674E+02 0.  0.
          2    1    3    3  502    0  0.12565857213E+03  0.21769645339E+03  0.80216984103E+02  0.26384955393E+03  0.00000000000E+00 0. -1.
         -1    1    3    3    0  502 -0.35596826727E+01  0.44323422797E+02 -0.60192960268E+01  0.44871695687E+02  0.00000000000E+00 0.  1.
         11    1    5    5    0    0  0.22435070515E+01  0.12126008166E+03  0.12847526177E+03  0.17667748474E+03  0.00000000000E+00 0.  1.
        -11    1    5    5    0    0 -0.26463725574E+01  0.70364027862E+00  0.93287924730E+02  0.93328105616E+02  0.00000000000E+00 0. -1.
          4    1    6    6  503    0  0.26850208669E+01 -0.27272139217E+02 -0.80239653998E+02  0.84790217527E+02  0.00000000000E+00 0. -1.
         -4    1    6    6    0  503 -0.12438104482E+03 -0.35671145890E+03 -0.49937767847E+03  0.62617232052E+03  0.00000000000E+00 0.  1.
<mgrwt>
<rscale>  0 0.12581088E+04</rscale>
<asrwt>0</asrwt>
<pdfrwt beam="1">  1        2 0.77387148E-01 0.12581088E+04</pdfrwt>
<pdfrwt beam="2">  1       -1 0.12102660E+00 0.12581088E+04</pdfrwt>
<totfact> 0.41687106E+01</totfact>
</mgrwt>
</event>
<event>
12    6  0.1510140E-007  0.1697992E+04  0.7818608E-02  0.8762510E-01
         -1   -1    0    0    0  501 -0.00000000000E+00  0.00000000000E+00  0.23760605295E+03  0.23760605295E+03  0.00000000000E+00 0.  1.
          2   -1    0    0  501    0  0.00000000000E+00 -0.00000000000E+00 -0.30335691135E+04  0.30335691135E+04  0.00000000000E+00 0. -1.
         24    2    1    2    0    0  0.39835899927E+03  0.29436305584E+03 -0.16851006926E+04  0.17595274964E+04  0.10503887638E+03 0.  0.
        254    2    1    2    0    0 -0.39835899927E+03 -0.29436305584E+03 -0.11108623680E+04  0.15116476701E+04  0.89762128809E+03 0.  0.
         23    2    4    4    0    0 -0.66930134172E+03 -0.23336787188E+03 -0.65356059862E+03  0.96884445365E+03  0.95358636927E+02 0.  0.
         23    2    4    4    0    0  0.27094234245E+03 -0.60995183962E+02 -0.45730176936E+03  0.54280321641E+03  0.91543749558E+02 0.  0.
          2    1    3    3  502    0  0.32588229476E+02  0.29417702106E+02 -0.28558327795E+03  0.28893806005E+03  0.00000000000E+00 0. -1.
         -1    1    3    3    0  502  0.36577076980E+03  0.26494535374E+03 -0.13995174146E+04  0.14705894364E+04  0.00000000000E+00 0.  1.
         11    1    5    5    0    0 -0.46386741362E+02  0.79370845151E+01 -0.47587777117E+02  0.66927749220E+02  0.00000000000E+00 0. -1.
        -11    1    5    5    0    0 -0.62291460036E+03 -0.24130495640E+03 -0.60597282150E+03  0.90191670442E+03  0.00000000000E+00 0.  1.
          4    1    6    6  503    0  0.24291146064E+02  0.20538584744E+02 -0.63730415911E+02  0.71228218794E+02  0.00000000000E+00 0. -1.
         -4    1    6    6    0  503  0.24665119638E+03 -0.81533768706E+02 -0.39357135345E+03  0.47157499761E+03  0.00000000000E+00 0.  1.
<mgrwt>
<rscale>  0 0.16979922E+04</rscale>
<asrwt>0</asrwt>
<pdfrwt beam="1">  1        2 0.46670294E+00 0.16979922E+04</pdfrwt>
<pdfrwt beam="2">  1       -1 0.36554777E-01 0.16979922E+04</pdfrwt>
<totfact> 0.12961882E+01</totfact>
</mgrwt>
</event>
<event>
12    6  0.1510140E-007  0.1519135E+04  0.7818608E-02  0.8871827E-01
          2   -1    0    0  501    0  0.00000000000E+00  0.00000000000E+00  0.94649360937E+03  0.94649360937E+03  0.00000000000E+00 0. -1.
         -1   -1    0    0    0  501 -0.00000000000E+00 -0.00000000000E+00 -0.60955770297E+03  0.60955770297E+03  0.00000000000E+00 0.  1.
         24    2    1    2    0    0  0.16432447777E+03  0.42792156532E+03  0.29347171506E+03  0.55016701620E+03  0.80241498747E+02 0.  0.
        254    2    1    2    0    0 -0.16432447777E+03 -0.42792156532E+03  0.43464191333E+02  0.10058842961E+04  0.89431240695E+03 0.  0.
         23    2    4    4    0    0  0.31180215648E+03 -0.43893031261E+02  0.17741219334E+03  0.37298809155E+03  0.92183768167E+02 0.  0.
         23    2    4    4    0    0 -0.47612663425E+03 -0.38402853406E+03 -0.13394800201E+03  0.63289620459E+03  0.91875196490E+02 0.  0.
          2    1    3    3  502    0  0.14808766487E+03  0.42044625923E+03  0.29044675833E+03  0.53203790543E+03  0.00000000000E+00 0. -1.
         -1    1    3    3    0  502  0.16236812902E+02  0.74753060833E+01  0.30249567289E+01  0.18129110774E+02  0.00000000000E+00 0.  1.
         11    1    5    5    0    0  0.27273353052E+03 -0.26123612348E+02  0.18333279296E+03  0.32966184913E+03  0.00000000000E+00 0. -1.
        -11    1    5    5    0    0  0.39068625955E+02 -0.17769418912E+02 -0.59205996234E+01  0.43326242422E+02  0.00000000000E+00 0.  1.
          2    1    6    6  503    0 -0.43263915501E+03 -0.31644359938E+03 -0.98199942904E+02  0.54493707785E+03  0.00000000000E+00 0. -1.
         -2    1    6    6    0  503 -0.43487479240E+02 -0.67584934680E+02 -0.35748059104E+02  0.87959126736E+02  0.00000000000E+00 0.  1.
<mgrwt>
<rscale>  0 0.15191346E+04</rscale>
<asrwt>0</asrwt>
<pdfrwt beam="1">  1        2 0.14561440E+00 0.15191346E+04</pdfrwt>
<pdfrwt beam="2">  1       -1 0.93778108E-01 0.15191346E+04</pdfrwt>
<totfact> 0.33134987E+01</totfact>
</mgrwt>
</event>
<event>
12    6  0.1510140E-007  0.1831651E+04  0.7818608E-02  0.8689647E-01
         -1   -1    0    0    0  501 -0.00000000000E+00  0.00000000000E+00  0.10222129281E+04  0.10222129281E+04  0.00000000000E+00 0.  1.
          2   -1    0    0  501    0  0.00000000000E+00 -0.00000000000E+00 -0.82051042831E+03  0.82051042831E+03  0.00000000000E+00 0. -1.
         24    2    1    2    0    0  0.40630214772E+03  0.55399140174E+03 -0.11555538195E+02  0.69163437956E+03  0.78972628741E+02 0.  0.
        254    2    1    2    0    0 -0.40630214772E+03 -0.55399140174E+03  0.21325803796E+03  0.11510889768E+04  0.89863170063E+03 0.  0.
         23    2    4    4    0    0 -0.54679941761E+03 -0.32458355622E+03 -0.17825439649E+03  0.66651431578E+03  0.90125552443E+02 0.  0.
         23    2    4    4    0    0  0.14049726990E+03 -0.22940784552E+03  0.39151243445E+03  0.48457466105E+03  0.95724465900E+02 0.  0.
          2    1    3    3  502    0  0.31499152275E+02  0.14951805036E+02  0.23868172060E+01  0.34949248408E+02  0.00000000000E+00 0. -1.
         -1    1    3    3    0  502  0.37480299544E+03  0.53903959671E+03 -0.13942355401E+02  0.65668513116E+03  0.00000000000E+00 0.  1.
         11    1    5    5    0    0 -0.19528077538E+01 -0.96350958714E+01 -0.12165349713E+02  0.15641108152E+02  0.00000000000E+00 0. -1.
        -11    1    5    5    0    0 -0.54484660986E+03 -0.31494846035E+03 -0.16608904677E+03  0.65087320763E+03  0.00000000000E+00 0.  1.
          4    1    6    6  503    0 -0.79805801174E+01 -0.34669574276E+02  0.85740775327E+02  0.92828603314E+02  0.00000000000E+00 0. -1.
         -4    1    6    6    0  503  0.14847785001E+03 -0.19473827125E+03  0.30577165912E+03  0.39174605774E+03  0.00000000000E+00 0.  1.
<mgrwt>
<rscale>  0 0.18316510E+04</rscale>
<asrwt>0</asrwt>
<pdfrwt beam="1">  1        2 0.12623237E+00 0.18316510E+04</pdfrwt>
<pdfrwt beam="2">  1       -1 0.15726353E+00 0.18316510E+04</pdfrwt>
<totfact> 0.10973452E+01</totfact>
</mgrwt>
</event>
<event>
12    6  0.1510140E-007  0.3129035E+04  0.7818608E-02  0.8207815E-01
         -1   -1    0    0    0  501 -0.00000000000E+00  0.00000000000E+00  0.18414383899E+04  0.18414383899E+04  0.00000000000E+00 0.  1.
          2   -1    0    0  501    0  0.00000000000E+00 -0.00000000000E+00 -0.13292403631E+04  0.13292403631E+04  0.00000000000E+00 0. -1.
         24    2    1    2    0    0 -0.13309874267E+04  0.34668073534E+03 -0.15658310734E+03  0.13865514207E+04  0.79319043188E+02 0.  0.
        254    2    1    2    0    0  0.13309874267E+04 -0.34668073534E+03  0.66878113422E+03  0.17841273322E+04  0.91876388150E+03 0.  0.
         23    2    4    4    0    0  0.11369684098E+04 -0.40503310121E+03  0.86529388374E+03  0.14879448255E+04  0.92180912596E+02 0.  0.
         23    2    4    4    0    0  0.19401901690E+03  0.58352365873E+02 -0.19651274952E+03  0.29618250673E+03  0.89768808863E+02 0.  0.
          4    1    3    3  502    0 -0.60623570948E+03  0.15332699842E+03 -0.11071224785E+03  0.63504968759E+03  0.00000000000E+00 0. -1.
         -3    1    3    3    0  502 -0.72475171720E+03  0.19335373691E+03 -0.45870859495E+02  0.75150173314E+03  0.00000000000E+00 0.  1.
         11    1    5    5    0    0  0.74016660589E+03 -0.29689936533E+03  0.53304997065E+03  0.95923829616E+03  0.00000000000E+00 0.  1.
        -11    1    5    5    0    0  0.39680180389E+03 -0.10813373588E+03  0.33224391309E+03  0.52870652936E+03  0.00000000000E+00 0. -1.
          1    1    6    6  503    0 -0.75148148310E+01 -0.59354845052E+01 -0.12934660471E+02  0.16093721128E+02  0.00000000000E+00 0. -1.
         -1    1    6    6    0  503  0.20153383174E+03  0.64287850378E+02 -0.18357808905E+03  0.28008878560E+03  0.00000000000E+00 0.  1.
<mgrwt>
<rscale>  0 0.31290345E+04</rscale>
<asrwt>0</asrwt>
<pdfrwt beam="1">  1        2 0.20449852E+00 0.31290345E+04</pdfrwt>
<pdfrwt beam="2">  1       -1 0.28329821E+00 0.31290345E+04</pdfrwt>
<totfact> 0.64969157E-01</totfact>
</mgrwt>
</event>
<event>
12    6  0.1510140E-007  0.1600231E+04  0.7818608E-02  0.8820406E-01
         -1   -1    0    0    0  501 -0.00000000000E+00  0.00000000000E+00  0.25269821924E+03  0.25269821924E+03  0.00000000000E+00 0.  1.
          2   -1    0    0  501    0  0.00000000000E+00 -0.00000000000E+00 -0.25333970518E+04  0.25333970518E+04  0.00000000000E+00 0. -1.
         24    2    1    2    0    0  0.14124277403E+03 -0.44353124332E+02 -0.17187434769E+04  0.17269241337E+04  0.79190297484E+02 0.  0.
        254    2    1    2    0    0 -0.14124277403E+03  0.44353124332E+02 -0.56195535571E+03  0.10591711374E+04  0.88551282073E+03 0.  0.
         23    2    4    4    0    0 -0.10242541623E+03 -0.31584797180E+03 -0.59072400321E+03  0.68449506565E+03  0.96580224460E+02 0.  0.
         23    2    4    4    0    0 -0.38817357800E+02  0.36020109613E+03  0.28768647492E+02  0.37467607177E+03  0.91120287288E+02 0.  0.
          2    1    3    3  502    0  0.25336314107E+02 -0.22429620547E+01 -0.74073204767E+03  0.74116862194E+03  0.00000000000E+00 0. -1.
         -1    1    3    3    0  502  0.11590645993E+03 -0.42110162277E+02 -0.97801142922E+03  0.98575551173E+03  0.00000000000E+00 0.  1.
         11    1    5    5    0    0 -0.61192066163E+02 -0.15252766604E+03 -0.38498585320E+03  0.41859678096E+03  0.00000000000E+00 0.  1.
        -11    1    5    5    0    0 -0.41233350072E+02 -0.16332030576E+03 -0.20573815001E+03  0.26589828469E+03  0.00000000000E+00 0. -1.
          2    1    6    6  503    0 -0.44616692335E+01  0.18022376524E+02 -0.20053559316E+02  0.27328699002E+02  0.00000000000E+00 0. -1.
         -2    1    6    6    0  503 -0.34355688567E+02  0.34217871961E+03  0.48822206807E+02  0.34734737277E+03  0.00000000000E+00 0.  1.
<mgrwt>
<rscale>  0 0.16002311E+04</rscale>
<asrwt>0</asrwt>
<pdfrwt beam="1">  1        2 0.38975340E+00 0.16002311E+04</pdfrwt>
<pdfrwt beam="2">  1       -1 0.38876649E-01 0.16002311E+04</pdfrwt>
<totfact> 0.23380318E+01</totfact>
</mgrwt>
</event>
<event>
12    6  0.1510140E-007  0.2151658E+04  0.7818608E-02  0.8538823E-01
         -1   -1    0    0    0  501 -0.00000000000E+00  0.00000000000E+00  0.45496353165E+03  0.45496353165E+03  0.00000000000E+00 0.  1.
          2   -1    0    0  501    0  0.00000000000E+00 -0.00000000000E+00 -0.25439571714E+04  0.25439571714E+04  0.00000000000E+00 0. -1.
         24    2    1    2    0    0 -0.33961836367E+03  0.50276969576E+03  0.35858259799E+02  0.61304692845E+03  0.80141885277E+02 0.  0.
        254    2    1    2    0    0  0.33961836367E+03 -0.50276969576E+03 -0.21248518996E+04  0.23858737746E+04  0.89959995186E+03 0.  0.
         23    2    4    4    0    0  0.53494604694E+03 -0.34984503956E+03 -0.76672413792E+03  0.10025148758E+04  0.92797347640E+02 0.  0.
         23    2    4    4    0    0 -0.19532768327E+03 -0.15292465620E+03 -0.13581277617E+04  0.13833588988E+04  0.87361156066E+02 0.  0.
          2    1    3    3  502    0 -0.13307824921E+03  0.19243174480E+03  0.52906132884E+02  0.23987258226E+03  0.00000000000E+00 0. -1.
         -1    1    3    3    0  502 -0.20654011446E+03  0.31033795096E+03 -0.17047873085E+02  0.37317434620E+03  0.00000000000E+00 0.  1.
         11    1    5    5    0    0  0.50364846441E+03 -0.35104615471E+03 -0.73850720177E+03  0.96035830058E+03  0.00000000000E+00 0. -1.
        -11    1    5    5    0    0  0.31297582527E+02  0.12011151497E+01 -0.28216936158E+02  0.42156575238E+02  0.00000000000E+00 0.  1.
          3    1    6    6  503    0 -0.20464736119E+03 -0.14620729560E+03 -0.13006167187E+04  0.13247116534E+04  0.00000000000E+00 0. -1.
         -3    1    6    6    0  503  0.93196779140E+01 -0.67173606070E+01 -0.57511042933E+02  0.58647245367E+02  0.00000000000E+00 0.  1.
<mgrwt>
<rscale>  0 0.21516577E+04</rscale>
<asrwt>0</asrwt>
<pdfrwt beam="1">  1        2 0.39137802E+00 0.21516577E+04</pdfrwt>
<pdfrwt beam="2">  1       -1 0.69994390E-01 0.21516577E+04</pdfrwt>
<totfact> 0.70750680E+00</totfact>
</mgrwt>
</event>
<event>
12    6  0.1510140E-007  0.1682941E+04  0.7818608E-02  0.8771154E-01
         -1   -1    0    0    0  501 -0.00000000000E+00  0.00000000000E+00  0.45102357962E+03  0.45102357962E+03  0.00000000000E+00 0.  1.
          2   -1    0    0  501    0  0.00000000000E+00 -0.00000000000E+00 -0.15699242798E+04  0.15699242798E+04  0.00000000000E+00 0. -1.
         24    2    1    2    0    0  0.50878372893E+03 -0.85216998033E+02 -0.76055941512E+03  0.92245563747E+03  0.79692908051E+02 0.  0.
        254    2    1    2    0    0 -0.50878372893E+03  0.85216998033E+02 -0.35834128503E+03  0.10984922219E+04  0.90119579754E+03 0.  0.
         23    2    4    4    0    0 -0.26303799524E+03 -0.39120492052E+03 -0.26329824121E+03  0.54685430944E+03  0.86564398856E+02 0.  0.
         23    2    4    4    0    0 -0.24574573369E+03  0.47642191855E+03 -0.95043043824E+02  0.55163791249E+03  0.88895422910E+02 0.  0.
          2    1    3    3  502    0  0.47327237697E+03 -0.94328081741E+02 -0.67886286963E+03  0.83291015456E+03  0.00000000000E+00 0. -1.
         -1    1    3    3    0  502  0.35511351956E+02  0.91110837073E+01 -0.81696545486E+02  0.89545482903E+02  0.00000000000E+00 0.  1.
         11    1    5    5    0    0 -0.25222591957E+03 -0.32939267787E+03 -0.24351851668E+03  0.48105999491E+03  0.00000000000E+00 0.  1.
        -11    1    5    5    0    0 -0.10812075669E+02 -0.61812242649E+02 -0.19779724524E+02  0.65794314525E+02  0.00000000000E+00 0. -1.
          2    1    6    6  503    0 -0.11968274436E+03  0.14526416162E+03 -0.18497995950E+02  0.18912380020E+03  0.00000000000E+00 0. -1.
         -2    1    6    6    0  503 -0.12606298933E+03  0.33115775693E+03 -0.76545047873E+02  0.36251411229E+03  0.00000000000E+00 0.  1.
<mgrwt>
<rscale>  0 0.16829413E+04</rscale>
<asrwt>0</asrwt>
<pdfrwt beam="1">  1        2 0.24152682E+00 0.16829413E+04</pdfrwt>
<pdfrwt beam="2">  1       -1 0.69388242E-01 0.16829413E+04</pdfrwt>
<totfact> 0.26439622E+01</totfact>
</mgrwt>
</event>
<event>
12    6  0.1510140E-007  0.1292329E+04  0.7818608E-02  0.9035670E-01
          2   -1    0    0  501    0  0.00000000000E+00  0.00000000000E+00  0.29918499672E+04  0.29918499672E+04  0.00000000000E+00 0. -1.
         -1   -1    0    0    0  501 -0.00000000000E+00 -0.00000000000E+00 -0.13955542012E+03  0.13955542012E+03  0.00000000000E+00 0.  1.
         24    2    1    2    0    0  0.10544666643E+03  0.23838534929E+03  0.26092189982E+03  0.37702554971E+03  0.78239715721E+02 0.  0.
        254    2    1    2    0    0 -0.10544666643E+03 -0.23838534929E+03  0.25913726472E+04  0.27543798376E+04  0.89635345628E+03 0.  0.
         23    2    4    4    0    0 -0.33444765383E+03 -0.28613606130E+03  0.23923924185E+04  0.24342659395E+04  0.91542893651E+02 0.  0.
         23    2    4    4    0    0  0.22900098740E+03  0.47750712011E+02  0.19898022874E+03  0.32011389808E+03  0.90322719110E+02 0.  0.
          2    1    3    3  502    0  0.16751256050E+02  0.15416517622E+02  0.59587912822E+02  0.63788658469E+02  0.00000000000E+00 0. -1.
         -1    1    3    3    0  502  0.88695410381E+02  0.22296883167E+03  0.20133398699E+03  0.31323689124E+03  0.00000000000E+00 0.  1.
         11    1    5    5    0    0 -0.36601008626E+02 -0.59756844650E+02  0.25863033331E+03  0.26795552546E+03  0.00000000000E+00 0.  1.
        -11    1    5    5    0    0 -0.29784664520E+03 -0.22637921665E+03  0.21337620852E+04  0.21663104140E+04  0.00000000000E+00 0. -1.
          2    1    6    6  503    0  0.14070070105E+03 -0.14751843455E+02  0.97771706981E+02  0.17196979632E+03  0.00000000000E+00 0. -1.
         -2    1    6    6    0  503  0.88300286351E+02  0.62502555466E+02  0.10120852176E+03  0.14814410176E+03  0.00000000000E+00 0.  1.
<mgrwt>
<rscale>  0 0.12923295E+04</rscale>
<asrwt>0</asrwt>
<pdfrwt beam="1">  1        2 0.46028456E+00 0.12923295E+04</pdfrwt>
<pdfrwt beam="2">  1       -1 0.21470067E-01 0.12923295E+04</pdfrwt>
<totfact> 0.36133787E+01</totfact>
</mgrwt>
</event>
<event>
12    6  0.1510140E-007  0.1640693E+04  0.7818608E-02  0.8795932E-01
         -1   -1    0    0    0  501 -0.00000000000E+00  0.00000000000E+00  0.52150920616E+03  0.52150920616E+03  0.00000000000E+00 0.  1.
          2   -1    0    0  501    0  0.00000000000E+00 -0.00000000000E+00 -0.12904242858E+04  0.12904242858E+04  0.00000000000E+00 0. -1.
         24    2    1    2    0    0  0.64624774000E+02  0.54704200638E+03 -0.98419974483E+02  0.56296628030E+03  0.61751301352E+02 0.  0.
        254    2    1    2    0    0 -0.64624774000E+02 -0.54704200638E+03 -0.67049510519E+03  0.12489672117E+04  0.89828953664E+03 0.  0.
         23    2    4    4    0    0 -0.28244804368E+03  0.65957615224E+02 -0.47532991204E+03  0.56370500766E+03  0.87735431843E+02 0.  0.
         23    2    4    4    0    0  0.21782326968E+03 -0.61299962160E+03 -0.19516519314E+03  0.68526220402E+03  0.90990783881E+02 0.  0.
          4    1    3    3  502    0  0.44151995597E+02  0.50222065621E+03 -0.98503911662E+02  0.51369057501E+03  0.00000000000E+00 0. -1.
         -3    1    3    3    0  502  0.20472778402E+02  0.44821350168E+02  0.83937178540E-01  0.49275705291E+02  0.00000000000E+00 0.  1.
         11    1    5    5    0    0 -0.27961517424E+02 -0.34393809230E+01 -0.12149862976E+02  0.30680530767E+02  0.00000000000E+00 0.  1.
        -11    1    5    5    0    0 -0.25448652625E+03  0.69396996147E+02 -0.46318004907E+03  0.53302447690E+03  0.00000000000E+00 0. -1.
          2    1    6    6  503    0  0.64114953904E+02 -0.26140438318E+03 -0.43469314970E+02  0.27263998277E+03  0.00000000000E+00 0. -1.
         -2    1    6    6    0  503  0.15370831578E+03 -0.35159523842E+03 -0.15169587817E+03  0.41262222126E+03  0.00000000000E+00 0.  1.
<mgrwt>
<rscale>  0 0.16406927E+04</rscale>
<asrwt>0</asrwt>
<pdfrwt beam="1">  1        2 0.19852681E+00 0.16406927E+04</pdfrwt>
<pdfrwt beam="2">  1       -1 0.80232186E-01 0.16406927E+04</pdfrwt>
<totfact> 0.28293828E+01</totfact>
</mgrwt>
</event>
<event>
12    6  0.1510140E-007  0.1305994E+04  0.7818608E-02  0.9024826E-01
         -1   -1    0    0    0  501 -0.00000000000E+00  0.00000000000E+00  0.20890731104E+03  0.20890731104E+03  0.00000000000E+00 0.  1.
          2   -1    0    0  501    0  0.00000000000E+00 -0.00000000000E+00 -0.20411195143E+04  0.20411195143E+04  0.00000000000E+00 0. -1.
         24    2    1    2    0    0  0.12558150470E+03  0.30182134433E+03 -0.47977006522E+03  0.58587551975E+03  0.78765290283E+02 0.  0.
        254    2    1    2    0    0 -0.12558150470E+03 -0.30182134433E+03 -0.13524421380E+04  0.16641513056E+04  0.91292551336E+03 0.  0.
         23    2    4    4    0    0 -0.17692164460E+03  0.23766645481E+01  0.66240862999E+02  0.20949965431E+03  0.90528097100E+02 0.  0.
         23    2    4    4    0    0  0.51340139902E+02 -0.30419800887E+03 -0.14186830010E+04  0.14546516513E+04  0.90430805395E+02 0.  0.
          4    1    3    3  502    0  0.43647968028E+02  0.31613337138E+02 -0.78493942376E+02  0.95214742491E+02  0.00000000000E+00 0. -1.
         -3    1    3    3    0  502  0.81933536670E+02  0.27020800719E+03 -0.40127612284E+03  0.49066077726E+03  0.00000000000E+00 0.  1.
         11    1    5    5    0    0 -0.18630485047E+02 -0.26597985985E+02  0.30725937070E+02  0.44706051496E+02  0.00000000000E+00 0.  1.
        -11    1    5    5    0    0 -0.15829115955E+03  0.28974650533E+02  0.35514925929E+02  0.16479360282E+03  0.00000000000E+00 0. -1.
          4    1    6    6  503    0  0.35828632818E+02 -0.35916985196E+02 -0.17152642848E+03  0.17887156404E+03  0.00000000000E+00 0.  1.
         -4    1    6    6    0  503  0.15511507084E+02 -0.26828102368E+03 -0.12471565726E+04  0.12757800872E+04  0.00000000000E+00 0. -1.
<mgrwt>
<rscale>  0 0.13059936E+04</rscale>
<asrwt>0</asrwt>
<pdfrwt beam="1">  1        2 0.31401837E+00 0.13059936E+04</pdfrwt>
<pdfrwt beam="2">  1       -1 0.32139588E-01 0.13059936E+04</pdfrwt>
<totfact> 0.63979402E+01</totfact>
</mgrwt>
</event>
<event>
12    6  0.1510140E-007  0.1439827E+04  0.7818608E-02  0.8925484E-01
          2   -1    0    0  501    0  0.00000000000E+00  0.00000000000E+00  0.76987280720E+03  0.76987280720E+03  0.00000000000E+00 0. -1.
         -1   -1    0    0    0  501 -0.00000000000E+00 -0.00000000000E+00 -0.67319647612E+03  0.67319647612E+03  0.00000000000E+00 0.  1.
         24    2    1    2    0    0  0.33017585330E+03 -0.18008111552E+03 -0.18199959863E+03  0.42460620166E+03  0.75639079314E+02 0.  0.
        254    2    1    2    0    0 -0.33017585330E+03  0.18008111552E+03  0.27867592972E+03  0.10184630817E+04  0.90452278724E+03 0.  0.
         23    2    4    4    0    0 -0.11819562187E+02 -0.34121097736E+03  0.16156226619E+03  0.38957125086E+03  0.95387423257E+02 0.  0.
         23    2    4    4    0    0 -0.31835629111E+03  0.52129209288E+03  0.11711366353E+03  0.62889183080E+03  0.93237065983E+02 0.  0.
          2    1    3    3  502    0  0.50377659601E+02 -0.68688317896E+01 -0.45904018973E+02  0.68500134269E+02  0.00000000000E+00 0. -1.
         -1    1    3    3    0  502  0.27979819369E+03 -0.17321228373E+03 -0.13609557966E+03  0.35610606739E+03  0.00000000000E+00 0.  1.
         11    1    5    5    0    0  0.20474148139E+02 -0.21213786926E+03  0.13945708738E+03  0.25469579018E+03  0.00000000000E+00 0. -1.
        -11    1    5    5    0    0 -0.32293710326E+02 -0.12907310810E+03  0.22105178807E+02  0.13487546067E+03  0.00000000000E+00 0.  1.
          1    1    6    6  503    0 -0.28252601591E+03  0.39007102342E+03  0.98361172895E+02  0.49158038337E+03  0.00000000000E+00 0. -1.
         -1    1    6    6    0  503 -0.35830275199E+02  0.13122106946E+03  0.18752490636E+02  0.13731144743E+03  0.00000000000E+00 0.  1.
<mgrwt>
<rscale>  0 0.14398273E+04</rscale>
<asrwt>0</asrwt>
<pdfrwt beam="1">  1        2 0.11844197E+00 0.14398273E+04</pdfrwt>
<pdfrwt beam="2">  1       -1 0.10356869E+00 0.14398273E+04</pdfrwt>
<totfact> 0.35315558E+01</totfact>
</mgrwt>
</event>
<event>
12    6  0.1510140E-007  0.1535359E+04  0.7818608E-02  0.8861274E-01
          2   -1    0    0  501    0  0.00000000000E+00  0.00000000000E+00  0.42043447914E+04  0.42043447914E+04  0.00000000000E+00 0. -1.
         -1   -1    0    0    0  501 -0.00000000000E+00 -0.00000000000E+00 -0.14017205675E+03  0.14017205675E+03  0.00000000000E+00 0.  1.
         24    2    1    2    0    0  0.26612522988E+02 -0.27652244864E+03  0.16318767414E+03  0.33158742207E+03  0.78403510771E+02 0.  0.
        254    2    1    2    0    0 -0.26612522988E+02  0.27652244864E+03  0.39009850605E+04  0.40129294261E+04  0.89930264394E+03 0.  0.
         23    2    4    4    0    0  0.11130588648E+03  0.87573636849E+02  0.80108857051E+02  0.18378115683E+03  0.85439700326E+02 0.  0.
         23    2    4    4    0    0 -0.13791840947E+03  0.18894881179E+03  0.38208762035E+04  0.38291482693E+04  0.92511429436E+02 0.  0.
          2    1    3    3  502    0 -0.25926131548E+02 -0.73893195656E+02  0.32322886836E+02  0.84717989085E+02  0.00000000000E+00 0. -1.
         -1    1    3    3    0  502  0.52538654535E+02 -0.20262925298E+03  0.13086478730E+03  0.24686943298E+03  0.00000000000E+00 0.  1.
         11    1    5    5    0    0  0.79883819718E+02  0.46462365932E+02  0.92308680100E+02  0.13061802526E+03  0.00000000000E+00 0. -1.
        -11    1    5    5    0    0  0.31422066764E+02  0.41111270917E+02 -0.12199823049E+02  0.53163131572E+02  0.00000000000E+00 0.  1.
          2    1    6    6  503    0 -0.65777069182E+02  0.22545727415E+02  0.93952312304E+03  0.94209268725E+03  0.00000000000E+00 0. -1.
         -2    1    6    6    0  503 -0.72141340287E+02  0.16640308438E+03  0.28813530804E+04  0.28870555820E+04  0.00000000000E+00 0.  1.
<mgrwt>
<rscale>  0 0.15353588E+04</rscale>
<asrwt>0</asrwt>
<pdfrwt beam="1">  1        2 0.64682218E+00 0.15353588E+04</pdfrwt>
<pdfrwt beam="2">  1       -1 0.21564935E-01 0.15353588E+04</pdfrwt>
<totfact> 0.46811995E+00</totfact>
</mgrwt>
</event>
<event>
12    6  0.1510140E-007  0.1348418E+04  0.7818608E-02  0.8992026E-01
         -1   -1    0    0    0  501 -0.00000000000E+00  0.00000000000E+00  0.44571071078E+03  0.44571071078E+03  0.00000000000E+00 0.  1.
          2   -1    0    0  501    0  0.00000000000E+00 -0.00000000000E+00 -0.10198496684E+04  0.10198496684E+04  0.00000000000E+00 0. -1.
         24    2    1    2    0    0  0.61672932506E+02 -0.31349423598E+03 -0.36282317413E+03  0.48990613685E+03  0.79279131199E+02 0.  0.
        254    2    1    2    0    0 -0.61672932506E+02  0.31349423598E+03 -0.21131578344E+03  0.97565424229E+03  0.89730967540E+03 0.  0.
         23    2    4    4    0    0 -0.98369313335E+02  0.56876952017E+03  0.63968273047E+02  0.58775022849E+03  0.90460501052E+02 0.  0.
         23    2    4    4    0    0  0.36696380829E+02 -0.25527528419E+03 -0.27528405649E+03  0.38790401381E+03  0.90421883878E+02 0.  0.
          2    1    3    3  502    0  0.32239021223E+02 -0.25359109942E+03 -0.32396184720E+03  0.41267308931E+03  0.00000000000E+00 0. -1.
         -1    1    3    3    0  502  0.29433911283E+02 -0.59903136551E+02 -0.38861326931E+02  0.77233047544E+02  0.00000000000E+00 0.  1.
         11    1    5    5    0    0 -0.43859076467E+01  0.20311649994E+03 -0.84058022210E+01  0.20333766559E+03  0.00000000000E+00 0.  1.
        -11    1    5    5    0    0 -0.93983405689E+02  0.36565302022E+03  0.72374075268E+02  0.38441256290E+03  0.00000000000E+00 0. -1.
          1    1    6    6  503    0  0.59787592211E+02 -0.17425072963E+03 -0.22085115852E+03  0.28759886505E+03  0.00000000000E+00 0. -1.
         -1    1    6    6    0  503 -0.23091211382E+02 -0.81024554566E+02 -0.54432897966E+02  0.10030514875E+03  0.00000000000E+00 0.  1.
<mgrwt>
<rscale>  0 0.13484182E+04</rscale>
<asrwt>0</asrwt>
<pdfrwt beam="1">  1        2 0.15689995E+00 0.13484182E+04</pdfrwt>
<pdfrwt beam="2">  1       -1 0.68570879E-01 0.13484182E+04</pdfrwt>
<totfact> 0.58684514E+01</totfact>
</mgrwt>
</event>
<event>
12    6  0.1510140E-007  0.2623127E+04  0.7818608E-02  0.8360388E-01
         -1   -1    0    0    0  501 -0.00000000000E+00  0.00000000000E+00  0.10735528229E+04  0.10735528229E+04  0.00000000000E+00 0.  1.
          2   -1    0    0  501    0  0.00000000000E+00 -0.00000000000E+00 -0.16023415987E+04  0.16023415987E+04  0.00000000000E+00 0. -1.
         24    2    1    2    0    0 -0.29602166067E+03 -0.29483767006E+03 -0.13384908190E+04  0.14037622888E+04  0.66579394294E+02 0.  0.
        254    2    1    2    0    0  0.29602166067E+03  0.29483767006E+03  0.80970204323E+03  0.12721321328E+04  0.88777513432E+03 0.  0.
         23    2    4    4    0    0 -0.63533690139E+01 -0.19411592374E+03  0.62611917250E+03  0.66198594631E+03  0.92080496302E+02 0.  0.
         23    2    4    4    0    0  0.30237502969E+03  0.48895359380E+03  0.18358287073E+03  0.61014618644E+03  0.89829966840E+02 0.  0.
          2    1    3    3  502    0 -0.28024451383E+03 -0.28646290862E+03 -0.13117871201E+04  0.13716353138E+04  0.00000000000E+00 0. -1.
         -1    1    3    3    0  502 -0.15777146840E+02 -0.83747614365E+01 -0.26703698914E+02  0.32126975071E+02  0.00000000000E+00 0.  1.
         11    1    5    5    0    0  0.21210862344E+01 -0.44509197058E+01  0.14031369579E+03  0.14040029530E+03  0.00000000000E+00 0. -1.
        -11    1    5    5    0    0 -0.84744552483E+01 -0.18966500403E+03  0.48580547671E+03  0.52158565101E+03  0.00000000000E+00 0.  1.
          3    1    6    6  503    0  0.68358226026E+02  0.58227757172E+02  0.11033101041E+02  0.90471255597E+02  0.00000000000E+00 0. -1.
         -3    1    6    6    0  503  0.23401680366E+03  0.43072583662E+03  0.17254976968E+03  0.51967493085E+03  0.00000000000E+00 0.  1.
<mgrwt>
<rscale>  0 0.26231266E+04</rscale>
<asrwt>0</asrwt>
<pdfrwt beam="1">  1        2 0.24651409E+00 0.26231266E+04</pdfrwt>
<pdfrwt beam="2">  1       -1 0.16516197E+00 0.26231266E+04</pdfrwt>
<totfact> 0.29871003E+00</totfact>
</mgrwt>
</event>
<event>
12    6  0.1510140E-007  0.1130766E+04  0.7818608E-02  0.9175713E-01
          2   -1    0    0  501    0  0.00000000000E+00  0.00000000000E+00  0.99577123096E+03  0.99577123096E+03  0.00000000000E+00 0. -1.
         -1   -1    0    0    0  501 -0.00000000000E+00 -0.00000000000E+00 -0.32101550420E+03  0.32101550420E+03  0.00000000000E+00 0.  1.
         24    2    1    2    0    0 -0.53732236285E+01  0.16079486861E+03  0.20495350433E+01  0.17894461137E+03  0.78314187996E+02 0.  0.
        254    2    1    2    0    0  0.53732236285E+01 -0.16079486861E+03  0.67270619172E+03  0.11378421238E+04  0.90347507823E+03 0.  0.
         23    2    4    4    0    0 -0.97201473178E+02 -0.39169630237E+02  0.86264421023E+03  0.87341131356E+03  0.87806052741E+02 0.  0.
         23    2    4    4    0    0  0.10257469681E+03 -0.12162523837E+03 -0.18993801851E+03  0.26443081022E+03  0.92373889614E+02 0.  0.
          2    1    3    3  502    0  0.35680363804E+02  0.74255295559E+02 -0.73007270863E+01  0.82705730731E+02  0.00000000000E+00 0. -1.
         -1    1    3    3    0  502 -0.41053587433E+02  0.86539573050E+02  0.93502621296E+01  0.96238880640E+02  0.00000000000E+00 0.  1.
         11    1    5    5    0    0 -0.22736689856E+02 -0.53577543361E+02  0.29155715476E+03  0.29730974540E+03  0.00000000000E+00 0. -1.
        -11    1    5    5    0    0 -0.74464783321E+02  0.14407913124E+02  0.57108705547E+03  0.57610156817E+03  0.00000000000E+00 0.  1.
          3    1    6    6  503    0  0.69016256635E+01 -0.61363819498E+02 -0.30241557677E+02  0.68758291070E+02  0.00000000000E+00 0. -1.
         -3    1    6    6    0  503  0.95673071143E+02 -0.60261418876E+02 -0.15969646084E+03  0.19567251915E+03  0.00000000000E+00 0.  1.
<mgrwt>
<rscale>  0 0.11307661E+04</rscale>
<asrwt>0</asrwt>
<pdfrwt beam="1">  1        2 0.15319557E+00 0.11307661E+04</pdfrwt>
<pdfrwt beam="2">  1       -1 0.49387001E-01 0.11307661E+04</pdfrwt>
<totfact> 0.11769457E+02</totfact>
</mgrwt>
</event>
<event>
12    6  0.1510140E-007  0.2083136E+04  0.7818608E-02  0.8568709E-01
          2   -1    0    0  501    0  0.00000000000E+00  0.00000000000E+00  0.10537079340E+04  0.10537079340E+04  0.00000000000E+00 0. -1.
         -1   -1    0    0    0  501 -0.00000000000E+00 -0.00000000000E+00 -0.10295676681E+04  0.10295676681E+04  0.00000000000E+00 0.  1.
         24    2    1    2    0    0  0.42482873565E+03  0.65094316820E+03  0.34120942999E+03  0.85266361613E+03  0.80030645993E+02 0.  0.
        254    2    1    2    0    0 -0.42482873565E+03 -0.65094316820E+03 -0.31706916410E+03  0.12306119860E+04  0.89981472673E+03 0.  0.
         23    2    4    4    0    0  0.39893997391E+02 -0.42907518586E+03  0.21078312296E+03  0.48832258802E+03  0.91281865111E+02 0.  0.
         23    2    4    4    0    0 -0.46472273304E+03 -0.22186798234E+03 -0.52785228706E+03  0.74228939800E+03  0.84692934956E+02 0.  0.
          2    1    3    3  502    0  0.33329458586E+03  0.51946303691E+03  0.23483701441E+03  0.66036016764E+03  0.00000000000E+00 0. -1.
         -1    1    3    3    0  502  0.91534149790E+02  0.13148013129E+03  0.10637241558E+03  0.19230344849E+03  0.00000000000E+00 0.  1.
         11    1    5    5    0    0 -0.21555707778E+02 -0.32779048624E+02  0.14428631606E+02  0.41800717416E+02  0.00000000000E+00 0.  1.
        -11    1    5    5    0    0  0.61449705169E+02 -0.39629613723E+03  0.19635449136E+03  0.44652187060E+03  0.00000000000E+00 0. -1.
          4    1    6    6  503    0 -0.25692182793E+03 -0.14307816005E+03 -0.24627955147E+03  0.38358024327E+03  0.00000000000E+00 0. -1.
         -4    1    6    6    0  503 -0.20780090510E+03 -0.78789822295E+02 -0.28157273559E+03  0.35870915473E+03  0.00000000000E+00 0.  1.
<mgrwt>
<rscale>  0 0.20831357E+04</rscale>
<asrwt>0</asrwt>
<pdfrwt beam="1">  1        2 0.16210891E+00 0.20831357E+04</pdfrwt>
<pdfrwt beam="2">  1       -1 0.15839503E+00 0.20831357E+04</pdfrwt>
<totfact> 0.73654605E+00</totfact>
</mgrwt>
</event>
<event>
12    6  0.1510140E-007  0.2624450E+04  0.7818608E-02  0.8359943E-01
         -1   -1    0    0    0  501 -0.00000000000E+00  0.00000000000E+00  0.48899666969E+03  0.48899666969E+03  0.00000000000E+00 0.  1.
          2   -1    0    0  501    0  0.00000000000E+00 -0.00000000000E+00 -0.35213630383E+04  0.35213630383E+04  0.00000000000E+00 0. -1.
         24    2    1    2    0    0  0.47895708229E+03 -0.59846304967E+03 -0.95253617815E+01  0.77072193182E+03  0.79772521478E+02 0.  0.
        254    2    1    2    0    0 -0.47895708229E+03  0.59846304967E+03 -0.30228410069E+04  0.32396377762E+04  0.87756894868E+03 0.  0.
         23    2    4    4    0    0 -0.70116501468E+03  0.26652020369E+03 -0.19983130902E+04  0.21362459896E+04  0.87328832894E+02 0.  0.
         23    2    4    4    0    0  0.22220793239E+03  0.33194284598E+03 -0.10245279167E+04  0.11033917866E+04  0.90849129755E+02 0.  0.
          2    1    3    3  502    0  0.15679045388E+02 -0.28943583887E+02  0.14969747448E+02  0.36161538286E+02  0.00000000000E+00 0. -1.
         -1    1    3    3    0  502  0.46327803690E+03 -0.56951946578E+03 -0.24495109229E+02  0.73456039354E+03  0.00000000000E+00 0.  1.
         11    1    5    5    0    0 -0.66112770809E+03  0.24116656770E+03 -0.18082966021E+04  0.19404091736E+04  0.00000000000E+00 0.  1.
        -11    1    5    5    0    0 -0.40037306584E+02  0.25353635987E+02 -0.19001648802E+03  0.19583681599E+03  0.00000000000E+00 0. -1.
          3    1    6    6  503    0  0.35075476860E+02  0.41548300464E+02 -0.24142786253E+03  0.24747517684E+03  0.00000000000E+00 0. -1.
         -3    1    6    6    0  503  0.18713245553E+03  0.29039454552E+03 -0.78310005418E+03  0.85591660975E+03  0.00000000000E+00 0.  1.
<mgrwt>
<rscale>  0 0.26244503E+04</rscale>
<asrwt>0</asrwt>
<pdfrwt beam="1">  1        2 0.54174817E+00 0.26244503E+04</pdfrwt>
<pdfrwt beam="2">  1       -1 0.75230255E-01 0.26244503E+04</pdfrwt>
<totfact> 0.14011511E+00</totfact>
</mgrwt>
</event>
<event>
12    6  0.1510140E-007  0.1634967E+04  0.7818608E-02  0.8799350E-01
          2   -1    0    0  501    0  0.00000000000E+00  0.00000000000E+00  0.36482065797E+04  0.36482065797E+04  0.00000000000E+00 0. -1.
         -1   -1    0    0    0  501 -0.00000000000E+00 -0.00000000000E+00 -0.18318025589E+03  0.18318025589E+03  0.00000000000E+00 0.  1.
         24    2    1    2    0    0 -0.81158667777E+02 -0.55282727415E+02  0.25501993089E+04  0.25527674864E+04  0.58842290846E+02 0.  0.
        254    2    1    2    0    0  0.81158667777E+02  0.55282727415E+02  0.91482701497E+03  0.12786193492E+04  0.88787164818E+03 0.  0.
         23    2    4    4    0    0  0.25159658979E+03 -0.18343050193E+03  0.91501437753E+03  0.97083518084E+03  0.91225239061E+02 0.  0.
         23    2    4    4    0    0 -0.17043792201E+03  0.23871322935E+03 -0.18736255974E+00  0.30778416841E+03  0.93262897721E+02 0.  0.
          2    1    3    3  502    0 -0.16330174202E+02 -0.46185789425E+02  0.11191013475E+04  0.11201730347E+04  0.00000000000E+00 0. -1.
         -1    1    3    3    0  502 -0.64828493576E+02 -0.90969379898E+01  0.14310979613E+04  0.14325944516E+04  0.00000000000E+00 0.  1.
         11    1    5    5    0    0  0.39472282107E+02 -0.80700014257E+01  0.21340848597E+03  0.21717819380E+03  0.00000000000E+00 0. -1.
        -11    1    5    5    0    0  0.21212430768E+03 -0.17536050051E+03  0.70160589156E+03  0.75365698704E+03  0.00000000000E+00 0.  1.
          3    1    6    6  503    0 -0.30211042532E+02  0.34431362348E+02  0.34827536702E+02  0.57542880678E+02  0.00000000000E+00 0. -1.
         -3    1    6    6    0  503 -0.14022687948E+03  0.20428186700E+03 -0.35014899261E+02  0.25024128773E+03  0.00000000000E+00 0.  1.
<mgrwt>
<rscale>  0 0.16349672E+04</rscale>
<asrwt>0</asrwt>
<pdfrwt beam="1">  1        2 0.56126250E+00 0.16349672E+04</pdfrwt>
<pdfrwt beam="2">  1       -1 0.28181580E-01 0.16349672E+04</pdfrwt>
<totfact> 0.80034277E+00</totfact>
</mgrwt>
</event>
<event>
12    6  0.1510140E-007  0.1062832E+04  0.7818608E-02  0.9242195E-01
          2   -1    0    0  501    0  0.00000000000E+00  0.00000000000E+00  0.52766369858E+03  0.52766369858E+03  0.00000000000E+00 0. -1.
         -1   -1    0    0    0  501 -0.00000000000E+00 -0.00000000000E+00 -0.53519525711E+03  0.53519525711E+03  0.00000000000E+00 0.  1.
         24    2    1    2    0    0  0.63183599785E+02 -0.11110927935E+03  0.67399785704E+02  0.16527753515E+03  0.80227758739E+02 0.  0.
        254    2    1    2    0    0 -0.63183599785E+02  0.11110927935E+03 -0.74931344234E+02  0.89758142054E+03  0.88526846827E+03 0.  0.
         23    2    4    4    0    0 -0.52020477164E+02  0.48668479620E+03  0.26147119198E+02  0.49765944746E+03  0.86098971602E+02 0.  0.
         23    2    4    4    0    0 -0.11163122621E+02 -0.37557551684E+03 -0.10107846343E+03  0.39992197308E+03  0.92407492253E+02 0.  0.
          4    1    3    3  502    0  0.80236787162E+02 -0.10601441609E+03  0.56949533039E+02  0.14463833429E+03  0.00000000000E+00 0. -1.
         -3    1    3    3    0  502 -0.17053187377E+02 -0.50948632623E+01  0.10450252665E+02  0.20639200860E+02  0.00000000000E+00 0.  1.
         11    1    5    5    0    0 -0.58236822141E+02  0.34545461455E+03 -0.14297877528E+02  0.35062066036E+03  0.00000000000E+00 0. -1.
        -11    1    5    5    0    0  0.62163449765E+01  0.14123018165E+03  0.40444996727E+02  0.14703878710E+03  0.00000000000E+00 0.  1.
          1    1    6    6  503    0  0.34402071341E+02 -0.21319196234E+03 -0.34920703311E+02  0.21875504757E+03  0.00000000000E+00 0. -1.
         -1    1    6    6    0  503 -0.45565193962E+02 -0.16238355451E+03 -0.66157760121E+02  0.18116692551E+03  0.00000000000E+00 0.  1.
<mgrwt>
<rscale>  0 0.10628323E+04</rscale>
<asrwt>0</asrwt>
<pdfrwt beam="1">  1        2 0.81179030E-01 0.10628323E+04</pdfrwt>
<pdfrwt beam="2">  1       -1 0.82337732E-01 0.10628323E+04</pdfrwt>
<totfact> 0.96519211E+01</totfact>
</mgrwt>
</event>
<event>
12    6  0.1510140E-007  0.1379924E+04  0.7818608E-02  0.8968480E-01
         -1   -1    0    0    0  501 -0.00000000000E+00  0.00000000000E+00  0.34327219850E+03  0.34327219850E+03  0.00000000000E+00 0.  1.
          2   -1    0    0  501    0  0.00000000000E+00 -0.00000000000E+00 -0.13867937873E+04  0.13867937873E+04  0.00000000000E+00 0. -1.
         24    2    1    2    0    0  0.28231579628E+03  0.16896538378E+03 -0.45752991986E+02  0.33979941384E+03  0.71545758974E+02 0.  0.
        254    2    1    2    0    0 -0.28231579628E+03 -0.16896538378E+03 -0.99776859684E+03  0.13902665720E+04  0.91052043282E+03 0.  0.
         23    2    4    4    0    0  0.95325886730E+02 -0.44521500194E+03 -0.33011596025E+03  0.57005184940E+03  0.93161908300E+02 0.  0.
         23    2    4    4    0    0 -0.37764168301E+03  0.27624961816E+03 -0.66765263660E+03  0.82021472259E+03  0.89805655224E+02 0.  0.
          4    1    3    3  502    0  0.65852664638E+02  0.39153524508E+02 -0.41995572988E+02  0.87368186841E+02  0.00000000000E+00 0. -1.
         -3    1    3    3    0  502  0.21646313165E+03  0.12981185927E+03 -0.37574189975E+01  0.25243122700E+03  0.00000000000E+00 0.  1.
         11    1    5    5    0    0  0.34689423708E+02 -0.13548004532E+03 -0.51430257553E+02  0.14900761789E+03  0.00000000000E+00 0. -1.
        -11    1    5    5    0    0  0.60636463022E+02 -0.30973495662E+03 -0.27868570269E+03  0.42104423151E+03  0.00000000000E+00 0.  1.
          4    1    6    6  503    0 -0.17190611930E+03  0.94497412580E+02 -0.34224955657E+03  0.39448223510E+03  0.00000000000E+00 0. -1.
         -4    1    6    6    0  503 -0.20573556371E+03  0.18175220558E+03 -0.32540308002E+03  0.42573248748E+03  0.00000000000E+00 0.  1.
<mgrwt>
<rscale>  0 0.13799243E+04</rscale>
<asrwt>0</asrwt>
<pdfrwt beam="1">  1        2 0.21335289E+00 0.13799243E+04</pdfrwt>
<pdfrwt beam="2">  1       -1 0.52811107E-01 0.13799243E+04</pdfrwt>
<totfact> 0.59114328E+01</totfact>
</mgrwt>
</event>
<event>
12    6  0.1510140E-007  0.1207693E+04  0.7818608E-02  0.9106149E-01
         -1   -1    0    0    0  501 -0.00000000000E+00  0.00000000000E+00  0.21349456659E+03  0.21349456659E+03  0.00000000000E+00 0.  1.
          2   -1    0    0  501    0  0.00000000000E+00 -0.00000000000E+00 -0.17079155436E+04  0.17079155436E+04  0.00000000000E+00 0. -1.
         24    2    1    2    0    0  0.27152633125E+03  0.47264359945E+02 -0.46654028791E+03  0.54796108422E+03  0.81492584260E+02 0.  0.
        254    2    1    2    0    0 -0.27152633125E+03 -0.47264359945E+02 -0.10278806891E+04  0.13734490260E+04  0.86825287080E+03 0.  0.
         23    2    4    4    0    0 -0.46615470382E+03 -0.77713362527E+02 -0.20459472710E+03  0.52238294523E+03  0.87666210731E+02 0.  0.
         23    2    4    4    0    0  0.19462837257E+03  0.30449002582E+02 -0.82328596201E+03  0.85106608075E+03  0.87785838293E+02 0.  0.
          2    1    3    3  502    0  0.74856726356E+02 -0.60328408748E+01 -0.72659222242E+02  0.10449539333E+03  0.00000000000E+00 0. -1.
         -1    1    3    3    0  502  0.19666960490E+03  0.53297200819E+02 -0.39388106567E+03  0.44346569089E+03  0.00000000000E+00 0.  1.
         11    1    5    5    0    0 -0.14496678198E+02 -0.13337811876E+02  0.49915900808E+01  0.20321586453E+02  0.00000000000E+00 0. -1.
        -11    1    5    5    0    0 -0.45165802562E+03 -0.64375550651E+02 -0.20958631718E+03  0.50206135878E+03  0.00000000000E+00 0.  1.
          1    1    6    6  503    0  0.26328830887E+02  0.22961389764E+02 -0.28237841804E+03  0.28453119992E+03  0.00000000000E+00 0. -1.
         -1    1    6    6    0  503  0.16829954168E+03  0.74876128188E+01 -0.54090754397E+03  0.56653488083E+03  0.00000000000E+00 0.  1.
<mgrwt>
<rscale>  0 0.12076932E+04</rscale>
<asrwt>0</asrwt>
<pdfrwt beam="1">  1        2 0.26275624E+00 0.12076932E+04</pdfrwt>
<pdfrwt beam="2">  1       -1 0.32845318E-01 0.12076932E+04</pdfrwt>
<totfact> 0.94813513E+01</totfact>
</mgrwt>
</event>
<event>
12    6  0.1510140E-007  0.1140360E+04  0.7818608E-02  0.9166723E-01
          2   -1    0    0  501    0  0.00000000000E+00  0.00000000000E+00  0.20418011364E+04  0.20418011364E+04  0.00000000000E+00 0. -1.
         -1   -1    0    0    0  501 -0.00000000000E+00 -0.00000000000E+00 -0.15922484513E+03  0.15922484513E+03  0.00000000000E+00 0.  1.
         24    2    1    2    0    0  0.71005430570E+02  0.95788945372E+02  0.69827325649E+03  0.71275442236E+03  0.78841820372E+02 0.  0.
        254    2    1    2    0    0 -0.71005430570E+02 -0.95788945372E+02  0.11843030348E+04  0.14882715592E+04  0.89339871416E+03 0.  0.
         23    2    4    4    0    0 -0.39513898042E+03 -0.44342605787E+02  0.21509103484E+03  0.46089953471E+03  0.89795029337E+02 0.  0.
         23    2    4    4    0    0  0.32413354985E+03 -0.51446339586E+02  0.96921199998E+03  0.10273720245E+04  0.91717456546E+02 0.  0.
          4    1    3    3  502    0  0.84189968977E+02  0.59752566399E+02  0.54936860695E+03  0.55898496077E+03  0.00000000000E+00 0. -1.
         -3    1    3    3    0  502 -0.13184538407E+02  0.36036378974E+02  0.14890464954E+03  0.15376946159E+03  0.00000000000E+00 0.  1.
         11    1    5    5    0    0 -0.11620363031E+02  0.34483686644E+00 -0.87898251581E+01  0.14574387662E+02  0.00000000000E+00 0.  1.
        -11    1    5    5    0    0 -0.38351861739E+03 -0.44687442653E+02  0.22388085999E+03  0.44632514705E+03  0.00000000000E+00 0. -1.
          3    1    6    6  503    0  0.32482595862E+03 -0.39558495466E+02  0.91183438678E+03  0.96877176202E+03  0.00000000000E+00 0. -1.
         -3    1    6    6    0  503 -0.69240877144E+00 -0.11887844119E+02  0.57377613197E+02  0.58600262490E+02  0.00000000000E+00 0.  1.
<mgrwt>
<rscale>  0 0.11403604E+04</rscale>
<asrwt>0</asrwt>
<pdfrwt beam="1">  1        2 0.31412323E+00 0.11403604E+04</pdfrwt>
<pdfrwt beam="2">  1       -1 0.24496131E-01 0.11403604E+04</pdfrwt>
<totfact> 0.10385960E+02</totfact>
</mgrwt>
</event>
<event>
12    6  0.1510140E-007  0.1253544E+04  0.7818608E-02  0.9067238E-01
          2   -1    0    0  501    0  0.00000000000E+00  0.00000000000E+00  0.13039056614E+04  0.13039056614E+04  0.00000000000E+00 0. -1.
         -1   -1    0    0    0  501 -0.00000000000E+00 -0.00000000000E+00 -0.30128204404E+03  0.30128204404E+03  0.00000000000E+00 0.  1.
         24    2    1    2    0    0 -0.83190329185E+02  0.27903702279E+03  0.23354484490E+03  0.38338899175E+03  0.87530757200E+02 0.  0.
        254    2    1    2    0    0  0.83190329185E+02 -0.27903702279E+03  0.76907877250E+03  0.12217987137E+04  0.90361919392E+03 0.  0.
         23    2    4    4    0    0  0.41319497134E+03 -0.26921069988E+03  0.71754968902E+03  0.87550797564E+03  0.91826869242E+02 0.  0.
         23    2    4    4    0    0 -0.33000464216E+03 -0.98263229112E+01  0.51529083482E+02  0.34629073810E+03  0.90897790859E+02 0.  0.
          2    1    3    3  502    0  0.49940590241E+01  0.96271017597E+01 -0.58767523682E+01  0.12335231341E+02  0.00000000000E+00 0. -1.
         -1    1    3    3    0  502 -0.88184388209E+02  0.26940992103E+03  0.23942159726E+03  0.37105376040E+03  0.00000000000E+00 0.  1.
         11    1    5    5    0    0  0.28650774401E+03 -0.22363792658E+03  0.56749121837E+03  0.67390421612E+03  0.00000000000E+00 0. -1.
        -11    1    5    5    0    0  0.12668722733E+03 -0.45572773297E+02  0.15005847066E+03  0.20160375951E+03  0.00000000000E+00 0.  1.
          3    1    6    6  503    0 -0.20511422546E+03  0.27328601421E+02  0.60763522033E+02  0.21566386705E+03  0.00000000000E+00 0. -1.
         -3    1    6    6    0  503 -0.12489041670E+03 -0.37154924332E+02 -0.92344385512E+01  0.13062687105E+03  0.00000000000E+00 0.  1.
<mgrwt>
<rscale>  0 0.12535444E+04</rscale>
<asrwt>0</asrwt>
<pdfrwt beam="1">  1        2 0.20060087E+00 0.12535444E+04</pdfrwt>
<pdfrwt beam="2">  1       -1 0.46351084E-01 0.12535444E+04</pdfrwt>
<totfact> 0.85359021E+01</totfact>
</mgrwt>
</event>
<event>
12    6  0.1510140E-007  0.1661064E+04  0.7818608E-02  0.8783888E-01
         -1   -1    0    0    0  501 -0.00000000000E+00  0.00000000000E+00  0.12983359334E+04  0.12983359334E+04  0.00000000000E+00 0.  1.
          2   -1    0    0  501    0  0.00000000000E+00 -0.00000000000E+00 -0.53128249829E+03  0.53128249829E+03  0.00000000000E+00 0. -1.
         24    2    1    2    0    0  0.47452259807E+03  0.27736501528E+03  0.55361999846E+02  0.55820898077E+03  0.80182712621E+02 0.  0.
        254    2    1    2    0    0 -0.47452259807E+03 -0.27736501528E+03  0.71169143522E+03  0.12714094509E+04  0.89881824917E+03 0.  0.
         23    2    4    4    0    0 -0.12427604347E+03 -0.48378141431E+03  0.79954029022E+02  0.51467789206E+03  0.94929942587E+02 0.  0.
         23    2    4    4    0    0 -0.35024655461E+03  0.20641639903E+03  0.63173740620E+03  0.75673155883E+03  0.90940216247E+02 0.  0.
          4    1    3    3  502    0 -0.28803804613E+01  0.10953227723E+01 -0.19726002522E+01  0.36588899044E+01  0.00000000000E+00 0. -1.
         -3    1    3    3    0  502  0.47740297854E+03  0.27626969251E+03  0.57334600099E+02  0.55455009087E+03  0.00000000000E+00 0.  1.
         11    1    5    5    0    0 -0.12996752457E+03 -0.34714648592E+03  0.44024173118E+02  0.37328322751E+03  0.00000000000E+00 0.  1.
        -11    1    5    5    0    0  0.56914810991E+01 -0.13663492840E+03  0.35929855904E+02  0.14139466454E+03  0.00000000000E+00 0. -1.
          3    1    6    6  503    0 -0.12595702260E+01  0.21677379057E+02  0.31648264363E+02  0.38381088014E+02  0.00000000000E+00 0. -1.
         -3    1    6    6    0  503 -0.34898698438E+03  0.18473901998E+03  0.60008914184E+03  0.71835047082E+03  0.00000000000E+00 0.  1.
<mgrwt>
<rscale>  0 0.16610637E+04</rscale>
<asrwt>0</asrwt>
<pdfrwt beam="1">  1        2 0.81735769E-01 0.16610637E+04</pdfrwt>
<pdfrwt beam="2">  1       -1 0.19974399E+00 0.16610637E+04</pdfrwt>
<totfact> 0.94521027E+00</totfact>
</mgrwt>
</event>
<event>
12    6  0.1510140E-007  0.2756554E+04  0.7818608E-02  0.8316885E-01
         -1   -1    0    0    0  501 -0.00000000000E+00  0.00000000000E+00  0.47248877011E+03  0.47248877011E+03  0.00000000000E+00 0.  1.
          2   -1    0    0  501    0  0.00000000000E+00 -0.00000000000E+00 -0.40205132801E+04  0.40205132801E+04  0.00000000000E+00 0. -1.
         24    2    1    2    0    0  0.46314705970E+03 -0.64903755008E+03 -0.59975897973E+02  0.80330341021E+03  0.77099417638E+02 0.  0.
        254    2    1    2    0    0 -0.46314705970E+03  0.64903755008E+03 -0.34880486121E+04  0.36896986400E+04  0.90090953699E+03 0.  0.
         23    2    4    4    0    0  0.97907618456E+02  0.68933523120E+02 -0.19006412373E+04  0.19065917821E+04  0.91199661536E+02 0.  0.
         23    2    4    4    0    0 -0.56105467816E+03  0.58010402696E+03 -0.15874073747E+04  0.17831068579E+04  0.91131001230E+02 0.  0.
          4    1    3    3  502    0  0.79968499325E+02 -0.72776836272E+02 -0.21234288961E+02  0.11019221302E+03  0.00000000000E+00 0. -1.
         -3    1    3    3    0  502  0.38317856038E+03 -0.57626071381E+03 -0.38741609012E+02  0.69311119720E+03  0.00000000000E+00 0.  1.
         11    1    5    5    0    0  0.67613029713E+02  0.45808503160E+02 -0.17217456171E+04  0.17236814992E+04  0.00000000000E+00 0. -1.
        -11    1    5    5    0    0  0.30294588743E+02  0.23125019960E+02 -0.17889562028E+03  0.18291028295E+03  0.00000000000E+00 0.  1.
          3    1    6    6  503    0 -0.31722743540E+03  0.36595687709E+03 -0.87009348498E+03  0.99580136286E+03  0.00000000000E+00 0. -1.
         -3    1    6    6    0  503 -0.24382724276E+03  0.21414714986E+03 -0.71731388973E+03  0.78730549503E+03  0.00000000000E+00 0.  1.
<mgrwt>
<rscale>  0 0.27565539E+04</rscale>
<asrwt>0</asrwt>
<pdfrwt beam="1">  1        2 0.61854048E+00 0.27565539E+04</pdfrwt>
<pdfrwt beam="2">  1       -1 0.72690583E-01 0.27565539E+04</pdfrwt>
<totfact> 0.62435164E-01</totfact>
</mgrwt>
</event>
<event>
12    6  0.1619208E-007  0.2085232E+04  0.7818608E-02  0.8567777E-01
          2   -1    0    0  501    0  0.00000000000E+00  0.00000000000E+00  0.12945680765E+04  0.12945680765E+04  0.00000000000E+00 0. -1.
         -1   -1    0    0    0  501 -0.00000000000E+00 -0.00000000000E+00 -0.83969938797E+03  0.83969938797E+03  0.00000000000E+00 0.  1.
         24    2    1    2    0    0 -0.44687724279E+03 -0.19527200727E+03  0.89633131153E+03  0.10234841633E+04  0.79243835869E+02 0.  0.
        254    2    1    2    0    0  0.44687724279E+03  0.19527200727E+03 -0.44146262298E+03  0.11107833012E+04  0.89505299720E+03 0.  0.
         23    2    4    4    0    0  0.63574644933E+02  0.17437683451E+03  0.24413767730E+03  0.31974496839E+03  0.90468908683E+02 0.  0.
         23    2    4    4    0    0  0.38330259785E+03  0.20895172757E+02 -0.68560030028E+03  0.79103833281E+03  0.91303792203E+02 0.  0.
          4    1    3    3  502    0 -0.41532957912E+03 -0.16491565722E+03  0.84603269589E+03  0.95680047858E+03  0.00000000000E+00 0. -1.
         -3    1    3    3    0  502 -0.31547663667E+02 -0.30356350048E+02  0.50298615638E+02  0.66683684707E+02  0.00000000000E+00 0.  1.
         11    1    5    5    0    0 -0.12867353406E+02  0.80908780754E+02  0.12955630264E+03  0.15328612182E+03  0.00000000000E+00 0.  1.
        -11    1    5    5    0    0  0.76441998339E+02  0.93468053758E+02  0.11458137466E+03  0.16645884657E+03  0.00000000000E+00 0. -1.
          2    1    6    6  503    0  0.29219297480E+03  0.12023134417E+02 -0.59102071611E+03  0.65941396494E+03  0.00000000000E+00 0. -1.
         -2    1    6    6    0  503  0.91109623051E+02  0.88720383406E+01 -0.94579584173E+02  0.13162436788E+03  0.00000000000E+00 0.  1.
<mgrwt>
<rscale>  0 0.20852319E+04</rscale>
<asrwt>0</asrwt>
<pdfrwt beam="1">  1        2 0.19916432E+00 0.20852319E+04</pdfrwt>
<pdfrwt beam="2">  1       -1 0.12918452E+00 0.20852319E+04</pdfrwt>
<totfact> 0.90247660E+00</totfact>
</mgrwt>
</event>
<event>
12    6  0.1510140E-007  0.1888939E+04  0.7818608E-02  0.8660382E-01
         -1   -1    0    0    0  501 -0.00000000000E+00  0.00000000000E+00  0.36838887967E+03  0.36838887967E+03  0.00000000000E+00 0.  1.
          2   -1    0    0  501    0  0.00000000000E+00 -0.00000000000E+00 -0.24214144756E+04  0.24214144756E+04  0.00000000000E+00 0. -1.
         24    2    1    2    0    0  0.14411732607E+03  0.55609240764E+03 -0.14589961971E+04  0.15700379433E+04  0.79628329550E+02 0.  0.
        254    2    1    2    0    0 -0.14411732607E+03 -0.55609240764E+03 -0.59402939881E+03  0.12197654119E+04  0.89718903468E+03 0.  0.
         23    2    4    4    0    0  0.90823002248E+02 -0.48847747775E+03  0.66734461587E+02  0.50938184312E+03  0.90317826163E+02 0.  0.
         23    2    4    4    0    0 -0.23494032831E+03 -0.67614929889E+02 -0.66076386040E+03  0.71038356880E+03  0.90924138720E+02 0.  0.
          4    1    3    3  502    0  0.11285383077E+03  0.51368232010E+03 -0.13541740243E+04  0.14527191061E+04  0.00000000000E+00 0. -1.
         -3    1    3    3    0  502  0.31263495295E+02  0.42410087540E+02 -0.10482217274E+03  0.11731883720E+03  0.00000000000E+00 0.  1.
         11    1    5    5    0    0  0.74017749230E+02 -0.33378372140E+03  0.48581088908E+01  0.34192660191E+03  0.00000000000E+00 0. -1.
        -11    1    5    5    0    0  0.16805253019E+02 -0.15469375635E+03  0.61876352696E+02  0.16745524120E+03  0.00000000000E+00 0.  1.
          3    1    6    6  503    0 -0.22077471527E+03 -0.39028722454E+02 -0.52400253232E+03  0.56995032236E+03  0.00000000000E+00 0. -1.
         -3    1    6    6    0  503 -0.14165613042E+02 -0.28586207435E+02 -0.13676132808E+03  0.14043324645E+03  0.00000000000E+00 0.  1.
<mgrwt>
<rscale>  0 0.18889385E+04</rscale>
<asrwt>0</asrwt>
<pdfrwt beam="1">  1        2 0.37252532E+00 0.18889385E+04</pdfrwt>
<pdfrwt beam="2">  1       -1 0.56675210E-01 0.18889385E+04</pdfrwt>
<totfact> 0.13005008E+01</totfact>
</mgrwt>
</event>
<event>
12    6  0.1510140E-007  0.1460290E+04  0.7818608E-02  0.8911298E-01
          2   -1    0    0  501    0  0.00000000000E+00  0.00000000000E+00  0.24883201228E+04  0.24883201228E+04  0.00000000000E+00 0. -1.
         -1   -1    0    0    0  501 -0.00000000000E+00 -0.00000000000E+00 -0.21424555144E+03  0.21424555144E+03  0.00000000000E+00 0.  1.
         24    2    1    2    0    0  0.32321909594E+03 -0.30363584002E+03  0.76699711136E+03  0.88963000085E+03  0.80570852359E+02 0.  0.
        254    2    1    2    0    0 -0.32321909594E+03  0.30363584002E+03  0.15070774600E+04  0.18129356734E+04  0.90486903917E+03 0.  0.
         23    2    4    4    0    0 -0.50330569375E+03  0.12839123383E+03  0.36755487109E+03  0.64240631341E+03  0.88251673989E+02 0.  0.
         23    2    4    4    0    0  0.18008659781E+03  0.17524460619E+03  0.11395225889E+04  0.11705293600E+04  0.92116215771E+02 0.  0.
          2    1    3    3  502    0  0.63410712780E+02 -0.51300338671E+02  0.20949254611E+03  0.22481052048E+03  0.00000000000E+00 0. -1.
         -1    1    3    3    0  502  0.25980838316E+03 -0.25233550135E+03  0.55750456524E+03  0.66481948037E+03  0.00000000000E+00 0.  1.
         11    1    5    5    0    0 -0.30917406178E+03  0.11751453750E+03  0.25591260450E+03  0.41819795330E+03  0.00000000000E+00 0. -1.
        -11    1    5    5    0    0 -0.19413163197E+03  0.10876696331E+02  0.11164226659E+03  0.22420836011E+03  0.00000000000E+00 0.  1.
          1    1    6    6  503    0  0.29936345553E+01  0.43448780684E+02  0.12826036244E+03  0.13545286621E+03  0.00000000000E+00 0. -1.
         -1    1    6    6    0  503  0.17709296325E+03  0.13179582551E+03  0.10112622265E+04  0.10350764938E+04  0.00000000000E+00 0.  1.
<mgrwt>
<rscale>  0 0.14602897E+04</rscale>
<asrwt>0</asrwt>
<pdfrwt beam="1">  1        2 0.38281846E+00 0.14602897E+04</pdfrwt>
<pdfrwt beam="2">  1       -1 0.32960856E-01 0.14602897E+04</pdfrwt>
<totfact> 0.33813227E+01</totfact>
</mgrwt>
</event>
<event>
12    6  0.1510140E-007  0.2563472E+04  0.7818608E-02  0.8380716E-01
         -1   -1    0    0    0  501 -0.00000000000E+00  0.00000000000E+00  0.80018313758E+03  0.80018313758E+03  0.00000000000E+00 0.  1.
          2   -1    0    0  501    0  0.00000000000E+00 -0.00000000000E+00 -0.20530892326E+04  0.20530892326E+04  0.00000000000E+00 0. -1.
         24    2    1    2    0    0  0.35523625073E+03 -0.78688547155E+03  0.24602968676E+03  0.90125091508E+03  0.79630810633E+02 0.  0.
        254    2    1    2    0    0 -0.35523625073E+03  0.78688547155E+03 -0.14989357818E+04  0.19520214551E+04  0.90454283704E+03 0.  0.
         23    2    4    4    0    0  0.75835266934E+02  0.37767605479E+03 -0.72505296264E+02  0.40365070812E+03  0.96367453593E+02 0.  0.
         23    2    4    4    0    0 -0.43107151766E+03  0.40920941676E+03 -0.14264304855E+04  0.15483707469E+04  0.97329542961E+02 0.  0.
          4    1    3    3  502    0  0.11818723080E+03 -0.32197640232E+03  0.12896102157E+03  0.36642594103E+03  0.00000000000E+00 0. -1.
         -3    1    3    3    0  502  0.23704901993E+03 -0.46490906923E+03  0.11706866520E+03  0.53482497405E+03  0.00000000000E+00 0.  1.
         11    1    5    5    0    0  0.74312974366E+02  0.19022574647E+03 -0.70913794863E+02  0.21618746282E+03  0.00000000000E+00 0.  1.
        -11    1    5    5    0    0  0.15222925679E+01  0.18745030831E+03 -0.15915014008E+01  0.18746324530E+03  0.00000000000E+00 0. -1.
          4    1    6    6  503    0 -0.16293187071E+02  0.32926923340E+02 -0.47444730959E+02  0.60005439098E+02  0.00000000000E+00 0. -1.
         -4    1    6    6    0  503 -0.41477833059E+03  0.37628249342E+03 -0.13789857545E+04  0.14883653079E+04  0.00000000000E+00 0.  1.
<mgrwt>
<rscale>  0 0.25634722E+04</rscale>
<asrwt>0</asrwt>
<pdfrwt beam="1">  1        2 0.31585987E+00 0.25634722E+04</pdfrwt>
<pdfrwt beam="2">  1       -1 0.12310510E+00 0.25634722E+04</pdfrwt>
<totfact> 0.36618917E+00</totfact>
</mgrwt>
</event>
<event>
12    6  0.1510140E-007  0.2802850E+04  0.7818608E-02  0.8302384E-01
         -1   -1    0    0    0  501 -0.00000000000E+00  0.00000000000E+00  0.10159215387E+04  0.10159215387E+04  0.00000000000E+00 0.  1.
          2   -1    0    0  501    0  0.00000000000E+00 -0.00000000000E+00 -0.19332123734E+04  0.19332123734E+04  0.00000000000E+00 0. -1.
         24    2    1    2    0    0  0.16330989925E+03 -0.96422645062E+03 -0.12299609782E+04  0.15733587502E+04  0.79063123557E+02 0.  0.
        254    2    1    2    0    0 -0.16330989925E+03  0.96422645062E+03  0.31267014348E+03  0.13757751619E+04  0.91574663871E+03 0.  0.
         23    2    4    4    0    0 -0.40499997372E+02 -0.73724862698E+02 -0.17826320283E+03  0.21757783893E+03  0.92123511337E+02 0.  0.
         23    2    4    4    0    0 -0.12280990188E+03  0.10379513133E+04  0.49093334631E+03  0.11581973230E+04  0.89332455952E+02 0.  0.
          4    1    3    3  502    0  0.11610795585E+03 -0.83331859247E+03 -0.10352690771E+04  0.13340475988E+04  0.00000000000E+00 0. -1.
         -3    1    3    3    0  502  0.47201943410E+02 -0.13090785815E+03 -0.19469190114E+03  0.23931115134E+03  0.00000000000E+00 0.  1.
         11    1    5    5    0    0 -0.48360567584E+02 -0.92058875455E+02 -0.13962383994E+03  0.17409307203E+03  0.00000000000E+00 0. -1.
        -11    1    5    5    0    0  0.78605702121E+01  0.18334012758E+02 -0.38639362891E+02  0.43484766902E+02  0.00000000000E+00 0.  1.
          1    1    6    6  503    0 -0.83300236942E+02  0.92540862483E+03  0.42268302139E+03  0.10207747004E+04  0.00000000000E+00 0. -1.
         -1    1    6    6    0  503 -0.39509664941E+02  0.11254268849E+03  0.68250324918E+02  0.13742262262E+03  0.00000000000E+00 0.  1.
<mgrwt>
<rscale>  0 0.28028500E+04</rscale>
<asrwt>0</asrwt>
<pdfrwt beam="1">  1        2 0.29741729E+00 0.28028500E+04</pdfrwt>
<pdfrwt beam="2">  1       -1 0.15629562E+00 0.28028500E+04</pdfrwt>
<totfact> 0.22467220E+00</totfact>
</mgrwt>
</event>
<event>
12    6  0.1510140E-007  0.1298787E+04  0.7818608E-02  0.9030527E-01
          2   -1    0    0  501    0  0.00000000000E+00  0.00000000000E+00  0.24679470989E+04  0.24679470989E+04  0.00000000000E+00 0. -1.
         -1   -1    0    0    0  501 -0.00000000000E+00 -0.00000000000E+00 -0.17087567546E+03  0.17087567546E+03  0.00000000000E+00 0.  1.
         24    2    1    2    0    0 -0.18559307122E+03 -0.92836654096E+02  0.62991510358E+02  0.23119713585E+03  0.80129600140E+02 0.  0.
        254    2    1    2    0    0  0.18559307122E+03  0.92836654096E+02  0.22340799131E+04  0.24076256385E+04  0.87320371322E+03 0.  0.
         23    2    4    4    0    0  0.19169692158E+03 -0.25103962550E+03  0.31427233953E+03  0.45500162729E+03  0.92145396690E+02 0.  0.
         23    2    4    4    0    0 -0.61038503548E+01  0.34387627959E+03  0.19198075736E+04  0.19526240112E+04  0.93761703818E+02 0.  0.
          2    1    3    3  502    0 -0.41369679547E+02  0.12839905737E+02  0.72889697839E+01  0.43925421405E+02  0.00000000000E+00 0. -1.
         -1    1    3    3    0  502 -0.14422339167E+03 -0.10567655983E+03  0.55702540574E+02  0.18727171444E+03  0.00000000000E+00 0.  1.
         11    1    5    5    0    0  0.10666676615E+03 -0.19469700693E+03  0.25044359373E+03  0.33467404612E+03  0.00000000000E+00 0. -1.
        -11    1    5    5    0    0  0.85030155430E+02 -0.56342618574E+02  0.63828745803E+02  0.12032758117E+03  0.00000000000E+00 0.  1.
          3    1    6    6  503    0 -0.81056829357E+01  0.43170244073E+02  0.11830825881E+03  0.12619911320E+03  0.00000000000E+00 0. -1.
         -3    1    6    6    0  503  0.20018325809E+01  0.30070603552E+03  0.18014993147E+04  0.18264248980E+04  0.00000000000E+00 0.  1.
<mgrwt>
<rscale>  0 0.12987873E+04</rscale>
<asrwt>0</asrwt>
<pdfrwt beam="1">  1        2 0.37968414E+00 0.12987873E+04</pdfrwt>
<pdfrwt beam="2">  1       -1 0.26288567E-01 0.12987873E+04</pdfrwt>
<totfact> 0.52337004E+01</totfact>
</mgrwt>
</event>
<event>
12    6  0.1510140E-007  0.1726331E+04  0.7818608E-02  0.8746488E-01
          2   -1    0    0  501    0  0.00000000000E+00  0.00000000000E+00  0.16883746436E+04  0.16883746436E+04  0.00000000000E+00 0. -1.
         -1   -1    0    0    0  501 -0.00000000000E+00 -0.00000000000E+00 -0.44128534553E+03  0.44128534553E+03  0.00000000000E+00 0.  1.
         24    2    1    2    0    0 -0.34901697715E+03  0.99689023254E+02  0.10613207882E+04  0.11246119203E+04  0.81236715665E+02 0.  0.
        254    2    1    2    0    0  0.34901697715E+03 -0.99689023254E+02  0.18576850983E+03  0.10050480689E+04  0.91861903408E+03 0.  0.
         23    2    4    4    0    0  0.22338956331E+03  0.37515765672E+03  0.23337108577E+03  0.50269420096E+03  0.87139150848E+02 0.  0.
         23    2    4    4    0    0  0.12562741384E+03 -0.47484667998E+03 -0.47602575935E+02  0.50235386790E+03  0.93977586531E+02 0.  0.
          2    1    3    3  502    0 -0.29159791057E+03  0.95229753832E+02  0.79485160988E+03  0.85199009923E+03  0.00000000000E+00 0. -1.
         -1    1    3    3    0  502 -0.57419066583E+02  0.44592694218E+01  0.26646917836E+03  0.27262182104E+03  0.00000000000E+00 0.  1.
         11    1    5    5    0    0  0.95849962232E+02  0.21311689641E+03  0.16256734635E+03  0.28466501172E+03  0.00000000000E+00 0.  1.
        -11    1    5    5    0    0  0.12753960108E+03  0.16204076031E+03  0.70803739415E+02  0.21802918924E+03  0.00000000000E+00 0. -1.
          1    1    6    6  503    0  0.83923404598E+02 -0.39991431844E+03 -0.10083709644E+02  0.40874965582E+03  0.00000000000E+00 0. -1.
         -1    1    6    6    0  503  0.41704009241E+02 -0.74932361539E+02 -0.37518866292E+02  0.93604212087E+02  0.00000000000E+00 0.  1.
<mgrwt>
<rscale>  0 0.17263314E+04</rscale>
<asrwt>0</asrwt>
<pdfrwt beam="1">  1        2 0.25974994E+00 0.17263314E+04</pdfrwt>
<pdfrwt beam="2">  1       -1 0.67890054E-01 0.17263314E+04</pdfrwt>
<totfact> 0.23653741E+01</totfact>
</mgrwt>
</event>
<event>
12    6  0.1510140E-007  0.1892581E+04  0.7818608E-02  0.8658558E-01
          2   -1    0    0  501    0  0.00000000000E+00  0.00000000000E+00  0.64459992604E+03  0.64459992604E+03  0.00000000000E+00 0. -1.
         -1   -1    0    0    0  501 -0.00000000000E+00 -0.00000000000E+00 -0.13891804424E+04  0.13891804424E+04  0.00000000000E+00 0.  1.
         24    2    1    2    0    0 -0.10376704035E+03  0.34085371424E+03 -0.97933670447E+03  0.10451916089E+04  0.79851520431E+02 0.  0.
        254    2    1    2    0    0  0.10376704035E+03 -0.34085371424E+03  0.23475618812E+03  0.98858875958E+03  0.89176701807E+03 0.  0.
         23    2    4    4    0    0  0.30815463198E+03 -0.38186489719E+03  0.45328194408E+03  0.67414157927E+03  0.90676739896E+02 0.  0.
         23    2    4    4    0    0 -0.20438759163E+03  0.41011182947E+02 -0.21852575596E+03  0.31444718031E+03  0.87563225440E+02 0.  0.
          2    1    3    3  502    0 -0.63577690262E+02  0.13972775860E+03 -0.32436644638E+03  0.35885869191E+03  0.00000000000E+00 0. -1.
         -1    1    3    3    0  502 -0.40189350086E+02  0.20112595564E+03 -0.65497025809E+03  0.68633291694E+03  0.00000000000E+00 0.  1.
         11    1    5    5    0    0  0.15644062736E+03 -0.26257372808E+03  0.26528702475E+03  0.40471698515E+03  0.00000000000E+00 0. -1.
        -11    1    5    5    0    0  0.15171400461E+03 -0.11929116911E+03  0.18799491933E+03  0.26942459412E+03  0.00000000000E+00 0.  1.
          1    1    6    6  503    0 -0.12493454760E+03  0.56734253858E+02 -0.17537993833E+03  0.22267810740E+03  0.00000000000E+00 0. -1.
         -1    1    6    6    0  503 -0.79453044030E+02 -0.15723070911E+02 -0.43145817621E+02  0.91769072910E+02  0.00000000000E+00 0.  1.
<mgrwt>
<rscale>  0 0.18925809E+04</rscale>
<asrwt>0</asrwt>
<pdfrwt beam="1">  1        2 0.99169221E-01 0.18925809E+04</pdfrwt>
<pdfrwt beam="2">  1       -1 0.21372006E+00 0.18925809E+04</pdfrwt>
<totfact> 0.58963493E+00</totfact>
</mgrwt>
</event>
<event>
12    6  0.1510140E-007  0.1595470E+04  0.7818608E-02  0.8823336E-01
         -1   -1    0    0    0  501 -0.00000000000E+00  0.00000000000E+00  0.40523291600E+03  0.40523291600E+03  0.00000000000E+00 0.  1.
          2   -1    0    0  501    0  0.00000000000E+00 -0.00000000000E+00 -0.15704085208E+04  0.15704085208E+04  0.00000000000E+00 0. -1.
         24    2    1    2    0    0 -0.70404973740E+02  0.30951253413E+03 -0.10053848630E+04  0.10572207434E+04  0.78499097322E+02 0.  0.
        254    2    1    2    0    0  0.70404973740E+02 -0.30951253413E+03 -0.15979074177E+03  0.91842069344E+03  0.84688170359E+03 0.  0.
         23    2    4    4    0    0  0.91098052725E+02 -0.57416218703E+03  0.13818775937E+02  0.58779596927E+03  0.85744216661E+02 0.  0.
         23    2    4    4    0    0 -0.20693078985E+02  0.26464965290E+03 -0.17360951771E+03  0.33062472417E+03  0.93299524616E+02 0.  0.
          2    1    3    3  502    0 -0.78579930083E+02  0.18912557952E+03 -0.68058585070E+03  0.71073229167E+03  0.00000000000E+00 0. -1.
         -3    1    3    3    0  502  0.81749563431E+01  0.12038695461E+03 -0.32479901232E+03  0.34648845169E+03  0.00000000000E+00 0.  1.
         11    1    5    5    0    0  0.38253989855E+02 -0.24790854187E+03  0.48457402056E+02  0.25548020018E+03  0.00000000000E+00 0. -1.
        -11    1    5    5    0    0  0.52844062870E+02 -0.32625364517E+03 -0.34638626119E+02  0.33231576909E+03  0.00000000000E+00 0.  1.
          2    1    6    6  503    0  0.11979948296E+02  0.89118550564E+01 -0.34681323199E+02  0.37758899621E+02  0.00000000000E+00 0. -1.
         -2    1    6    6    0  503 -0.32673027281E+02  0.25573779785E+03 -0.13892819451E+03  0.29286582455E+03  0.00000000000E+00 0.  1.
<mgrwt>
<rscale>  0 0.15954701E+04</rscale>
<asrwt>0</asrwt>
<pdfrwt beam="1">  1        2 0.24160131E+00 0.15954701E+04</pdfrwt>
<pdfrwt beam="2">  1       -1 0.62343525E-01 0.15954701E+04</pdfrwt>
<totfact> 0.33045206E+01</totfact>
</mgrwt>
</event>
<event>
12    6  0.1510140E-007  0.1241919E+04  0.7818608E-02  0.9076936E-01
          2   -1    0    0  501    0  0.00000000000E+00  0.00000000000E+00  0.13088480358E+04  0.13088480358E+04  0.00000000000E+00 0. -1.
         -1   -1    0    0    0  501 -0.00000000000E+00 -0.00000000000E+00 -0.29460288290E+03  0.29460288290E+03  0.00000000000E+00 0.  1.
         24    2    1    2    0    0 -0.28069111587E+03  0.35703683669E+02  0.39834660034E+03  0.49517533966E+03  0.80351399800E+02 0.  0.
        254    2    1    2    0    0  0.28069111587E+03 -0.35703683669E+02  0.61589855252E+03  0.11082755790E+04  0.87685886919E+03 0.  0.
         23    2    4    4    0    0  0.46542299017E+03 -0.21798225369E+03  0.64692489129E+03  0.83136624512E+03  0.92321156028E+02 0.  0.
         23    2    4    4    0    0 -0.18473187430E+03  0.18227857002E+03 -0.31026338762E+02  0.27690933389E+03  0.91459297119E+02 0.  0.
          2    1    3    3  502    0 -0.25680906846E+03  0.29519701004E+02  0.39224169647E+03  0.46976149144E+03  0.00000000000E+00 0. -1.
         -1    1    3    3    0  502 -0.23882047412E+02  0.61839826649E+01  0.61049038714E+01  0.25413848223E+02  0.00000000000E+00 0.  1.
         11    1    5    5    0    0  0.20885199661E+03 -0.13791138073E+03  0.26676813050E+03  0.36579220996E+03  0.00000000000E+00 0.  1.
        -11    1    5    5    0    0  0.25657099356E+03 -0.80070872963E+02  0.38015676079E+03  0.46557403515E+03  0.00000000000E+00 0. -1.
          2    1    6    6  503    0 -0.13537690935E+03  0.89141439228E+02 -0.50385169808E+02  0.16974029901E+03  0.00000000000E+00 0. -1.
         -2    1    6    6    0  503 -0.49354964948E+02  0.93137130795E+02  0.19358831046E+02  0.10716903488E+03  0.00000000000E+00 0.  1.
<mgrwt>
<rscale>  0 0.12419185E+04</rscale>
<asrwt>0</asrwt>
<pdfrwt beam="1">  1        2 0.20136123E+00 0.12419185E+04</pdfrwt>
<pdfrwt beam="2">  1       -1 0.45323521E-01 0.12419185E+04</pdfrwt>
<totfact> 0.88501608E+01</totfact>
</mgrwt>
</event>
<event>
12    6  0.1510140E-007  0.2371373E+04  0.7818608E-02  0.8450300E-01
          2   -1    0    0  501    0  0.00000000000E+00  0.00000000000E+00  0.18980156633E+04  0.18980156633E+04  0.00000000000E+00 0. -1.
         -3   -1    0    0    0  501 -0.00000000000E+00 -0.00000000000E+00 -0.74069582129E+03  0.74069582129E+03  0.00000000000E+00 0.  1.
         24    2    1    2    0    0 -0.47056265259E+03 -0.45416703174E+03  0.13573774735E+04  0.15087535253E+04  0.78528285924E+02 0.  0.
        254    2    1    2    0    0  0.47056265259E+03  0.45416703174E+03 -0.20005763156E+03  0.11299579593E+04  0.89949154028E+03 0.  0.
         23    2    4    4    0    0  0.20211679347E+03  0.63651581814E+03 -0.35251290282E+03  0.76023594991E+03  0.87691321842E+02 0.  0.
         23    2    4    4    0    0  0.26844585912E+03 -0.18234878640E+03  0.15245527126E+03  0.36972200936E+03  0.90208066654E+02 0.  0.
          2    1    3    3  502    0 -0.43793915990E+03 -0.40228031304E+03  0.12662588451E+04  0.13989394629E+04  0.00000000000E+00 0. -1.
         -1    1    3    3    0  502 -0.32623492691E+02 -0.51886718698E+02  0.91118628369E+02  0.10981406234E+03  0.00000000000E+00 0.  1.
         11    1    5    5    0    0  0.16468517047E+03  0.39849598452E+03 -0.24974370104E+03  0.49828924457E+03  0.00000000000E+00 0. -1.
        -11    1    5    5    0    0  0.37431622995E+02  0.23801983363E+03 -0.10276920178E+03  0.26194670533E+03  0.00000000000E+00 0.  1.
          3    1    6    6  503    0  0.28997772212E+02 -0.48489118302E+02  0.54312423003E+02  0.78370304832E+02  0.00000000000E+00 0. -1.
         -3    1    6    6    0  503  0.23944808691E+03 -0.13385966810E+03  0.98142848261E+02  0.29135170453E+03  0.00000000000E+00 0.  1.
<mgrwt>
<rscale>  0 0.23713728E+04</rscale>
<asrwt>0</asrwt>
<pdfrwt beam="1">  1        2 0.29200241E+00 0.23713728E+04</pdfrwt>
<pdfrwt beam="2">  1       -3 0.11395320E+00 0.23713728E+04</pdfrwt>
<totfact> 0.27991904E+00</totfact>
</mgrwt>
</event>
<event>
12    6  0.1510140E-007  0.2715705E+04  0.7818608E-02  0.8329927E-01
          2   -1    0    0  501    0  0.00000000000E+00  0.00000000000E+00  0.35770673550E+04  0.35770673550E+04  0.00000000000E+00 0. -1.
         -1   -1    0    0    0  501 -0.00000000000E+00 -0.00000000000E+00 -0.51544003349E+03  0.51544003349E+03  0.00000000000E+00 0.  1.
         24    2    1    2    0    0 -0.65611589294E+03  0.10115596244E+04  0.14717585352E+04  0.19042450110E+04  0.79592319883E+02 0.  0.
        254    2    1    2    0    0  0.65611589294E+03 -0.10115596244E+04  0.15898687862E+04  0.21882623774E+04  0.89836993290E+03 0.  0.
         23    2    4    4    0    0  0.14773608319E+03 -0.75795236008E+03  0.41752798851E+03  0.88253580304E+03  0.90675752243E+02 0.  0.
         23    2    4    4    0    0  0.50837980976E+03 -0.25360726429E+03  0.11723407977E+04  0.13057265744E+04  0.88160453359E+02 0.  0.
          4    1    3    3  502    0 -0.38805342695E+03  0.53610954200E+03  0.77400988293E+03  0.10183762576E+04  0.00000000000E+00 0. -1.
         -3    1    3    3    0  502 -0.26806246600E+03  0.47545008237E+03  0.69774865231E+03  0.88586875343E+03  0.00000000000E+00 0.  1.
         11    1    5    5    0    0  0.60741824019E+02 -0.13354291833E+03  0.68244853237E+02  0.16180432694E+03  0.00000000000E+00 0. -1.
        -11    1    5    5    0    0  0.86994259169E+02 -0.62440944174E+03  0.34928313527E+03  0.72073147611E+03  0.00000000000E+00 0.  1.
          1    1    6    6  503    0  0.36046341993E+03 -0.14634919355E+03  0.85931328832E+03  0.94327688991E+03  0.00000000000E+00 0. -1.
         -1    1    6    6    0  503  0.14791638983E+03 -0.10725807075E+03  0.31302750941E+03  0.36244968447E+03  0.00000000000E+00 0.  1.
<mgrwt>
<rscale>  0 0.27157052E+04</rscale>
<asrwt>0</asrwt>
<pdfrwt beam="1">  1        2 0.55031804E+00 0.27157052E+04</pdfrwt>
<pdfrwt beam="2">  1       -1 0.79298469E-01 0.27157052E+04</pdfrwt>
<totfact> 0.11354020E+00</totfact>
</mgrwt>
</event>
<event>
12    6  0.1510140E-007  0.1809229E+04  0.7818608E-02  0.8701407E-01
          2   -1    0    0  501    0  0.00000000000E+00  0.00000000000E+00  0.78642028989E+03  0.78642028989E+03  0.00000000000E+00 0. -1.
         -1   -1    0    0    0  501 -0.00000000000E+00 -0.00000000000E+00 -0.10405722274E+04  0.10405722274E+04  0.00000000000E+00 0.  1.
         24    2    1    2    0    0 -0.59875136332E+03  0.31045474854E+03 -0.12447551415E+03  0.69037032086E+03  0.78940992701E+02 0.  0.
        254    2    1    2    0    0  0.59875136332E+03 -0.31045474854E+03 -0.12967642331E+03  0.11366221964E+04  0.90565373988E+03 0.  0.
         23    2    4    4    0    0  0.65534556036E+03  0.12788235216E+03 -0.12898900366E+03  0.68590015121E+03  0.89382072513E+02 0.  0.
         23    2    4    4    0    0 -0.56594197035E+02 -0.43833710070E+03 -0.68741965221E+00  0.45072204517E+03  0.88360468910E+02 0.  0.
          2    1    3    3  502    0 -0.57990567568E+03  0.30038132337E+03 -0.10502645643E+03  0.66147569015E+03  0.00000000000E+00 0. -1.
         -1    1    3    3    0  502 -0.18845687643E+02  0.10073425174E+02 -0.19449057720E+02  0.28894630707E+02  0.00000000000E+00 0.  1.
         11    1    5    5    0    0  0.97692801180E+01 -0.93959201643E+01 -0.97465662451E+00  0.13589411514E+02  0.00000000000E+00 0.  1.
        -11    1    5    5    0    0  0.64557628024E+03  0.13727827233E+03 -0.12801434704E+03  0.67231073969E+03  0.00000000000E+00 0. -1.
          3    1    6    6  503    0  0.23670164211E+02 -0.79095515100E+02 -0.29982460425E+01  0.82615777319E+02  0.00000000000E+00 0.  1.
         -3    1    6    6    0  503 -0.80264361246E+02 -0.35924158560E+03  0.23108263903E+01  0.36810626785E+03  0.00000000000E+00 0. -1.
<mgrwt>
<rscale>  0 0.18092287E+04</rscale>
<asrwt>0</asrwt>
<pdfrwt beam="1">  1        2 0.12098774E+00 0.18092287E+04</pdfrwt>
<pdfrwt beam="2">  1       -1 0.16008803E+00 0.18092287E+04</pdfrwt>
<totfact> 0.11073078E+01</totfact>
</mgrwt>
</event>
<event>
12    6  0.1510140E-007  0.2202824E+04  0.7818608E-02  0.8517254E-01
         -1   -1    0    0    0  501 -0.00000000000E+00  0.00000000000E+00  0.81343863684E+03  0.81343863684E+03  0.00000000000E+00 0.  1.
          2   -1    0    0  501    0  0.00000000000E+00 -0.00000000000E+00 -0.14913333916E+04  0.14913333916E+04  0.00000000000E+00 0. -1.
         24    2    1    2    0    0 -0.79969505979E+03  0.13556478857E+03 -0.74034692933E+03  0.11011655803E+04  0.81006536668E+02 0.  0.
        254    2    1    2    0    0  0.79969505979E+03 -0.13556478857E+03  0.62452174552E+02  0.12036064481E+04  0.88706155780E+03 0.  0.
         23    2    4    4    0    0  0.90386809598E+03 -0.16137729622E+03 -0.16388114729E+03  0.93715080601E+03  0.91511945163E+02 0.  0.
         23    2    4    4    0    0 -0.10417303619E+03  0.25812507648E+02  0.22633332185E+03  0.26645564212E+03  0.90848938459E+02 0.  0.
          2    1    3    3  502    0 -0.58508289546E+03  0.71555428896E+02 -0.50363230650E+03  0.77529844196E+03  0.00000000000E+00 0. -1.
         -1    1    3    3    0  502 -0.21461216433E+03  0.64009359677E+02 -0.23671462283E+03  0.32586713837E+03  0.00000000000E+00 0.  1.
         11    1    5    5    0    0  0.20183713420E+01 -0.10164126420E+01 -0.75871161528E+01  0.79165174824E+01  0.00000000000E+00 0. -1.
        -11    1    5    5    0    0  0.90184972463E+03 -0.16036088358E+03 -0.15629403114E+03  0.92923428853E+03  0.00000000000E+00 0.  1.
          1    1    6    6  503    0 -0.75638769304E+02  0.58792239450E+02  0.13867412048E+03  0.16854750823E+03  0.00000000000E+00 0. -1.
         -1    1    6    6    0  503 -0.28534266884E+02 -0.32979731802E+02  0.87659201366E+02  0.97908133883E+02  0.00000000000E+00 0.  1.
<mgrwt>
<rscale>  0 0.22028238E+04</rscale>
<asrwt>0</asrwt>
<pdfrwt beam="1">  1        2 0.22943591E+00 0.22028238E+04</pdfrwt>
<pdfrwt beam="2">  1       -1 0.12514441E+00 0.22028238E+04</pdfrwt>
<totfact> 0.74583023E+00</totfact>
</mgrwt>
</event>
<event>
12    6  0.1510140E-007  0.2303345E+04  0.7818608E-02  0.8476603E-01
         -1   -1    0    0    0  501 -0.00000000000E+00  0.00000000000E+00  0.12447234889E+04  0.12447234889E+04  0.00000000000E+00 0.  1.
          2   -1    0    0  501    0  0.00000000000E+00 -0.00000000000E+00 -0.10655778211E+04  0.10655778211E+04  0.00000000000E+00 0. -1.
         24    2    1    2    0    0  0.18286990514E+03  0.93238557854E+02  0.10537398744E+04  0.10763151689E+04  0.77147838740E+02 0.  0.
        254    2    1    2    0    0 -0.18286990514E+03 -0.93238557854E+02 -0.87459420665E+03  0.12339861410E+04  0.84597395880E+03 0.  0.
         23    2    4    4    0    0 -0.18395269865E+03 -0.35032334247E+03 -0.87143979336E+03  0.96147551289E+03  0.91993526020E+02 0.  0.
         23    2    4    4    0    0  0.10827935087E+01  0.25708478461E+03 -0.31544132932E+01  0.27251062809E+03  0.90323491848E+02 0.  0.
          2    1    3    3  502    0  0.59575562883E+02 -0.44090829650E+01  0.22577526372E+03  0.23354476533E+03  0.00000000000E+00 0. -1.
         -1    1    3    3    0  502  0.12329434225E+03  0.97647640819E+02  0.82796461073E+03  0.84277040362E+03  0.00000000000E+00 0.  1.
         11    1    5    5    0    0 -0.42651820657E+02 -0.23626275619E+02 -0.13478234781E+03  0.14333059683E+03  0.00000000000E+00 0. -1.
        -11    1    5    5    0    0 -0.14130087799E+03 -0.32669706685E+03 -0.73665744555E+03  0.81814491607E+03  0.00000000000E+00 0.  1.
          2    1    6    6  503    0  0.48966876323E+01  0.99645034228E+02 -0.45172687654E+02  0.10951567059E+03  0.00000000000E+00 0. -1.
         -2    1    6    6    0  503 -0.38138941235E+01  0.15743975039E+03  0.42018274361E+02  0.16299495750E+03  0.00000000000E+00 0.  1.
<mgrwt>
<rscale>  0 0.23033452E+04</rscale>
<asrwt>0</asrwt>
<pdfrwt beam="1">  1        2 0.16393505E+00 0.23033452E+04</pdfrwt>
<pdfrwt beam="2">  1       -1 0.19149592E+00 0.23033452E+04</pdfrwt>
<totfact> 0.40795008E+00</totfact>
</mgrwt>
</event>
<event>
12    6  0.1510140E-007  0.1789585E+04  0.7818608E-02  0.8711857E-01
          2   -1    0    0  501    0  0.00000000000E+00  0.00000000000E+00  0.11614253564E+04  0.11614253564E+04  0.00000000000E+00 0. -1.
         -1   -1    0    0    0  501 -0.00000000000E+00 -0.00000000000E+00 -0.68937192295E+03  0.68937192295E+03  0.00000000000E+00 0.  1.
         24    2    1    2    0    0 -0.24857085920E+03 -0.95247855431E+02  0.78400385865E+03  0.83174472208E+03  0.79231346796E+02 0.  0.
        254    2    1    2    0    0  0.24857085920E+03  0.95247855431E+02 -0.31195042518E+03  0.10190525573E+04  0.93289625402E+03 0.  0.
         23    2    4    4    0    0  0.14522591814E+03 -0.40572720484E+03 -0.68991464840E+02  0.44571026282E+03  0.90513447147E+02 0.  0.
         23    2    4    4    0    0  0.10334494106E+03  0.50097506028E+03 -0.24295896034E+03  0.57334229448E+03  0.89644533400E+02 0.  0.
          2    1    3    3  502    0 -0.24101228159E+03 -0.94059178905E+02  0.78221104742E+03  0.82388601865E+03  0.00000000000E+00 0. -1.
         -1    1    3    3    0  502 -0.75585776157E+01 -0.11886765267E+01  0.17928112239E+01  0.78587034262E+01  0.00000000000E+00 0.  1.
         11    1    5    5    0    0  0.15084827457E+03 -0.36017964752E+03 -0.79795818921E+02  0.39856235791E+03  0.00000000000E+00 0. -1.
        -11    1    5    5    0    0 -0.56223564327E+01 -0.45547557329E+02  0.10804354082E+02  0.47147904913E+02  0.00000000000E+00 0.  1.
          2    1    6    6  503    0  0.67663817047E+02  0.37216727183E+03 -0.13536834631E+03  0.40176045044E+03  0.00000000000E+00 0. -1.
         -2    1    6    6    0  503  0.35681124015E+02  0.12880778845E+03 -0.10759061403E+03  0.17158184404E+03  0.00000000000E+00 0.  1.
<mgrwt>
<rscale>  0 0.17895855E+04</rscale>
<asrwt>0</asrwt>
<pdfrwt beam="1">  1        2 0.17868082E+00 0.17895855E+04</pdfrwt>
<pdfrwt beam="2">  1       -1 0.10605722E+00 0.17895855E+04</pdfrwt>
<totfact> 0.17907218E+01</totfact>
</mgrwt>
</event>
<event>
12    6  0.1510140E-007  0.1727987E+04  0.7818608E-02  0.8745561E-01
         -1   -1    0    0    0  501 -0.00000000000E+00  0.00000000000E+00  0.10400516671E+04  0.10400516671E+04  0.00000000000E+00 0.  1.
          2   -1    0    0  501    0  0.00000000000E+00 -0.00000000000E+00 -0.71773809795E+03  0.71773809795E+03  0.00000000000E+00 0. -1.
         24    2    1    2    0    0 -0.39782365869E+03  0.48336315791E+03  0.96935861545E+02  0.63744227017E+03  0.70939979536E+02 0.  0.
        254    2    1    2    0    0  0.39782365869E+03 -0.48336315791E+03  0.22537770760E+03  0.11203474949E+04  0.90137660961E+03 0.  0.
         23    2    4    4    0    0 -0.17440638028E+03  0.10533296899E+03 -0.83050361417E+02  0.23823420592E+03  0.91354006490E+02 0.  0.
         23    2    4    4    0    0  0.57223003897E+03 -0.58869612691E+03  0.30842806901E+03  0.88211328895E+03  0.94792581244E+02 0.  0.
          4    1    3    3  502    0 -0.24171873087E+03  0.31785076572E+03  0.30785749007E+02  0.40050570092E+03  0.00000000000E+00 0. -1.
         -3    1    3    3    0  502 -0.15610492782E+03  0.16551239219E+03  0.66150112538E+02  0.23693656925E+03  0.00000000000E+00 0.  1.
         11    1    5    5    0    0  0.11010633449E+02  0.32363876666E+01 -0.24161001024E+01  0.11727991890E+02  0.00000000000E+00 0.  1.
        -11    1    5    5    0    0 -0.18541701373E+03  0.10209658133E+03 -0.80634261315E+02  0.22650621403E+03  0.00000000000E+00 0. -1.
          2    1    6    6  503    0  0.45035240309E+03 -0.50561616093E+03  0.23026987258E+03  0.71518473374E+03  0.00000000000E+00 0. -1.
         -2    1    6    6    0  503  0.12187763588E+03 -0.83079965974E+02  0.78158196433E+02  0.16692855521E+03  0.00000000000E+00 0.  1.
<mgrwt>
<rscale>  0 0.17279869E+04</rscale>
<asrwt>0</asrwt>
<pdfrwt beam="1">  1        2 0.11042125E+00 0.17279869E+04</pdfrwt>
<pdfrwt beam="2">  1       -1 0.16000795E+00 0.17279869E+04</pdfrwt>
<totfact> 0.12572772E+01</totfact>
</mgrwt>
</event>
<event>
12    6  0.1510140E-007  0.1272794E+04  0.7818608E-02  0.9051423E-01
          2   -1    0    0  501    0  0.00000000000E+00  0.00000000000E+00  0.90089904877E+03  0.90089904877E+03  0.00000000000E+00 0. -1.
         -1   -1    0    0    0  501 -0.00000000000E+00 -0.00000000000E+00 -0.44955195337E+03  0.44955195337E+03  0.00000000000E+00 0.  1.
         24    2    1    2    0    0  0.29810386069E+02 -0.25998479578E+03 -0.61369015179E+02  0.28207113412E+03  0.85540724378E+02 0.  0.
        254    2    1    2    0    0 -0.29810386069E+02  0.25998479578E+03  0.51271611058E+03  0.10683798680E+04  0.90004276521E+03 0.  0.
         23    2    4    4    0    0 -0.29993567051E+03  0.60725597540E+02  0.62666446837E+03  0.70322873200E+03  0.90406244018E+02 0.  0.
         23    2    4    4    0    0  0.27012528444E+03  0.19925919824E+03 -0.11394835779E+03  0.36515113603E+03  0.87631196054E+02 0.  0.
          4    1    3    3  502    0  0.56847080733E+02 -0.15952719772E+03 -0.21724285957E+02  0.17074092069E+03  0.00000000000E+00 0. -1.
         -3    1    3    3    0  502 -0.27036694664E+02 -0.10045759806E+03 -0.39644729221E+02  0.11133021343E+03  0.00000000000E+00 0.  1.
         11    1    5    5    0    0 -0.65688693361E+02 -0.21675115000E+02  0.16746779604E+03  0.18119127395E+03  0.00000000000E+00 0. -1.
        -11    1    5    5    0    0 -0.23424697715E+03  0.82400712541E+02  0.45919667233E+03  0.52203745805E+03  0.00000000000E+00 0.  1.
          1    1    6    6  503    0  0.46449390989E+02  0.67261080060E+02 -0.55888436464E+02  0.99020786426E+02  0.00000000000E+00 0. -1.
         -1    1    6    6    0  503  0.22367589345E+03  0.13199811818E+03 -0.58059921325E+02  0.26613034960E+03  0.00000000000E+00 0.  1.
<mgrwt>
<rscale>  0 0.12727937E+04</rscale>
<asrwt>0</asrwt>
<pdfrwt beam="1">  1        2 0.13859985E+00 0.12727937E+04</pdfrwt>
<pdfrwt beam="2">  1       -1 0.69161839E-01 0.12727937E+04</pdfrwt>
<totfact> 0.69413446E+01</totfact>
</mgrwt>
</event>
<event>
12    6  0.1510140E-007  0.2201693E+04  0.7818608E-02  0.8517724E-01
          2   -1    0    0  501    0  0.00000000000E+00  0.00000000000E+00  0.20529364928E+04  0.20529364928E+04  0.00000000000E+00 0. -1.
         -1   -1    0    0    0  501 -0.00000000000E+00 -0.00000000000E+00 -0.59030699520E+03  0.59030699520E+03  0.00000000000E+00 0.  1.
         24    2    1    2    0    0 -0.26967115665E+03  0.23058378155E+03  0.16274080039E+04  0.16675090051E+04  0.78981376801E+02 0.  0.
        254    2    1    2    0    0  0.26967115665E+03 -0.23058378155E+03 -0.16477850631E+03  0.97573448288E+03  0.89387606071E+03 0.  0.
         23    2    4    4    0    0  0.32773868982E+03  0.63473831053E+02 -0.43936471715E+03  0.55934113078E+03  0.91539990564E+02 0.  0.
         23    2    4    4    0    0 -0.58067533171E+02 -0.29405761260E+03  0.27458621084E+03  0.41639335210E+03  0.90244770205E+02 0.  0.
          4    1    3    3  502    0 -0.16741948098E+03  0.18413839842E+03  0.10302890583E+04  0.10599206461E+04  0.00000000000E+00 0. -1.
         -3    1    3    3    0  502 -0.10225167566E+03  0.46445383132E+02  0.59711894555E+03  0.60758835894E+03  0.00000000000E+00 0.  1.
         11    1    5    5    0    0  0.12466397200E+03  0.68246059953E+02 -0.20089459027E+03  0.24608386175E+03  0.00000000000E+00 0. -1.
        -11    1    5    5    0    0  0.20307471782E+03 -0.47722288997E+01 -0.23847012688E+03  0.31325726903E+03  0.00000000000E+00 0.  1.
          1    1    6    6  503    0 -0.35500814368E+02 -0.33959422161E+02  0.24639316733E+02  0.54960404869E+02  0.00000000000E+00 0. -1.
         -1    1    6    6    0  503 -0.22566718803E+02 -0.26009819044E+03  0.24994689411E+03  0.36143294723E+03  0.00000000000E+00 0.  1.
<mgrwt>
<rscale>  0 0.22016928E+04</rscale>
<asrwt>0</asrwt>
<pdfrwt beam="1">  1        2 0.31583638E+00 0.22016928E+04</pdfrwt>
<pdfrwt beam="2">  1       -1 0.90816461E-01 0.22016928E+04</pdfrwt>
<totfact> 0.76878845E+00</totfact>
</mgrwt>
</event>
<event>
12    6  0.1510140E-007  0.4047794E+04  0.7818608E-02  0.7994974E-01
         -1   -1    0    0    0  501 -0.00000000000E+00  0.00000000000E+00  0.17073481357E+04  0.17073481357E+04  0.00000000000E+00 0.  1.
          2   -1    0    0  501    0  0.00000000000E+00 -0.00000000000E+00 -0.23991352511E+04  0.23991352511E+04  0.00000000000E+00 0. -1.
         24    2    1    2    0    0 -0.42283750567E+03 -0.10507029132E+04  0.12441410679E+04  0.16843678876E+04  0.80249710255E+02 0.  0.
        254    2    1    2    0    0  0.42283750567E+03  0.10507029132E+04 -0.19359281833E+04  0.24221154993E+04  0.91436174076E+03 0.  0.
         23    2    4    4    0    0 -0.23521659580E+02 -0.14685202113E+03 -0.21916308877E+03  0.27986475209E+03  0.90404841683E+02 0.  0.
         23    2    4    4    0    0  0.44635916525E+03  0.11975549343E+04 -0.17167650945E+04  0.21422507472E+04  0.92636650143E+02 0.  0.
          2    1    3    3  502    0 -0.51156880816E+02 -0.20290537198E+03  0.24882423115E+03  0.32511707805E+03  0.00000000000E+00 0. -1.
         -1    1    3    3    0  502 -0.37168062485E+03 -0.84779754118E+03  0.99531683673E+03  0.13592508095E+04  0.00000000000E+00 0.  1.
         11    1    5    5    0    0 -0.47035568459E+02 -0.13847013006E+03 -0.20275541540E+03  0.24999216006E+03  0.00000000000E+00 0. -1.
        -11    1    5    5    0    0  0.23513908879E+02 -0.83818910756E+01 -0.16407673374E+02  0.29872592025E+02  0.00000000000E+00 0.  1.
          3    1    6    6  503    0  0.19063500418E+03  0.63584106242E+03 -0.91632603290E+03  0.11314985462E+04  0.00000000000E+00 0. -1.
         -3    1    6    6    0  503  0.25572416107E+03  0.56171387188E+03 -0.80043906162E+03  0.10107522010E+04  0.00000000000E+00 0.  1.
<mgrwt>
<rscale>  0 0.40477940E+04</rscale>
<asrwt>0</asrwt>
<pdfrwt beam="1">  1        2 0.36909773E+00 0.40477940E+04</pdfrwt>
<pdfrwt beam="2">  1       -1 0.26266895E+00 0.40477940E+04</pdfrwt>
<totfact> 0.20500772E-01</totfact>
</mgrwt>
</event>
<event>
12    6  0.1510140E-007  0.1661082E+04  0.7818608E-02  0.8783877E-01
          2   -1    0    0  501    0  0.00000000000E+00  0.00000000000E+00  0.13708046788E+04  0.13708046788E+04  0.00000000000E+00 0. -1.
         -1   -1    0    0    0  501 -0.00000000000E+00 -0.00000000000E+00 -0.50320697952E+03  0.50320697952E+03  0.00000000000E+00 0.  1.
         24    2    1    2    0    0  0.69470857954E+02  0.96362888784E+02 -0.32835113737E+03  0.35825909070E+03  0.80144246296E+02 0.  0.
        254    2    1    2    0    0 -0.69470857954E+02 -0.96362888784E+02  0.11959488366E+04  0.15157525676E+04  0.92363424576E+03 0.  0.
         23    2    4    4    0    0 -0.34680246761E+03 -0.36486163526E+03  0.83727217225E+03  0.98129099157E+03  0.92257006711E+02 0.  0.
         23    2    4    4    0    0  0.27733160966E+03  0.26849874648E+03  0.35867666437E+03  0.53446157603E+03  0.89419394481E+02 0.  0.
          2    1    3    3  502    0  0.13626370746E+02  0.75429215836E+02 -0.12775658666E+03  0.14898654307E+03  0.00000000000E+00 0. -1.
         -1    1    3    3    0  502  0.55844487208E+02  0.20933672948E+02 -0.20059455071E+03  0.20927254763E+03  0.00000000000E+00 0.  1.
         11    1    5    5    0    0 -0.10789543469E+03 -0.11578510199E+03  0.18598948028E+03  0.24421241050E+03  0.00000000000E+00 0. -1.
        -11    1    5    5    0    0 -0.23890703292E+03 -0.24907653327E+03  0.65128269197E+03  0.73707858107E+03  0.00000000000E+00 0.  1.
          1    1    6    6  503    0  0.90091398276E+02  0.12565244901E+03  0.18906119465E+03  0.24423172052E+03  0.00000000000E+00 0. -1.
         -1    1    6    6    0  503  0.18724021138E+03  0.14284629746E+03  0.16961546972E+03  0.29022985551E+03  0.00000000000E+00 0.  1.
<mgrwt>
<rscale>  0 0.16610822E+04</rscale>
<asrwt>0</asrwt>
<pdfrwt beam="1">  1        2 0.21089303E+00 0.16610822E+04</pdfrwt>
<pdfrwt beam="2">  1       -1 0.77416459E-01 0.16610822E+04</pdfrwt>
<totfact> 0.27366337E+01</totfact>
</mgrwt>
</event>
<event>
12    6  0.1510140E-007  0.1216308E+04  0.7818608E-02  0.9098701E-01
          2   -1    0    0  501    0  0.00000000000E+00  0.00000000000E+00  0.29060412550E+03  0.29060412550E+03  0.00000000000E+00 0. -1.
         -1   -1    0    0    0  501 -0.00000000000E+00 -0.00000000000E+00 -0.12726980661E+04  0.12726980661E+04  0.00000000000E+00 0.  1.
         24    2    1    2    0    0 -0.62056355569E+02  0.24204694586E+03 -0.30263123577E+03  0.40058387172E+03  0.80274891157E+02 0.  0.
        254    2    1    2    0    0  0.62056355569E+02 -0.24204694586E+03 -0.67946270488E+03  0.11627183199E+04  0.90983878182E+03 0.  0.
         23    2    4    4    0    0  0.23437143092E+03 -0.51362721887E+03 -0.57595931836E+03  0.81200486670E+03  0.94233112754E+02 0.  0.
         23    2    4    4    0    0 -0.17231507535E+03  0.27158027301E+03 -0.10350338653E+03  0.35071345323E+03  0.94014070078E+02 0.  0.
          4    1    3    3  502    0 -0.58868270772E+02  0.21011048352E+03 -0.21115981163E+03  0.30364511298E+03  0.00000000000E+00 0. -1.
         -3    1    3    3    0  502 -0.31880847972E+01  0.31936462340E+02 -0.91471424140E+02  0.96938758738E+02  0.00000000000E+00 0.  1.
         11    1    5    5    0    0  0.19412228858E+03 -0.48405658823E+03 -0.51190962779E+03  0.73078431193E+03  0.00000000000E+00 0.  1.
        -11    1    5    5    0    0  0.40249142339E+02 -0.29570630641E+02 -0.64049690561E+02  0.81220554767E+02  0.00000000000E+00 0. -1.
          1    1    6    6  503    0 -0.24870318610E+01  0.11851566034E+02 -0.29210246063E+02  0.31620933256E+02  0.00000000000E+00 0. -1.
         -1    1    6    6    0  503 -0.16982804349E+03  0.25972870698E+03 -0.74293140463E+02  0.31909251997E+03  0.00000000000E+00 0.  1.
<mgrwt>
<rscale>  0 0.12163080E+04</rscale>
<asrwt>0</asrwt>
<pdfrwt beam="1">  1        2 0.44708327E-01 0.12163080E+04</pdfrwt>
<pdfrwt beam="2">  1       -1 0.19579970E+00 0.12163080E+04</pdfrwt>
<totfact> 0.20683577E+01</totfact>
</mgrwt>
</event>
<event>
12    6  0.1510140E-007  0.1417353E+04  0.7818608E-02  0.8941352E-01
          2   -1    0    0  501    0  0.00000000000E+00  0.00000000000E+00  0.46384202471E+03  0.46384202471E+03  0.00000000000E+00 0. -1.
         -1   -1    0    0    0  501 -0.00000000000E+00 -0.00000000000E+00 -0.10827446532E+04  0.10827446532E+04  0.00000000000E+00 0.  1.
         24    2    1    2    0    0  0.18652227800E+03  0.21523658816E+03 -0.52997157677E+03  0.60694961114E+03  0.80003807441E+02 0.  0.
        254    2    1    2    0    0 -0.18652227800E+03 -0.21523658816E+03 -0.88931051737E+02  0.93963706679E+03  0.89100602481E+03 0.  0.
         23    2    4    4    0    0 -0.43291912635E+03 -0.39940384597E+03  0.34618056679E+02  0.59603315948E+03  0.84348771307E+02 0.  0.
         23    2    4    4    0    0  0.24639684835E+03  0.18416725781E+03 -0.12354910842E+03  0.34360390731E+03  0.90389585688E+02 0.  0.
          4    1    3    3  502    0  0.89366710353E+02  0.12200767732E+03 -0.20142898936E+03  0.25188473554E+03  0.00000000000E+00 0. -1.
         -3    1    3    3    0  502  0.97155567645E+02  0.93228910845E+02 -0.32854258741E+03  0.35506487560E+03  0.00000000000E+00 0.  1.
         11    1    5    5    0    0 -0.39507044476E+03 -0.32570677725E+03  0.25033493186E+02  0.51263265293E+03  0.00000000000E+00 0. -1.
        -11    1    5    5    0    0 -0.37848681589E+02 -0.73697068719E+02  0.95845634930E+01  0.83400506552E+02  0.00000000000E+00 0.  1.
          1    1    6    6  503    0  0.24228432008E+03  0.19068966017E+03 -0.10879522084E+03  0.32695663065E+03  0.00000000000E+00 0. -1.
         -1    1    6    6    0  503  0.41125282689E+01 -0.65224023578E+01 -0.14753887579E+02  0.16647276654E+02  0.00000000000E+00 0.  1.
<mgrwt>
<rscale>  0 0.14173531E+04</rscale>
<asrwt>0</asrwt>
<pdfrwt beam="1">  1        2 0.71360312E-01 0.14173531E+04</pdfrwt>
<pdfrwt beam="2">  1       -1 0.16657610E+00 0.14173531E+04</pdfrwt>
<totfact> 0.19477369E+01</totfact>
</mgrwt>
</event>
<event>
12    6  0.1510140E-007  0.2687345E+04  0.7818608E-02  0.8339123E-01
         -1   -1    0    0    0  501 -0.00000000000E+00  0.00000000000E+00  0.11650833667E+04  0.11650833667E+04  0.00000000000E+00 0.  1.
          2   -1    0    0  501    0  0.00000000000E+00 -0.00000000000E+00 -0.15496360999E+04  0.15496360999E+04  0.00000000000E+00 0. -1.
         24    2    1    2    0    0 -0.10341546613E+04 -0.41043875317E+03 -0.60221768430E+03  0.12678563941E+04  0.82812216391E+02 0.  0.
        254    2    1    2    0    0  0.10341546613E+04  0.41043875317E+03  0.21766495105E+03  0.14468630725E+04  0.89894320511E+03 0.  0.
         23    2    4    4    0    0  0.10248391517E+04  0.42124523287E+03  0.44773819500E+03  0.11985718449E+04  0.91444753513E+02 0.  0.
         23    2    4    4    0    0  0.93155095972E+01 -0.10806479703E+02 -0.23007324396E+03  0.24829122762E+03  0.92256584618E+02 0.  0.
          2    1    3    3  502    0 -0.79808224606E+03 -0.28104023871E+03 -0.44272379284E+03  0.95494672312E+03  0.00000000000E+00 0. -1.
         -1    1    3    3    0  502 -0.23607241528E+03 -0.12939851445E+03 -0.15949389146E+03  0.31290967101E+03  0.00000000000E+00 0.  1.
         11    1    5    5    0    0  0.10261448070E+04  0.42274043008E+03  0.44677633949E+03  0.11963660534E+04  0.00000000000E+00 0.  1.
        -11    1    5    5    0    0 -0.13056552281E+01 -0.14951972099E+01  0.96185551221E+00  0.22057915354E+01  0.00000000000E+00 0. -1.
          2    1    6    6  503    0  0.20880836152E+02  0.34316265251E+02 -0.61945891525E+02  0.73830270594E+02  0.00000000000E+00 0. -1.
         -2    1    6    6    0  503 -0.11565326554E+02 -0.45122744954E+02 -0.16812735243E+03  0.17446095702E+03  0.00000000000E+00 0.  1.
<mgrwt>
<rscale>  0 0.26873446E+04</rscale>
<asrwt>0</asrwt>
<pdfrwt beam="1">  1        2 0.23840555E+00 0.26873446E+04</pdfrwt>
<pdfrwt beam="2">  1       -1 0.17924359E+00 0.26873446E+04</pdfrwt>
<totfact> 0.25083245E+00</totfact>
</mgrwt>
</event>
<event>
12    6  0.1510140E-007  0.1394965E+04  0.7818608E-02  0.8957471E-01
          4   -1    0    0  501    0  0.00000000000E+00  0.00000000000E+00  0.73842806605E+03  0.73842806605E+03  0.00000000000E+00 0. -1.
         -3   -1    0    0    0  501 -0.00000000000E+00 -0.00000000000E+00 -0.65880719429E+03  0.65880719429E+03  0.00000000000E+00 0.  1.
         24    2    1    2    0    0 -0.59185196421E+02 -0.18931166742E+03 -0.32186144517E+03  0.38651791466E+03  0.80371099094E+02 0.  0.
        254    2    1    2    0    0  0.59185196421E+02  0.18931166742E+03  0.40148231693E+03  0.10107173457E+04  0.90610137797E+03 0.  0.
         23    2    4    4    0    0 -0.38040507000E+03  0.82491622237E+02  0.12133224786E+01  0.39976698190E+03  0.91100398715E+02 0.  0.
         23    2    4    4    0    0  0.43959026642E+03  0.10682004518E+03  0.40026899445E+03  0.61095036379E+03  0.91623985457E+02 0.  0.
          2    1    3    3  502    0  0.43265300097E+01 -0.63108669636E+02 -0.51908069236E+02  0.81828300098E+02  0.00000000000E+00 0. -1.
         -1    1    3    3    0  502 -0.63511726431E+02 -0.12620299779E+03 -0.26995337593E+03  0.30468961456E+03  0.00000000000E+00 0.  1.
         11    1    5    5    0    0 -0.13276837250E+03  0.72371799820E+02  0.12011480905E+02  0.15168847623E+03  0.00000000000E+00 0.  1.
        -11    1    5    5    0    0 -0.24763669749E+03  0.10119822418E+02 -0.10798158426E+02  0.24807850567E+03  0.00000000000E+00 0. -1.
          1    1    6    6  503    0  0.29093591683E+03  0.82457599877E+02  0.20949629989E+03  0.36787452093E+03  0.00000000000E+00 0. -1.
         -1    1    6    6    0  503  0.14865434958E+03  0.24362445307E+02  0.19077269456E+03  0.24307584286E+03  0.00000000000E+00 0.  1.
<mgrwt>
<rscale>  0 0.13949648E+04</rscale>
<asrwt>0</asrwt>
<pdfrwt beam="1">  1        4 0.11360432E+00 0.13949648E+04</pdfrwt>
<pdfrwt beam="2">  1       -3 0.10135495E+00 0.13949648E+04</pdfrwt>
<totfact> 0.11426728E+00</totfact>
</mgrwt>
</event>
<event>
12    6  0.1510140E-007  0.1805944E+04  0.7818608E-02  0.8703145E-01
         -1   -1    0    0    0  501 -0.00000000000E+00  0.00000000000E+00  0.13171926301E+04  0.13171926301E+04  0.00000000000E+00 0.  1.
          2   -1    0    0  501    0  0.00000000000E+00 -0.00000000000E+00 -0.61901203166E+03  0.61901203166E+03  0.00000000000E+00 0. -1.
         24    2    1    2    0    0 -0.40561313851E+03  0.43930490115E+03  0.57009296911E+03  0.83010581799E+03  0.80986797190E+02 0.  0.
        254    2    1    2    0    0  0.40561313851E+03 -0.43930490115E+03  0.12808762936E+03  0.11060988438E+04  0.92170352997E+03 0.  0.
         23    2    4    4    0    0 -0.16546266552E+03 -0.25626384530E+03 -0.23758695940E+03  0.39771035197E+03  0.93149925965E+02 0.  0.
         23    2    4    4    0    0  0.57107580403E+03 -0.18304105585E+03  0.36567458876E+03  0.70838849183E+03  0.92004067389E+02 0.  0.
          2    1    3    3  502    0 -0.49511954137E+02  0.20533903706E+02  0.54415804052E+02  0.76381637417E+02  0.00000000000E+00 0. -1.
         -1    1    3    3    0  502 -0.35610118437E+03  0.41877099744E+03  0.51567716506E+03  0.75372418057E+03  0.00000000000E+00 0.  1.
         11    1    5    5    0    0 -0.10962462373E+02 -0.82397884741E+02 -0.38757373060E+02  0.91715434675E+02  0.00000000000E+00 0. -1.
        -11    1    5    5    0    0 -0.15450020314E+03 -0.17386596055E+03 -0.19882958633E+03  0.30599491730E+03  0.00000000000E+00 0.  1.
          2    1    6    6  503    0  0.59393059500E+02  0.86109314661E+01  0.42972944048E+02  0.73812990575E+02  0.00000000000E+00 0. -1.
         -2    1    6    6    0  503  0.51168274453E+03 -0.19165198732E+03  0.32270164471E+03  0.63457550125E+03  0.00000000000E+00 0.  1.
<mgrwt>
<rscale>  0 0.18059436E+04</rscale>
<asrwt>0</asrwt>
<pdfrwt beam="1">  1        2 0.95232620E-01 0.18059436E+04</pdfrwt>
<pdfrwt beam="2">  1       -1 0.20264502E+00 0.18059436E+04</pdfrwt>
<totfact> 0.74257772E+00</totfact>
</mgrwt>
</event>
<event>
12    6  0.1510140E-007  0.1517003E+04  0.7818608E-02  0.8873224E-01
          2   -1    0    0  501    0  0.00000000000E+00  0.00000000000E+00  0.22997309283E+04  0.22997309283E+04  0.00000000000E+00 0. -1.
         -1   -1    0    0    0  501 -0.00000000000E+00 -0.00000000000E+00 -0.25017044330E+03  0.25017044330E+03  0.00000000000E+00 0.  1.
         24    2    1    2    0    0 -0.24555388798E+03 -0.37154737688E+03  0.39311585188E+03  0.59947536243E+03  0.80538636667E+02 0.  0.
        254    2    1    2    0    0  0.24555388798E+03  0.37154737688E+03  0.16564446331E+04  0.19504260092E+04  0.92844419838E+03 0.  0.
         23    2    4    4    0    0  0.24323613443E+03  0.51719860067E+03  0.45326547860E+03  0.73510501413E+03  0.90948216494E+02 0.  0.
         23    2    4    4    0    0  0.23177535428E+01 -0.14565122379E+03  0.12031791545E+04  0.12153209950E+04  0.90251826272E+02 0.  0.
          2    1    3    3  502    0 -0.68982352089E+01 -0.28433220387E+01  0.25995169889E+02  0.27044758952E+02  0.00000000000E+00 0. -1.
         -1    1    3    3    0  502 -0.23865565277E+03 -0.36870405484E+03  0.36712068199E+03  0.57243060348E+03  0.00000000000E+00 0.  1.
         11    1    5    5    0    0  0.18106892994E+02  0.51795519329E+02  0.81795419754E+02  0.98494294704E+02  0.00000000000E+00 0.  1.
        -11    1    5    5    0    0  0.22512924144E+03  0.46540308134E+03  0.37147005884E+03  0.63661071943E+03  0.00000000000E+00 0. -1.
          4    1    6    6  503    0  0.59907573149E+01 -0.11296573805E+03  0.11226303717E+04  0.11283156024E+04  0.00000000000E+00 0. -1.
         -4    1    6    6    0  503 -0.36730037721E+01 -0.32685485746E+02  0.80548782758E+02  0.87005392585E+02  0.00000000000E+00 0.  1.
<mgrwt>
<rscale>  0 0.15170032E+04</rscale>
<asrwt>0</asrwt>
<pdfrwt beam="1">  1        2 0.35380474E+00 0.15170032E+04</pdfrwt>
<pdfrwt beam="2">  1       -1 0.38487762E-01 0.15170032E+04</pdfrwt>
<totfact> 0.32621685E+01</totfact>
</mgrwt>
</event>
<event>
12    6  0.1510140E-007  0.1360971E+04  0.7818608E-02  0.8982565E-01
          2   -1    0    0  501    0  0.00000000000E+00  0.00000000000E+00  0.39715789016E+04  0.39715789016E+04  0.00000000000E+00 0. -1.
         -1   -1    0    0    0  501 -0.00000000000E+00 -0.00000000000E+00 -0.11659356088E+03  0.11659356088E+03  0.00000000000E+00 0.  1.
         24    2    1    2    0    0 -0.27225890276E+03 -0.67811130270E+02  0.34724020277E+03  0.45356994466E+03  0.80166556353E+02 0.  0.
        254    2    1    2    0    0  0.27225890276E+03  0.67811130270E+02  0.35077451379E+04  0.36346025178E+04  0.90958026044E+03 0.  0.
         23    2    4    4    0    0 -0.64432372029E+02  0.34498478580E+03  0.66058635142E+03  0.75275492276E+03  0.84259201613E+02 0.  0.
         23    2    4    4    0    0  0.33669127478E+03 -0.27717365553E+03  0.28471587865E+04  0.28818475951E+04  0.92445419428E+02 0.  0.
          2    1    3    3  502    0 -0.12157454547E+03 -0.96812770225E+01  0.20408777224E+03  0.23775179497E+03  0.00000000000E+00 0. -1.
         -1    1    3    3    0  502 -0.15068435729E+03 -0.58129853247E+02  0.14315243053E+03  0.21581814969E+03  0.00000000000E+00 0.  1.
         11    1    5    5    0    0 -0.75301970235E+02  0.29321097473E+03  0.60191962551E+03  0.67375833798E+03  0.00000000000E+00 0. -1.
        -11    1    5    5    0    0  0.10869598206E+02  0.51773811068E+02  0.58666725913E+02  0.78996584780E+02  0.00000000000E+00 0.  1.
          1    1    6    6  503    0  0.23840252651E+03 -0.16870562270E+03  0.21275586767E+04  0.21475109487E+04  0.00000000000E+00 0. -1.
         -1    1    6    6    0  503  0.98288748273E+02 -0.10846803283E+03  0.71960010980E+03  0.73433664637E+03  0.00000000000E+00 0.  1.
<mgrwt>
<rscale>  0 0.13609710E+04</rscale>
<asrwt>0</asrwt>
<pdfrwt beam="1">  1        2 0.61101204E+00 0.13609710E+04</pdfrwt>
<pdfrwt beam="2">  1       -1 0.17937474E-01 0.13609710E+04</pdfrwt>
<totfact> 0.10125161E+01</totfact>
</mgrwt>
</event>
<event>
12    6  0.1510140E-007  0.1728720E+04  0.7818608E-02  0.8745152E-01
         -1   -1    0    0    0  501 -0.00000000000E+00  0.00000000000E+00  0.30852252745E+03  0.30852252745E+03  0.00000000000E+00 0.  1.
          2   -1    0    0  501    0  0.00000000000E+00 -0.00000000000E+00 -0.24216011665E+04  0.24216011665E+04  0.00000000000E+00 0. -1.
         24    2    1    2    0    0 -0.15942102057E+03 -0.55128921902E+02  0.17586343694E+03  0.26043728992E+03  0.91898714339E+02 0.  0.
        254    2    1    2    0    0  0.15942102057E+03  0.55128921902E+02 -0.22889420760E+04  0.24696864040E+04  0.91194344517E+03 0.  0.
         23    2    4    4    0    0 -0.42290016194E+00 -0.35463417570E+03 -0.16399212802E+04  0.16804343066E+04  0.93552531654E+02 0.  0.
         23    2    4    4    0    0  0.15984392073E+03  0.40976309760E+03 -0.64902079581E+03  0.78925209743E+03  0.90746927006E+02 0.  0.
          2    1    3    3  502    0 -0.78653142431E+02 -0.56193303917E+01  0.25789481439E+02  0.82963793556E+02  0.00000000000E+00 0. -1.
         -1    1    3    3    0  502 -0.80767878140E+02 -0.49509591511E+02  0.15007395550E+03  0.17747349636E+03  0.00000000000E+00 0.  1.
         11    1    5    5    0    0 -0.34700132678E+02 -0.22096281311E+03 -0.87307636497E+03  0.90127188076E+03  0.00000000000E+00 0. -1.
        -11    1    5    5    0    0  0.34277232516E+02 -0.13367136259E+03 -0.76684491522E+03  0.77916242584E+03  0.00000000000E+00 0.  1.
          1    1    6    6  503    0  0.37783433170E+02  0.55413609455E+02 -0.15718316363E+03  0.17089412765E+03  0.00000000000E+00 0. -1.
         -1    1    6    6    0  503  0.12206048756E+03  0.35434948815E+03 -0.49183763218E+03  0.61835796979E+03  0.00000000000E+00 0.  1.
<mgrwt>
<rscale>  0 0.17287204E+04</rscale>
<asrwt>0</asrwt>
<pdfrwt beam="1">  1        2 0.37255403E+00 0.17287204E+04</pdfrwt>
<pdfrwt beam="2">  1       -1 0.47465004E-01 0.17287204E+04</pdfrwt>
<totfact> 0.18526962E+01</totfact>
</mgrwt>
</event>
<event>
12    6  0.1510140E-007  0.2385962E+04  0.7818608E-02  0.8444778E-01
         -1   -1    0    0    0  501 -0.00000000000E+00  0.00000000000E+00  0.12348147325E+04  0.12348147325E+04  0.00000000000E+00 0.  1.
          2   -1    0    0  501    0  0.00000000000E+00 -0.00000000000E+00 -0.11525647779E+04  0.11525647779E+04  0.00000000000E+00 0. -1.
         24    2    1    2    0    0  0.15690390673E+03 -0.86817027840E+03  0.54557086374E+03  0.10403378660E+04  0.79478549736E+02 0.  0.
        254    2    1    2    0    0 -0.15690390673E+03  0.86817027840E+03 -0.46332090913E+03  0.13470416443E+04  0.90637545113E+03 0.  0.
         23    2    4    4    0    0  0.73267743227E+02  0.73174098752E+03 -0.66824396862E+03  0.99789812365E+03  0.91856565177E+02 0.  0.
         23    2    4    4    0    0 -0.23017164996E+03  0.13642929088E+03  0.20492305949E+03  0.34914352066E+03  0.91190996569E+02 0.  0.
          2    1    3    3  502    0  0.61524335529E+01 -0.16807440109E+03  0.12792432645E+03  0.21130899186E+03  0.00000000000E+00 0. -1.
         -1    1    3    3    0  502  0.15075147318E+03 -0.70009587731E+03  0.41764653729E+03  0.82902887417E+03  0.00000000000E+00 0.  1.
         11    1    5    5    0    0 -0.10519528325E+02  0.26850799691E+03 -0.27526463559E+03  0.38467885891E+03  0.00000000000E+00 0. -1.
        -11    1    5    5    0    0  0.83787271552E+02  0.46323299061E+03 -0.39297933303E+03  0.61321926474E+03  0.00000000000E+00 0.  1.
          3    1    6    6  503    0 -0.49502208454E+02  0.31656765786E+02  0.98614052173E+02  0.11479264239E+03  0.00000000000E+00 0. -1.
         -3    1    6    6    0  503 -0.18066944151E+03  0.10477252510E+03  0.10630900731E+03  0.23435087827E+03  0.00000000000E+00 0.  1.
<mgrwt>
<rscale>  0 0.23859623E+04</rscale>
<asrwt>0</asrwt>
<pdfrwt beam="1">  1        2 0.17731766E+00 0.23859623E+04</pdfrwt>
<pdfrwt beam="2">  1       -1 0.18997150E+00 0.23859623E+04</pdfrwt>
<totfact> 0.36700272E+00</totfact>
</mgrwt>
</event>
<event>
12    6  0.1510140E-007  0.2055633E+04  0.7818608E-02  0.8581043E-01
          2   -1    0    0  501    0  0.00000000000E+00  0.00000000000E+00  0.11413413646E+04  0.11413413646E+04  0.00000000000E+00 0. -1.
         -1   -1    0    0    0  501 -0.00000000000E+00 -0.00000000000E+00 -0.92558364066E+03  0.92558364066E+03  0.00000000000E+00 0.  1.
         24    2    1    2    0    0  0.20762125307E+03 -0.61064827328E+03  0.61101891570E+03  0.89204445126E+03  0.80008057699E+02 0.  0.
        254    2    1    2    0    0 -0.20762125307E+03  0.61064827328E+03 -0.39526119176E+03  0.11748805540E+04  0.89895217230E+03 0.  0.
         23    2    4    4    0    0 -0.34968935546E+03  0.54727549572E+03  0.84454156619E+02  0.66073809221E+03  0.87459752970E+02 0.  0.
         23    2    4    4    0    0  0.14206810239E+03  0.63372777561E+02 -0.47971534838E+03  0.51414246179E+03  0.10008097171E+03 0.  0.
          4    1    3    3  502    0  0.20496464670E+03 -0.52746663313E+03  0.51722185155E+03  0.76664854997E+03  0.00000000000E+00 0. -1.
         -3    1    3    3    0  502  0.26566063676E+01 -0.83181640157E+02  0.93797064150E+02  0.12539590129E+03  0.00000000000E+00 0.  1.
         11    1    5    5    0    0 -0.11250158686E+03  0.25361862197E+03  0.24581674540E+02  0.27853773744E+03  0.00000000000E+00 0. -1.
        -11    1    5    5    0    0 -0.23718776860E+03  0.29365687375E+03  0.59872482079E+02  0.38220035477E+03  0.00000000000E+00 0.  1.
          3    1    6    6  503    0  0.10496078504E+03  0.34080627842E+00 -0.34795796142E+03  0.36344411601E+03  0.00000000000E+00 0. -1.
         -3    1    6    6    0  503  0.37107317350E+02  0.63031971282E+02 -0.13175738695E+03  0.15069834578E+03  0.00000000000E+00 0.  1.
<mgrwt>
<rscale>  0 0.20556331E+04</rscale>
<asrwt>0</asrwt>
<pdfrwt beam="1">  1        2 0.17559098E+00 0.20556331E+04</pdfrwt>
<pdfrwt beam="2">  1       -1 0.14239748E+00 0.20556331E+04</pdfrwt>
<totfact> 0.86883120E+00</totfact>
</mgrwt>
</event>
<event>
12    6  0.1510140E-007  0.1791898E+04  0.7818608E-02  0.8710620E-01
          2   -1    0    0  501    0  0.00000000000E+00  0.00000000000E+00  0.36460667993E+04  0.36460667993E+04  0.00000000000E+00 0. -1.
         -3   -1    0    0    0  501 -0.00000000000E+00 -0.00000000000E+00 -0.22016187188E+03  0.22016187188E+03  0.00000000000E+00 0.  1.
         24    2    1    2    0    0  0.56161827131E+03  0.13804547024E+02  0.50839762175E+03  0.76183449923E+03  0.79485937332E+02 0.  0.
        254    2    1    2    0    0 -0.56161827131E+03 -0.13804547024E+02  0.29175073057E+04  0.31043941720E+04  0.89989368704E+03 0.  0.
         23    2    4    4    0    0 -0.11111924287E+03  0.36664803705E+03  0.65458419236E+03  0.76404571363E+03  0.92234041531E+02 0.  0.
         23    2    4    4    0    0 -0.45049902843E+03 -0.38045258407E+03  0.22629231134E+04  0.23403484584E+04  0.93361374439E+02 0.  0.
          4    1    3    3  502    0  0.65235439982E+02 -0.21305336042E+02  0.46631619026E+02  0.82970403557E+02  0.00000000000E+00 0. -1.
         -1    1    3    3    0  502  0.49638283133E+03  0.35109883067E+02  0.46176600272E+03  0.67886409567E+03  0.00000000000E+00 0.  1.
         11    1    5    5    0    0 -0.10028052012E+03  0.35085173479E+03  0.56612529872E+03  0.67353617302E+03  0.00000000000E+00 0.  1.
        -11    1    5    5    0    0 -0.10838722756E+02  0.15796302253E+02  0.88458893643E+02  0.90509540604E+02  0.00000000000E+00 0. -1.
          2    1    6    6  503    0 -0.31175748611E+03 -0.28783725096E+03  0.14669775715E+04  0.15271104114E+04  0.00000000000E+00 0. -1.
         -2    1    6    6    0  503 -0.13874154233E+03 -0.92615333106E+02  0.79594554186E+03  0.81323804701E+03  0.00000000000E+00 0.  1.
<mgrwt>
<rscale>  0 0.17918983E+04</rscale>
<asrwt>0</asrwt>
<pdfrwt beam="1">  1        2 0.56093331E+00 0.17918983E+04</pdfrwt>
<pdfrwt beam="2">  1       -3 0.33871060E-01 0.17918983E+04</pdfrwt>
<totfact> 0.34107744E+00</totfact>
</mgrwt>
</event>
<event>
12    6  0.1510140E-007  0.1204945E+04  0.7818608E-02  0.9108539E-01
          2   -1    0    0  501    0  0.00000000000E+00  0.00000000000E+00  0.70267677883E+03  0.70267677883E+03  0.00000000000E+00 0. -1.
         -1   -1    0    0    0  501 -0.00000000000E+00 -0.00000000000E+00 -0.51655784677E+03  0.51655784677E+03  0.00000000000E+00 0.  1.
         24    2    1    2    0    0 -0.13240822232E+03  0.14906291261E+03 -0.13910775958E+03  0.25575869770E+03  0.79434585815E+02 0.  0.
        254    2    1    2    0    0  0.13240822232E+03 -0.14906291261E+03  0.32522669164E+03  0.96347592790E+03  0.88473825137E+03 0.  0.
         23    2    4    4    0    0  0.44822266351E+03 -0.13184635691E+03  0.40460056179E+03  0.62470751517E+03  0.90944197105E+02 0.  0.
         23    2    4    4    0    0 -0.31581444120E+03 -0.17216555700E+02 -0.79373870155E+02  0.33876841273E+03  0.91807707432E+02 0.  0.
          2    1    3    3  502    0 -0.23045037292E+01  0.31948179913E+02 -0.49878700500E+02  0.59278003515E+02  0.00000000000E+00 0. -1.
         -1    1    3    3    0  502 -0.13010371859E+03  0.11711473269E+03 -0.89229059078E+02  0.19648069419E+03  0.00000000000E+00 0.  1.
         11    1    5    5    0    0  0.30559155025E+03 -0.50514612049E+02  0.23630875584E+03  0.38958920635E+03  0.00000000000E+00 0. -1.
        -11    1    5    5    0    0  0.14263111326E+03 -0.81331744857E+02  0.16829180595E+03  0.23511830882E+03  0.00000000000E+00 0.  1.
          1    1    6    6  503    0 -0.24980255305E+03 -0.45174175502E+02 -0.40022638056E+02  0.25698994766E+03  0.00000000000E+00 0. -1.
         -1    1    6    6    0  503 -0.66011888148E+02  0.27957619802E+02 -0.39351232099E+02  0.81778465073E+02  0.00000000000E+00 0.  1.
<mgrwt>
<rscale>  0 0.12049452E+04</rscale>
<asrwt>0</asrwt>
<pdfrwt beam="1">  1        2 0.10810412E+00 0.12049452E+04</pdfrwt>
<pdfrwt beam="2">  1       -1 0.79470438E-01 0.12049452E+04</pdfrwt>
<totfact> 0.72718174E+01</totfact>
</mgrwt>
</event>
<event>
12    6  0.1510140E-007  0.3162895E+04  0.7818608E-02  0.8198686E-01
          2   -1    0    0  501    0  0.00000000000E+00  0.00000000000E+00  0.21385883643E+04  0.21385883643E+04  0.00000000000E+00 0. -1.
         -1   -1    0    0    0  501 -0.00000000000E+00 -0.00000000000E+00 -0.11694520795E+04  0.11694520795E+04  0.00000000000E+00 0.  1.
         24    2    1    2    0    0  0.10221876994E+04 -0.13889434589E+03  0.15146927555E+04  0.18344435031E+04  0.82033470096E+02 0.  0.
        254    2    1    2    0    0 -0.10221876994E+04  0.13889434589E+03 -0.54555647077E+03  0.14735969408E+04  0.89983151137E+03 0.  0.
         23    2    4    4    0    0 -0.29443575536E+03 -0.36243708887E+03 -0.23960597002E+03  0.53412115481E+03  0.99102622173E+02 0.  0.
         23    2    4    4    0    0 -0.72775194407E+03  0.50133143476E+03 -0.30595050074E+03  0.93947578595E+03  0.89738196506E+02 0.  0.
          4    1    3    3  502    0  0.67013696120E+03 -0.73446720901E+02  0.92614286641E+03  0.11455210939E+04  0.00000000000E+00 0. -1.
         -3    1    3    3    0  502  0.35205073822E+03 -0.65447624991E+02  0.58854988912E+03  0.68892240919E+03  0.00000000000E+00 0.  1.
         11    1    5    5    0    0 -0.21657232601E+03 -0.18985921428E+03 -0.14703930211E+03  0.32337385486E+03  0.00000000000E+00 0.  1.
        -11    1    5    5    0    0 -0.77863429345E+02 -0.17257787459E+03 -0.92566667918E+02  0.21074729995E+03  0.00000000000E+00 0. -1.
          4    1    6    6  503    0 -0.52120415118E+03  0.39528427086E+03 -0.19819934951E+03  0.68351035409E+03  0.00000000000E+00 0.  1.
         -4    1    6    6    0  503 -0.20654779288E+03  0.10604716390E+03 -0.10775115124E+03  0.25596543186E+03  0.00000000000E+00 0. -1.
<mgrwt>
<rscale>  0 0.31628953E+04</rscale>
<asrwt>0</asrwt>
<pdfrwt beam="1">  1        2 0.32901359E+00 0.31628953E+04</pdfrwt>
<pdfrwt beam="2">  1       -1 0.17991570E+00 0.31628953E+04</pdfrwt>
<totfact> 0.11190553E+00</totfact>
</mgrwt>
</event>
<event>
12    6  0.1510140E-007  0.1779547E+04  0.7818608E-02  0.8717252E-01
          2   -1    0    0  501    0  0.00000000000E+00  0.00000000000E+00  0.10335712801E+04  0.10335712801E+04  0.00000000000E+00 0. -1.
         -1   -1    0    0    0  501 -0.00000000000E+00 -0.00000000000E+00 -0.76598216515E+03  0.76598216515E+03  0.00000000000E+00 0.  1.
         24    2    1    2    0    0 -0.41249667394E+03 -0.47088221036E+03  0.27908727753E+03  0.68991293787E+03  0.78781922545E+02 0.  0.
        254    2    1    2    0    0  0.41249667394E+03  0.47088221036E+03 -0.11498162621E+02  0.11096405073E+04  0.91612569321E+03 0.  0.
         23    2    4    4    0    0  0.10936217515E+03  0.20373372597E+02  0.39825415806E+03  0.42328886584E+03  0.90509280570E+02 0.  0.
         23    2    4    4    0    0  0.30313449879E+03  0.45050883776E+03 -0.40975232068E+03  0.68635164150E+03  0.91284578271E+02 0.  0.
          4    1    3    3  502    0 -0.28983915108E+03 -0.38178346754E+03  0.21120416331E+03  0.52380583061E+03  0.00000000000E+00 0. -1.
         -3    1    3    3    0  502 -0.12265752285E+03 -0.89098742825E+02  0.67883114215E+02  0.16610710726E+03  0.00000000000E+00 0.  1.
         11    1    5    5    0    0  0.98802730251E+01 -0.11432512170E+02  0.18717294405E+03  0.18778187643E+03  0.00000000000E+00 0.  1.
        -11    1    5    5    0    0  0.99481902124E+02  0.31805884767E+02  0.21108121401E+03  0.23550698942E+03  0.00000000000E+00 0. -1.
          3    1    6    6  503    0  0.29629334646E+03  0.45384074041E+03 -0.40836087825E+03  0.67861607091E+03  0.00000000000E+00 0. -1.
         -3    1    6    6    0  503  0.68411523235E+01 -0.33319026441E+01 -0.13914424324E+01  0.77355705921E+01  0.00000000000E+00 0.  1.
<mgrwt>
<rscale>  0 0.17795473E+04</rscale>
<asrwt>0</asrwt>
<pdfrwt beam="1">  1        2 0.15901097E+00 0.17795473E+04</pdfrwt>
<pdfrwt beam="2">  1       -1 0.11784341E+00 0.17795473E+04</pdfrwt>
<totfact> 0.16738150E+01</totfact>
</mgrwt>
</event>
<event>
12    6  0.1510140E-007  0.1745483E+04  0.7818608E-02  0.8735840E-01
          2   -1    0    0  501    0  0.00000000000E+00  0.00000000000E+00  0.29953708663E+04  0.29953708663E+04  0.00000000000E+00 0. -1.
         -1   -1    0    0    0  501 -0.00000000000E+00 -0.00000000000E+00 -0.25428507510E+03  0.25428507510E+03  0.00000000000E+00 0.  1.
         24    2    1    2    0    0  0.21348553458E+03  0.56238381540E+03  0.61290619600E+03  0.86213743361E+03  0.75995526448E+02 0.  0.
        254    2    1    2    0    0 -0.21348553458E+03 -0.56238381540E+03  0.21281795952E+04  0.23875185078E+04  0.89958023893E+03 0.  0.
         23    2    4    4    0    0  0.33101719157E+03 -0.26922340259E+03  0.65485919514E+03  0.78699663388E+03  0.92029966089E+02 0.  0.
         23    2    4    4    0    0 -0.54450272615E+03 -0.29316041280E+03  0.14733204001E+04  0.16005218739E+04  0.92579809824E+02 0.  0.
          2    1    3    3  502    0  0.11246016805E+03  0.23851649887E+03  0.22347831935E+03  0.34565874624E+03  0.00000000000E+00 0. -1.
         -1    1    3    3    0  502  0.10102536653E+03  0.32386731652E+03  0.38942787665E+03  0.51647868737E+03  0.00000000000E+00 0.  1.
         11    1    5    5    0    0  0.17709419971E+03 -0.18134810301E+03  0.44667008197E+03  0.51357925597E+03  0.00000000000E+00 0. -1.
        -11    1    5    5    0    0  0.15392299186E+03 -0.87875299581E+02  0.20818911317E+03  0.27341737790E+03  0.00000000000E+00 0.  1.
          2    1    6    6  503    0 -0.13957184937E+03 -0.57588431733E+02  0.27210032158E+03  0.31118372967E+03  0.00000000000E+00 0. -1.
         -2    1    6    6    0  503 -0.40493087678E+03 -0.23557198107E+03  0.12012200785E+04  0.12893381442E+04  0.00000000000E+00 0.  1.
<mgrwt>
<rscale>  0 0.17454834E+04</rscale>
<asrwt>0</asrwt>
<pdfrwt beam="1">  1        2 0.46082626E+00 0.17454834E+04</pdfrwt>
<pdfrwt beam="2">  1       -1 0.39120783E-01 0.17454834E+04</pdfrwt>
<totfact> 0.12056073E+01</totfact>
</mgrwt>
</event>
<event>
12    6  0.1510140E-007  0.1528571E+04  0.7818608E-02  0.8865673E-01
         -1   -1    0    0    0  501 -0.00000000000E+00  0.00000000000E+00  0.37253705655E+03  0.37253705655E+03  0.00000000000E+00 0.  1.
          2   -1    0    0  501    0  0.00000000000E+00 -0.00000000000E+00 -0.15679850746E+04  0.15679850746E+04  0.00000000000E+00 0. -1.
         24    2    1    2    0    0 -0.21910192138E+03 -0.39382467297E+03 -0.13109668810E+03  0.47593608846E+03  0.78900530263E+02 0.  0.
        254    2    1    2    0    0  0.21910192138E+03  0.39382467297E+03 -0.10643513300E+04  0.14645860427E+04  0.89948040441E+03 0.  0.
         23    2    4    4    0    0  0.26507803355E+03  0.66164046899E+03 -0.78321758373E+03  0.10635236892E+04  0.98073339922E+02 0.  0.
         23    2    4    4    0    0 -0.45976112170E+02 -0.26781579601E+03 -0.28113374624E+03  0.40106235349E+03  0.89306912552E+02 0.  0.
          2    1    3    3  502    0 -0.12362299827E+03 -0.19627153280E+03 -0.28452184272E+02  0.23369785424E+03  0.00000000000E+00 0. -1.
         -1    1    3    3    0  502 -0.95478923105E+02 -0.19755314018E+03 -0.10264450383E+03  0.24223823422E+03  0.00000000000E+00 0.  1.
         11    1    5    5    0    0  0.11738841298E+03  0.31137153506E+03 -0.29444328976E+03  0.44432997112E+03  0.00000000000E+00 0. -1.
        -11    1    5    5    0    0  0.14768962057E+03  0.35026893393E+03 -0.48877429397E+03  0.61919371811E+03  0.00000000000E+00 0.  1.
          4    1    6    6  503    0 -0.65402491017E+02 -0.15792638059E+03 -0.19999225392E+03  0.26308768338E+03  0.00000000000E+00 0. -1.
         -4    1    6    6    0  503  0.19426378847E+02 -0.10988941543E+03 -0.81141492325E+02  0.13797467012E+03  0.00000000000E+00 0.  1.
<mgrwt>
<rscale>  0 0.15285713E+04</rscale>
<asrwt>0</asrwt>
<pdfrwt beam="1">  1        2 0.24122847E+00 0.15285713E+04</pdfrwt>
<pdfrwt beam="2">  1       -1 0.57313393E-01 0.15285713E+04</pdfrwt>
<totfact> 0.39358156E+01</totfact>
</mgrwt>
</event>
<event>
12    6  0.1510140E-007  0.1430901E+04  0.7818608E-02  0.8931750E-01
          4   -1    0    0  501    0  0.00000000000E+00  0.00000000000E+00  0.65478648325E+03  0.65478648325E+03  0.00000000000E+00 0. -1.
         -3   -1    0    0    0  501 -0.00000000000E+00 -0.00000000000E+00 -0.78173470391E+03  0.78173470391E+03  0.00000000000E+00 0.  1.
         24    2    1    2    0    0 -0.14811891167E+03  0.39714393047E+02  0.37022960820E+03  0.40855248390E+03  0.79553279646E+02 0.  0.
        254    2    1    2    0    0  0.14811891167E+03 -0.39714393047E+02 -0.49717782886E+03  0.10279687033E+04  0.88657623268E+03 0.  0.
         23    2    4    4    0    0  0.25301697923E+03  0.14426598867E+03 -0.67251158565E+03  0.73848274791E+03  0.90855208282E+02 0.  0.
         23    2    4    4    0    0 -0.10489806756E+03 -0.18398038171E+03  0.17533375679E+03  0.28948595534E+03  0.90596946073E+02 0.  0.
          4    1    3    3  502    0 -0.14600311878E+03  0.46824250439E+02  0.37066077819E+03  0.40112196849E+03  0.00000000000E+00 0. -1.
         -3    1    3    3    0  502 -0.21157928974E+01 -0.71098573919E+01 -0.43116998265E+00  0.74305154109E+01  0.00000000000E+00 0.  1.
         11    1    5    5    0    0  0.18969502181E+03  0.11243624933E+03 -0.39838012224E+03  0.45533815265E+03  0.00000000000E+00 0.  1.
        -11    1    5    5    0    0  0.63321957427E+02  0.31829739334E+02 -0.27413146341E+03  0.28314459527E+03  0.00000000000E+00 0. -1.
          2    1    6    6  503    0 -0.56503282814E+02 -0.16601887825E+03  0.11331224362E+03  0.20879308767E+03  0.00000000000E+00 0.  1.
         -2    1    6    6    0  503 -0.48394784745E+02 -0.17961503458E+02  0.62021513167E+02  0.80692867668E+02  0.00000000000E+00 0. -1.
<mgrwt>
<rscale>  0 0.14309009E+04</rscale>
<asrwt>0</asrwt>
<pdfrwt beam="1">  1        4 0.10073638E+00 0.14309009E+04</pdfrwt>
<pdfrwt beam="2">  1       -3 0.12026688E+00 0.14309009E+04</pdfrwt>
<totfact> 0.10136254E+00</totfact>
</mgrwt>
</event>
<event>
12    6  0.1510140E-007  0.2039076E+04  0.7818608E-02  0.8588566E-01
         -1   -1    0    0    0  501 -0.00000000000E+00  0.00000000000E+00  0.61647563995E+03  0.61647563995E+03  0.00000000000E+00 0.  1.
          2   -1    0    0  501    0  0.00000000000E+00 -0.00000000000E+00 -0.16861295943E+04  0.16861295943E+04  0.00000000000E+00 0. -1.
         24    2    1    2    0    0 -0.10306115183E+03 -0.19481815868E+02 -0.13303821289E+04  0.13369170833E+04  0.80184389504E+02 0.  0.
        254    2    1    2    0    0  0.10306115183E+03  0.19481815868E+02  0.26072817462E+03  0.96568815096E+03  0.92389029744E+03 0.  0.
         23    2    4    4    0    0 -0.84936402468E+02 -0.34345947883E+03  0.38339403670E+03  0.52966723574E+03  0.91530252818E+02 0.  0.
         23    2    4    4    0    0  0.18799755430E+03  0.36294129469E+03 -0.12266586208E+03  0.43602091522E+03  0.89430760769E+02 0.  0.
          2    1    3    3  502    0 -0.97485679023E+02 -0.13905550914E+01 -0.76094422698E+03  0.76716458979E+03  0.00000000000E+00 0. -1.
         -3    1    3    3    0  502 -0.55754728105E+01 -0.18091260777E+02 -0.56943790197E+03  0.56975249347E+03  0.00000000000E+00 0.  1.
         11    1    5    5    0    0 -0.47814834752E+01 -0.19929627803E+03  0.18876876057E+03  0.27454601433E+03  0.00000000000E+00 0.  1.
        -11    1    5    5    0    0 -0.80154918993E+02 -0.14416320080E+03  0.19462527614E+03  0.25512122141E+03  0.00000000000E+00 0. -1.
          4    1    6    6  503    0  0.59739259508E+02  0.84405422934E+02 -0.70030532615E+02  0.12488927114E+03  0.00000000000E+00 0. -1.
         -4    1    6    6    0  503  0.12825829479E+03  0.27853587176E+03 -0.52635329465E+02  0.31113164408E+03  0.00000000000E+00 0.  1.
<mgrwt>
<rscale>  0 0.20390761E+04</rscale>
<asrwt>0</asrwt>
<pdfrwt beam="1">  1        2 0.25940455E+00 0.20390761E+04</pdfrwt>
<pdfrwt beam="2">  1       -1 0.94842409E-01 0.20390761E+04</pdfrwt>
<totfact> 0.11316968E+01</totfact>
</mgrwt>
</event>
<event>
12    6  0.1510140E-007  0.2076248E+04  0.7818608E-02  0.8571779E-01
         -1   -1    0    0    0  501 -0.00000000000E+00  0.00000000000E+00  0.89028468399E+03  0.89028468399E+03  0.00000000000E+00 0.  1.
          2   -1    0    0  501    0  0.00000000000E+00 -0.00000000000E+00 -0.12105127066E+04  0.12105127066E+04  0.00000000000E+00 0. -1.
         24    2    1    2    0    0  0.26277522672E+03 -0.17652093652E+03  0.65649671072E+03  0.73320377143E+03  0.79933587779E+02 0.  0.
        254    2    1    2    0    0 -0.26277522672E+03  0.17652093652E+03 -0.97672473331E+03  0.13675936191E+04  0.90338842234E+03 0.  0.
         23    2    4    4    0    0  0.25800633501E+03 -0.14110042888E+03 -0.16669944469E+03  0.35003976156E+03  0.90898459159E+02 0.  0.
         23    2    4    4    0    0 -0.52078156173E+03  0.31762136539E+03 -0.81002528862E+03  0.10175538576E+04  0.84723775104E+02 0.  0.
          4    1    3    3  502    0  0.20223793439E+03 -0.95154026468E+02  0.48375291714E+03  0.53288962807E+03  0.00000000000E+00 0. -1.
         -3    1    3    3    0  502  0.60537292334E+02 -0.81366910048E+02  0.17274379357E+03  0.20031414337E+03  0.00000000000E+00 0.  1.
         11    1    5    5    0    0  0.16395310004E+03 -0.99383754320E+02 -0.57855675327E+02  0.20026239987E+03  0.00000000000E+00 0. -1.
        -11    1    5    5    0    0  0.94053234967E+02 -0.41716674558E+02 -0.10884376936E+03  0.14977736168E+03  0.00000000000E+00 0.  1.
          3    1    6    6  503    0 -0.28103890403E+03  0.13061894038E+03 -0.44871294448E+03  0.54533244879E+03  0.00000000000E+00 0. -1.
         -3    1    6    6    0  503 -0.23974265770E+03  0.18700242501E+03 -0.36131234414E+03  0.47222140878E+03  0.00000000000E+00 0.  1.
<mgrwt>
<rscale>  0 0.20762475E+04</rscale>
<asrwt>0</asrwt>
<pdfrwt beam="1">  1        2 0.18623272E+00 0.20762475E+04</pdfrwt>
<pdfrwt beam="2">  1       -1 0.13696687E+00 0.20762475E+04</pdfrwt>
<totfact> 0.87220316E+00</totfact>
</mgrwt>
</event>
<event>
12    6  0.1510140E-007  0.1654136E+04  0.7818608E-02  0.8787964E-01
          2   -1    0    0  501    0  0.00000000000E+00  0.00000000000E+00  0.54572869371E+03  0.54572869371E+03  0.00000000000E+00 0. -1.
         -1   -1    0    0    0  501 -0.00000000000E+00 -0.00000000000E+00 -0.12534458091E+04  0.12534458091E+04  0.00000000000E+00 0.  1.
         24    2    1    2    0    0 -0.15566699192E+03 -0.93811223592E+02 -0.83916288501E+03  0.86239942208E+03  0.80657656634E+02 0.  0.
        254    2    1    2    0    0  0.15566699192E+03  0.93811223592E+02  0.13144576960E+03  0.93677508075E+03  0.90952559256E+03 0.  0.
         23    2    4    4    0    0 -0.27584814559E+03  0.22596347727E+03  0.26875111543E+03  0.45634257819E+03  0.94179053601E+02 0.  0.
         23    2    4    4    0    0  0.43151513751E+03 -0.13215225367E+03 -0.13730534584E+03  0.48043250257E+03  0.91066456375E+02 0.  0.
          4    1    3    3  502    0  0.25856498821E+01 -0.25485068414E+00 -0.12267364648E+03  0.12270115759E+03  0.00000000000E+00 0. -1.
         -3    1    3    3    0  502 -0.15825264180E+03 -0.93556372908E+02 -0.71648923854E+03  0.73969826449E+03  0.00000000000E+00 0.  1.
         11    1    5    5    0    0 -0.15213332652E+03  0.16121242136E+03  0.11897894261E+03  0.25157500397E+03  0.00000000000E+00 0.  1.
        -11    1    5    5    0    0 -0.12371481907E+03  0.64751055908E+02  0.14977217282E+03  0.20476757422E+03  0.00000000000E+00 0. -1.
          4    1    6    6  503    0  0.34973341326E+02  0.58873889986E+00 -0.35943165308E+02  0.50153687295E+02  0.00000000000E+00 0. -1.
         -4    1    6    6    0  503  0.39654179618E+03 -0.13274099257E+03 -0.10136218053E+03  0.43027881527E+03  0.00000000000E+00 0.  1.
<mgrwt>
<rscale>  0 0.16541358E+04</rscale>
<asrwt>0</asrwt>
<pdfrwt beam="1">  1        2 0.83958261E-01 0.16541358E+04</pdfrwt>
<pdfrwt beam="2">  1       -1 0.19283782E+00 0.16541358E+04</pdfrwt>
<totfact> 0.10232660E+01</totfact>
</mgrwt>
</event>
<event>
12    6  0.1510140E-007  0.1783243E+04  0.7818608E-02  0.8715262E-01
         -1   -1    0    0    0  501 -0.00000000000E+00  0.00000000000E+00  0.62732573250E+03  0.62732573250E+03  0.00000000000E+00 0.  1.
          2   -1    0    0  501    0  0.00000000000E+00 -0.00000000000E+00 -0.12672671354E+04  0.12672671354E+04  0.00000000000E+00 0. -1.
         24    2    1    2    0    0 -0.65383390406E+03  0.38113306350E+02 -0.25138917308E+03  0.70813684587E+03  0.96487708642E+02 0.  0.
        254    2    1    2    0    0  0.65383390406E+03 -0.38113306350E+02 -0.38855222982E+03  0.11864560220E+04  0.90980968268E+03 0.  0.
         23    2    4    4    0    0  0.78400900160E+02  0.31647392532E+03  0.93558357695E+02  0.35119095977E+03  0.90991633545E+02 0.  0.
         23    2    4    4    0    0  0.57543300390E+03 -0.35458723167E+03 -0.48211058752E+03  0.83526506227E+03  0.91552492098E+02 0.  0.
          2    1    3    3  502    0 -0.62289442388E+03  0.48483785505E+02 -0.21870452012E+03  0.66195151475E+03  0.00000000000E+00 0. -1.
         -1    1    3    3    0  502 -0.30939480185E+02 -0.10370479156E+02 -0.32684652964E+02  0.46185331128E+02  0.00000000000E+00 0.  1.
         11    1    5    5    0    0  0.68053801122E+02  0.31383419070E+03  0.10268255701E+03  0.33714526040E+03  0.00000000000E+00 0.  1.
        -11    1    5    5    0    0  0.10347099038E+02  0.26397346213E+01 -0.91241993198E+01  0.14045699363E+02  0.00000000000E+00 0. -1.
          2    1    6    6  503    0  0.13961690972E+03 -0.12882413877E+03 -0.15799805409E+03  0.24708687805E+03  0.00000000000E+00 0. -1.
         -2    1    6    6    0  503  0.43581609418E+03 -0.22576309290E+03 -0.32411253343E+03  0.58817818422E+03  0.00000000000E+00 0.  1.
<mgrwt>
<rscale>  0 0.17832434E+04</rscale>
<asrwt>0</asrwt>
<pdfrwt beam="1">  1        2 0.19496417E+00 0.17832434E+04</pdfrwt>
<pdfrwt beam="2">  1       -1 0.96511651E-01 0.17832434E+04</pdfrwt>
<totfact> 0.19243013E+01</totfact>
</mgrwt>
</event>
<event>
12    6  0.1510140E-007  0.2073315E+04  0.7818608E-02  0.8573090E-01
          2   -1    0    0  501    0  0.00000000000E+00  0.00000000000E+00  0.11475248886E+04  0.11475248886E+04  0.00000000000E+00 0. -1.
         -1   -1    0    0    0  501 -0.00000000000E+00 -0.00000000000E+00 -0.93650166944E+03  0.93650166944E+03  0.00000000000E+00 0.  1.
         24    2    1    2    0    0 -0.20445132067E+03  0.77497879356E+02 -0.72789502318E+03  0.76452984942E+03  0.82876185137E+02 0.  0.
        254    2    1    2    0    0  0.20445132067E+03 -0.77497879356E+02  0.93891824231E+03  0.13194967086E+04  0.90094274757E+03 0.  0.
         23    2    4    4    0    0  0.33295393715E+03  0.16648425534E+03  0.95549664147E+03  0.10295373306E+04  0.91640338804E+02 0.  0.
         23    2    4    4    0    0 -0.12850261648E+03 -0.24398213470E+03 -0.16578399160E+02  0.28995937799E+03  0.88098768832E+02 0.  0.
          2    1    3    3  502    0 -0.34666452665E+02  0.34894984186E+02 -0.84762645831E+02  0.98000658110E+02  0.00000000000E+00 0. -1.
         -1    1    3    3    0  502 -0.16978486800E+03  0.42602895170E+02 -0.64313237735E+03  0.66652919131E+03  0.00000000000E+00 0.  1.
         11    1    5    5    0    0  0.23213582852E+03  0.93950128698E+02  0.73468581062E+03  0.77619386102E+03  0.00000000000E+00 0. -1.
        -11    1    5    5    0    0  0.10081810863E+03  0.72534126646E+02  0.22081083086E+03  0.25334346958E+03  0.00000000000E+00 0.  1.
          3    1    6    6  503    0 -0.39019579980E+02 -0.29038895039E+02 -0.29306440345E+02  0.56786023744E+02  0.00000000000E+00 0. -1.
         -3    1    6    6    0  503 -0.89483036501E+02 -0.21494323966E+03  0.12728041186E+02  0.23317335425E+03  0.00000000000E+00 0.  1.
<mgrwt>
<rscale>  0 0.20733152E+04</rscale>
<asrwt>0</asrwt>
<pdfrwt beam="1">  1        2 0.17654229E+00 0.20733152E+04</pdfrwt>
<pdfrwt beam="2">  1       -1 0.14407718E+00 0.20733152E+04</pdfrwt>
<totfact> 0.83379815E+00</totfact>
</mgrwt>
</event>
<event>
12    6  0.1510140E-007  0.1325856E+04  0.7818608E-02  0.9009309E-01
         -1   -1    0    0    0  501 -0.00000000000E+00  0.00000000000E+00  0.56140276790E+03  0.56140276790E+03  0.00000000000E+00 0.  1.
          2   -1    0    0  501    0  0.00000000000E+00 -0.00000000000E+00 -0.78281338516E+03  0.78281338516E+03  0.00000000000E+00 0. -1.
         24    2    1    2    0    0  0.24219201956E+03 -0.96138178867E+02 -0.26819631150E+03  0.38258610517E+03  0.80890930202E+02 0.  0.
        254    2    1    2    0    0 -0.24219201956E+03  0.96138178867E+02  0.46785694242E+02  0.96163004788E+03  0.92446953656E+03 0.  0.
         23    2    4    4    0    0 -0.26091520666E+02 -0.38957555475E+03 -0.78388651252E+02  0.40821736567E+03  0.89703716091E+02 0.  0.
         23    2    4    4    0    0 -0.21610049890E+03  0.48571373362E+03  0.12517434549E+03  0.55341268221E+03  0.89329297644E+02 0.  0.
          4    1    3    3  502    0  0.19327461451E+03 -0.86142791025E+02 -0.25417329324E+03  0.33072604986E+03  0.00000000000E+00 0. -1.
         -3    1    3    3    0  502  0.48917405052E+02 -0.99953878425E+01 -0.14023018257E+02  0.51860055305E+02  0.00000000000E+00 0.  1.
         11    1    5    5    0    0 -0.14279198853E+02 -0.35024319645E+03 -0.41441103696E+02  0.35297529269E+03  0.00000000000E+00 0. -1.
        -11    1    5    5    0    0 -0.11812321812E+02 -0.39332358303E+02 -0.36947547556E+02  0.55242072977E+02  0.00000000000E+00 0.  1.
          2    1    6    6  503    0 -0.13743963745E+03  0.34542983444E+03  0.47449221705E+02  0.37478374178E+03  0.00000000000E+00 0. -1.
         -2    1    6    6    0  503 -0.78660861450E+02  0.14028389918E+03  0.77725123789E+02  0.17862894044E+03  0.00000000000E+00 0.  1.
<mgrwt>
<rscale>  0 0.13258561E+04</rscale>
<asrwt>0</asrwt>
<pdfrwt beam="1">  1        2 0.12043283E+00 0.13258561E+04</pdfrwt>
<pdfrwt beam="2">  1       -1 0.86369657E-01 0.13258561E+04</pdfrwt>
<totfact> 0.52394462E+01</totfact>
</mgrwt>
</event>
<event>
12    6  0.1510140E-007  0.1672180E+04  0.7818608E-02  0.8777392E-01
         -1   -1    0    0    0  501 -0.00000000000E+00  0.00000000000E+00  0.46955891458E+03  0.46955891458E+03  0.00000000000E+00 0.  1.
          2   -1    0    0  501    0  0.00000000000E+00 -0.00000000000E+00 -0.14887293301E+04  0.14887293301E+04  0.00000000000E+00 0. -1.
         24    2    1    2    0    0 -0.16305977588E+03  0.19019907069E+03  0.27294777935E+03  0.37879942143E+03  0.78894451161E+02 0.  0.
        254    2    1    2    0    0  0.16305977588E+03 -0.19019907069E+03 -0.12921181949E+04  0.15794888232E+04  0.87318459459E+03 0.  0.
         23    2    4    4    0    0  0.12093935144E+03 -0.25143240848E+03 -0.11780525178E+02  0.29369184430E+03  0.90947984449E+02 0.  0.
         23    2    4    4    0    0  0.42120424440E+02  0.61233337787E+02 -0.12803376697E+04  0.12857969789E+04  0.92117700811E+02 0.  0.
          4    1    3    3  502    0 -0.10043453992E+02 -0.36270738885E+01  0.32180947295E+02  0.33906341617E+02  0.00000000000E+00 0. -1.
         -3    1    3    3    0  502 -0.15301632189E+03  0.19382614458E+03  0.24076683205E+03  0.34489307982E+03  0.00000000000E+00 0.  1.
         11    1    5    5    0    0  0.11866254147E+03 -0.16485857440E+03 -0.29614329325E+02  0.20527093511E+03  0.00000000000E+00 0.  1.
        -11    1    5    5    0    0  0.22768099676E+01 -0.86573834079E+02  0.17833804148E+02  0.88420909186E+02  0.00000000000E+00 0. -1.
          3    1    6    6  503    0  0.55041787132E+02  0.63926259148E+02 -0.66647757182E+03  0.67179499751E+03  0.00000000000E+00 0. -1.
         -3    1    6    6    0  503 -0.12921362692E+02 -0.26929213606E+01 -0.61386009788E+03  0.61400198144E+03  0.00000000000E+00 0.  1.
<mgrwt>
<rscale>  0 0.16721796E+04</rscale>
<asrwt>0</asrwt>
<pdfrwt beam="1">  1        2 0.22903529E+00 0.16721796E+04</pdfrwt>
<pdfrwt beam="2">  1       -1 0.72239832E-01 0.16721796E+04</pdfrwt>
<totfact> 0.27061554E+01</totfact>
</mgrwt>
</event>
<event>
12    6  0.1510140E-007  0.2149100E+04  0.7818608E-02  0.8539918E-01
          2   -1    0    0  501    0  0.00000000000E+00  0.00000000000E+00  0.27825152831E+04  0.27825152831E+04  0.00000000000E+00 0. -1.
         -1   -1    0    0    0  501 -0.00000000000E+00 -0.00000000000E+00 -0.41496909134E+03  0.41496909134E+03  0.00000000000E+00 0.  1.
         24    2    1    2    0    0 -0.75161585280E+03  0.20110237374E+03  0.15825105908E+04  0.17652197314E+04  0.79324494767E+02 0.  0.
        254    2    1    2    0    0  0.75161585280E+03 -0.20110237374E+03  0.78503560100E+03  0.14322646430E+04  0.91089656813E+03 0.  0.
         23    2    4    4    0    0  0.67432242203E+03  0.11759167818E+03  0.84050296026E+03  0.10878064842E+04  0.91319161345E+02 0.  0.
         23    2    4    4    0    0  0.77293430770E+02 -0.31869405192E+03 -0.55467359264E+02  0.34445815880E+03  0.89636053268E+02 0.  0.
          4    1    3    3  502    0 -0.72999100494E+03  0.17998021300E+03  0.15228563453E+04  0.16983436616E+04  0.00000000000E+00 0. -1.
         -3    1    3    3    0  502 -0.21624847860E+02  0.21122160742E+02  0.59654245457E+02  0.66876069864E+02  0.00000000000E+00 0.  1.
         11    1    5    5    0    0  0.57818362407E+02  0.41956691341E+01  0.37238905857E+02  0.68900673293E+02  0.00000000000E+00 0. -1.
        -11    1    5    5    0    0  0.61650405962E+03  0.11339600905E+03  0.80326405441E+03  0.10189058109E+04  0.00000000000E+00 0.  1.
          2    1    6    6  503    0  0.11218281538E+02 -0.12608970265E+03 -0.61520154427E+02  0.14074513262E+03  0.00000000000E+00 0. -1.
         -2    1    6    6    0  503  0.66075149232E+02 -0.19260434927E+03  0.60527951627E+01  0.20371302618E+03  0.00000000000E+00 0.  1.
<mgrwt>
<rscale>  0 0.21491001E+04</rscale>
<asrwt>0</asrwt>
<pdfrwt beam="1">  1        2 0.42807926E+00 0.21491001E+04</pdfrwt>
<pdfrwt beam="2">  1       -1 0.63841400E-01 0.21491001E+04</pdfrwt>
<totfact> 0.61631735E+00</totfact>
</mgrwt>
</event>
<event>
12    6  0.1510140E-007  0.1302732E+04  0.7818608E-02  0.9027401E-01
         -1   -1    0    0    0  501 -0.00000000000E+00  0.00000000000E+00  0.51653305107E+03  0.51653305107E+03  0.00000000000E+00 0.  1.
          2   -1    0    0  501    0  0.00000000000E+00 -0.00000000000E+00 -0.82139521812E+03  0.82139521812E+03  0.00000000000E+00 0. -1.
         24    2    1    2    0    0 -0.10660833000E+03  0.15612348809E+03 -0.36941261725E+03  0.42095881105E+03  0.70716046694E+02 0.  0.
        254    2    1    2    0    0  0.10660833000E+03 -0.15612348809E+03  0.64550450196E+02  0.91696945815E+03  0.89494488489E+03 0.  0.
         23    2    4    4    0    0 -0.33956272842E+03 -0.27200336394E+03  0.17533243102E+02  0.44460755265E+03  0.89887622811E+02 0.  0.
         23    2    4    4    0    0  0.44617105842E+03  0.11587987585E+03  0.47017207095E+02  0.47236190550E+03  0.91751801087E+02 0.  0.
          4    1    3    3  502    0 -0.27059612812E+02  0.86414554152E+02 -0.21991270588E+03  0.23782618868E+03  0.00000000000E+00 0. -1.
         -3    1    3    3    0  502 -0.79548717186E+02  0.69708933940E+02 -0.14949991137E+03  0.18313262237E+03  0.00000000000E+00 0.  1.
         11    1    5    5    0    0 -0.25221692872E+03 -0.21208724427E+03 -0.24960701800E+02  0.33048058180E+03  0.00000000000E+00 0. -1.
        -11    1    5    5    0    0 -0.87345799702E+02 -0.59916119667E+02  0.42493944902E+02  0.11412697085E+03  0.00000000000E+00 0.  1.
          2    1    6    6  503    0  0.38023520768E+03  0.13134087795E+03  0.41416077668E+02  0.40440639321E+03  0.00000000000E+00 0. -1.
         -2    1    6    6    0  503  0.65935850737E+02 -0.15461002107E+02  0.56011294270E+01  0.67955512281E+02  0.00000000000E+00 0.  1.
<mgrwt>
<rscale>  0 0.13027322E+04</rscale>
<asrwt>0</asrwt>
<pdfrwt beam="1">  1        2 0.12636849E+00 0.13027322E+04</pdfrwt>
<pdfrwt beam="2">  1       -1 0.79466624E-01 0.13027322E+04</pdfrwt>
<totfact> 0.58879737E+01</totfact>
</mgrwt>
</event>
<event>
12    6  0.1510140E-007  0.1618407E+04  0.7818608E-02  0.8809319E-01
          2   -1    0    0  501    0  0.00000000000E+00  0.00000000000E+00  0.64358467822E+03  0.64358467822E+03  0.00000000000E+00 0. -1.
         -1   -1    0    0    0  501 -0.00000000000E+00 -0.00000000000E+00 -0.10174417986E+04  0.10174417986E+04  0.00000000000E+00 0.  1.
         24    2    1    2    0    0  0.23026391748E+02 -0.16160227728E+03 -0.67926892382E+03  0.70300794537E+03  0.78539096339E+02 0.  0.
        254    2    1    2    0    0 -0.23026391748E+02  0.16160227728E+03  0.30541180341E+03  0.95801853148E+03  0.89323996006E+03 0.  0.
         23    2    4    4    0    0 -0.39547299068E+03  0.91693347272E+02 -0.63686101243E+02  0.42092513615E+03  0.91189333065E+02 0.  0.
         23    2    4    4    0    0  0.37244659893E+03  0.69908930009E+02  0.36909790465E+03  0.53709339532E+03  0.92910303721E+02 0.  0.
          4    1    3    3  502    0 -0.11767733579E+02 -0.99488082267E+02 -0.27864518260E+03  0.29610723708E+03  0.00000000000E+00 0. -1.
         -3    1    3    3    0  502  0.34794125327E+02 -0.62114195014E+02 -0.40062374122E+03  0.40690070829E+03  0.00000000000E+00 0.  1.
         11    1    5    5    0    0 -0.89187072498E+02  0.46113371341E+02 -0.46885767581E+02  0.11081088448E+03  0.00000000000E+00 0.  1.
        -11    1    5    5    0    0 -0.30628591818E+03  0.45579975931E+02 -0.16800333662E+02  0.31011425167E+03  0.00000000000E+00 0. -1.
          4    1    6    6  503    0  0.91070248672E+01 -0.65559508951E+01 -0.28091143190E+01  0.11567606379E+02  0.00000000000E+00 0. -1.
         -4    1    6    6    0  503  0.36333957406E+03  0.76464880904E+02  0.37190701897E+03  0.52552578895E+03  0.00000000000E+00 0.  1.
<mgrwt>
<rscale>  0 0.16184066E+04</rscale>
<asrwt>0</asrwt>
<pdfrwt beam="1">  1        2 0.99013027E-01 0.16184066E+04</pdfrwt>
<pdfrwt beam="2">  1       -1 0.15652951E+00 0.16184066E+04</pdfrwt>
<totfact> 0.15465348E+01</totfact>
</mgrwt>
</event>
<event>
12    6  0.1510140E-007  0.2446141E+04  0.7818608E-02  0.8422428E-01
         -1   -1    0    0    0  501 -0.00000000000E+00  0.00000000000E+00  0.10141315571E+04  0.10141315571E+04  0.00000000000E+00 0.  1.
          2   -1    0    0  501    0  0.00000000000E+00 -0.00000000000E+00 -0.14750570742E+04  0.14750570742E+04  0.00000000000E+00 0. -1.
         24    2    1    2    0    0 -0.53509022085E+03 -0.49682571306E+03  0.58039808906E+03  0.93616432389E+03  0.79902227303E+02 0.  0.
        254    2    1    2    0    0  0.53509022085E+03  0.49682571306E+03 -0.10413236061E+04  0.15530243074E+04  0.89127566612E+03 0.  0.
         23    2    4    4    0    0  0.33740475785E+03 -0.16675896181E+03 -0.63998504953E+03  0.74771047612E+03  0.88541349155E+02 0.  0.
         23    2    4    4    0    0  0.19768546299E+03  0.66358467488E+03 -0.40133855662E+03  0.80531383127E+03  0.89630166786E+02 0.  0.
          4    1    3    3  502    0 -0.30968376721E+03 -0.27373204348E+03  0.27918201321E+03  0.49877436162E+03  0.00000000000E+00 0. -1.
         -1    1    3    3    0  502 -0.22540645364E+03 -0.22309366958E+03  0.30121607584E+03  0.43738996227E+03  0.00000000000E+00 0.  1.
         11    1    5    5    0    0  0.11329810008E+03 -0.52293931698E+02 -0.13715315658E+03  0.18542411692E+03  0.00000000000E+00 0. -1.
        -11    1    5    5    0    0  0.22410665777E+03 -0.11446503011E+03 -0.50283189295E+03  0.56228635920E+03  0.00000000000E+00 0.  1.
          1    1    6    6  503    0  0.12939289694E+02  0.89165389978E+02 -0.85694591178E+02  0.12434409895E+03  0.00000000000E+00 0. -1.
         -1    1    6    6    0  503  0.18474617330E+03  0.57441928490E+03 -0.31564396544E+03  0.68096973231E+03  0.00000000000E+00 0.  1.
<mgrwt>
<rscale>  0 0.24461414E+04</rscale>
<asrwt>0</asrwt>
<pdfrwt beam="1">  1        2 0.22693186E+00 0.24461414E+04</pdfrwt>
<pdfrwt beam="2">  1       -1 0.15602024E+00 0.24461414E+04</pdfrwt>
<totfact> 0.41940795E+00</totfact>
</mgrwt>
</event>
<event>
12    6  0.1510140E-007  0.2238953E+04  0.7818608E-02  0.8502388E-01
          2   -1    0    0  501    0  0.00000000000E+00  0.00000000000E+00  0.92420324783E+03  0.92420324783E+03  0.00000000000E+00 0. -1.
         -1   -1    0    0    0  501 -0.00000000000E+00 -0.00000000000E+00 -0.13560087076E+04  0.13560087076E+04  0.00000000000E+00 0.  1.
         24    2    1    2    0    0 -0.82593498902E+03  0.38621213897E+03 -0.41211586973E+03  0.10040766711E+04  0.83678246672E+02 0.  0.
        254    2    1    2    0    0  0.82593498902E+03 -0.38621213897E+03 -0.19689590018E+02  0.12761352843E+04  0.89263943534E+03 0.  0.
         23    2    4    4    0    0  0.90939447444E+03 -0.52236742408E+03 -0.12864910550E+03  0.10604795637E+04  0.90555380336E+02 0.  0.
         23    2    4    4    0    0 -0.83459485419E+02  0.13615528510E+03  0.10895951548E+03  0.21565572056E+03  0.95558706715E+02 0.  0.
          2    1    3    3  502    0 -0.91859595949E+02  0.73390160320E+02 -0.57310319125E+02  0.13080051100E+03  0.00000000000E+00 0. -1.
         -1    1    3    3    0  502 -0.73407539307E+03  0.31282197865E+03 -0.35480555060E+03  0.87327616009E+03  0.00000000000E+00 0.  1.
         11    1    5    5    0    0  0.45473287135E+03 -0.28690413872E+03 -0.26196809615E+02  0.53831425945E+03  0.00000000000E+00 0. -1.
        -11    1    5    5    0    0  0.45466160309E+03 -0.23546328535E+03 -0.10245229588E+03  0.52216530430E+03  0.00000000000E+00 0.  1.
          1    1    6    6  503    0  0.88256479320E+01  0.29115760769E+02 -0.88267086577E+01  0.31678547509E+02  0.00000000000E+00 0. -1.
         -1    1    6    6    0  503 -0.92285133351E+02  0.10703952433E+03  0.11778622414E+03  0.18397717305E+03  0.00000000000E+00 0.  1.
<mgrwt>
<rscale>  0 0.22389530E+04</rscale>
<asrwt>0</asrwt>
<pdfrwt beam="1">  1        2 0.14218512E+00 0.22389530E+04</pdfrwt>
<pdfrwt beam="2">  1       -1 0.20861672E+00 0.22389530E+04</pdfrwt>
<totfact> 0.38555505E+00</totfact>
</mgrwt>
</event>
<event>
12    6  0.1510140E-007  0.1684610E+04  0.7818608E-02  0.8770191E-01
          2   -1    0    0  501    0  0.00000000000E+00  0.00000000000E+00  0.64035866407E+03  0.64035866407E+03  0.00000000000E+00 0. -1.
         -1   -1    0    0    0  501 -0.00000000000E+00 -0.00000000000E+00 -0.11079381323E+04  0.11079381323E+04  0.00000000000E+00 0.  1.
         24    2    1    2    0    0  0.59653228077E+03  0.78526886922E+01 -0.18343738182E+03  0.62921434203E+03  0.79680539936E+02 0.  0.
        254    2    1    2    0    0 -0.59653228077E+03 -0.78526886922E+01 -0.28414208639E+03  0.11190824543E+04  0.90315911532E+03 0.  0.
         23    2    4    4    0    0 -0.42155145787E+03  0.48541253574E+02 -0.60175047257E+03  0.74194379450E+03  0.91187049594E+02 0.  0.
         23    2    4    4    0    0 -0.17498082290E+03 -0.56393942266E+02  0.31760838618E+03  0.37713865982E+03  0.86947781187E+02 0.  0.
          4    1    3    3  502    0  0.47117992654E+03  0.30350619210E+02 -0.12119432651E+03  0.48746256066E+03  0.00000000000E+00 0. -1.
         -3    1    3    3    0  502  0.12535235423E+03 -0.22497930517E+02 -0.62243055307E+02  0.14175178137E+03  0.00000000000E+00 0.  1.
         11    1    5    5    0    0 -0.31137066521E+02  0.26152569108E+02 -0.36731221299E+02  0.54796499894E+02  0.00000000000E+00 0. -1.
        -11    1    5    5    0    0 -0.39041439135E+03  0.22388684466E+02 -0.56501925127E+03  0.68714729460E+03  0.00000000000E+00 0.  1.
          3    1    6    6  503    0 -0.37474356010E+02 -0.20989540537E+02  0.19973637954E+02  0.47369129013E+02  0.00000000000E+00 0. -1.
         -3    1    6    6    0  503 -0.13750646689E+03 -0.35404401730E+02  0.29763474823E+03  0.32976953081E+03  0.00000000000E+00 0.  1.
<mgrwt>
<rscale>  0 0.16846101E+04</rscale>
<asrwt>0</asrwt>
<pdfrwt beam="1">  1        2 0.98516718E-01 0.16846101E+04</pdfrwt>
<pdfrwt beam="2">  1       -1 0.17045202E+00 0.16846101E+04</pdfrwt>
<totfact> 0.12169820E+01</totfact>
</mgrwt>
</event>
<event>
12    6  0.1510140E-007  0.2545583E+04  0.7818608E-02  0.8386924E-01
         -1   -1    0    0    0  501 -0.00000000000E+00  0.00000000000E+00  0.51200321850E+03  0.51200321850E+03  0.00000000000E+00 0.  1.
          2   -1    0    0  501    0  0.00000000000E+00 -0.00000000000E+00 -0.31640396985E+04  0.31640396985E+04  0.00000000000E+00 0. -1.
         24    2    1    2    0    0  0.10554467193E+04 -0.24390359272E+03 -0.15099029972E+04  0.18600968375E+04  0.81831802736E+02 0.  0.
        254    2    1    2    0    0 -0.10554467193E+04  0.24390359272E+03 -0.11421334828E+04  0.18159460795E+04  0.90539192142E+03 0.  0.
         23    2    4    4    0    0 -0.99464497685E+03  0.38956965684E+03 -0.56763715356E+03  0.12132570955E+04  0.93261429279E+02 0.  0.
         23    2    4    4    0    0 -0.60801742461E+02 -0.14566606411E+03 -0.57449632921E+03  0.60268898400E+03  0.90953422404E+02 0.  0.
          2    1    3    3  502    0  0.30958314354E+03 -0.55604457381E+02 -0.49747775215E+03  0.58857258884E+03  0.00000000000E+00 0. -1.
         -1    1    3    3    0  502  0.74586357577E+03 -0.18829913534E+03 -0.10124252451E+04  0.12715242486E+04  0.00000000000E+00 0.  1.
         11    1    5    5    0    0 -0.31160669420E+03  0.13001672512E+03 -0.22853126887E+03  0.40771267031E+03  0.00000000000E+00 0. -1.
        -11    1    5    5    0    0 -0.68303828265E+03  0.25955293171E+03 -0.33910588468E+03  0.80554442519E+03  0.00000000000E+00 0.  1.
          3    1    6    6  503    0  0.12785513529E+02 -0.63967471368E+02 -0.13929830265E+03  0.15381587653E+03  0.00000000000E+00 0. -1.
         -3    1    6    6    0  503 -0.73587255990E+02 -0.81698592744E+02 -0.43519802655E+03  0.44887310748E+03  0.00000000000E+00 0.  1.
<mgrwt>
<rscale>  0 0.25455832E+04</rscale>
<asrwt>0</asrwt>
<pdfrwt beam="1">  1        2 0.48677534E+00 0.25455832E+04</pdfrwt>
<pdfrwt beam="2">  1       -1 0.78769726E-01 0.25455832E+04</pdfrwt>
<totfact> 0.22298779E+00</totfact>
</mgrwt>
</event>
<event>
12    6  0.1510140E-007  0.2021996E+04  0.7818608E-02  0.8596405E-01
          2   -1    0    0  501    0  0.00000000000E+00  0.00000000000E+00  0.17221139932E+04  0.17221139932E+04  0.00000000000E+00 0. -1.
         -1   -1    0    0    0  501 -0.00000000000E+00 -0.00000000000E+00 -0.59352469643E+03  0.59352469643E+03  0.00000000000E+00 0.  1.
         24    2    1    2    0    0 -0.17999395592E+03 -0.64947111413E+03  0.97626443911E+03  0.11889106081E+04  0.78775800909E+02 0.  0.
        254    2    1    2    0    0  0.17999395592E+03  0.64947111413E+03  0.15232485766E+03  0.11267280815E+04  0.89000154782E+03 0.  0.
         23    2    4    4    0    0  0.45723193931E+03  0.25577290821E+03  0.30453901236E+03  0.61301444132E+03  0.92530364306E+02 0.  0.
         23    2    4    4    0    0 -0.27723798339E+03  0.39369820593E+03 -0.15221415469E+03  0.51371364019E+03  0.94198611658E+02 0.  0.
          4    1    3    3  502    0 -0.16051382426E+03 -0.56251094034E+03  0.79604391668E+03  0.98786090269E+03  0.00000000000E+00 0. -1.
         -3    1    3    3    0  502 -0.19480131661E+02 -0.86960173798E+02  0.18022052243E+03  0.20104970545E+03  0.00000000000E+00 0.  1.
         11    1    5    5    0    0  0.28861790737E+03  0.20479519749E+03  0.17810645818E+03  0.39618591572E+03  0.00000000000E+00 0. -1.
        -11    1    5    5    0    0  0.16861403194E+03  0.50977710719E+02  0.12643255418E+03  0.21682852560E+03  0.00000000000E+00 0.  1.
          4    1    6    6  503    0 -0.25290348245E+03  0.29434175921E+03 -0.12750497882E+03  0.40847859463E+03  0.00000000000E+00 0. -1.
         -4    1    6    6    0  503 -0.24334500947E+02  0.99356446718E+02 -0.24709175875E+02  0.10523504556E+03  0.00000000000E+00 0.  1.
<mgrwt>
<rscale>  0 0.20219962E+04</rscale>
<asrwt>0</asrwt>
<pdfrwt beam="1">  1        2 0.26494061E+00 0.20219962E+04</pdfrwt>
<pdfrwt beam="2">  1       -1 0.91311492E-01 0.20219962E+04</pdfrwt>
<totfact> 0.11778527E+01</totfact>
</mgrwt>
</event>
<event>
12    6  0.1510140E-007  0.1693452E+04  0.7818608E-02  0.8765108E-01
         -1   -1    0    0    0  501 -0.00000000000E+00  0.00000000000E+00  0.85173482699E+03  0.85173482699E+03  0.00000000000E+00 0.  1.
          2   -1    0    0  501    0  0.00000000000E+00 -0.00000000000E+00 -0.84174664238E+03  0.84174664238E+03  0.00000000000E+00 0. -1.
         24    2    1    2    0    0  0.11028154436E+03 -0.34357573017E+03 -0.45281911625E+03  0.58439325712E+03  0.79145597128E+02 0.  0.
        254    2    1    2    0    0 -0.11028154436E+03  0.34357573017E+03  0.46280730086E+03  0.11090882122E+04  0.94110560694E+03 0.  0.
         23    2    4    4    0    0 -0.78552817076E+02 -0.30358276728E+03  0.27797601043E+03  0.42910130258E+03  0.92326723356E+02 0.  0.
         23    2    4    4    0    0 -0.31728727286E+02  0.64715849744E+03  0.18483129043E+03  0.67998690966E+03  0.91644740407E+02 0.  0.
          4    1    3    3  502    0  0.73300425312E+02 -0.31211050067E+03 -0.40044908275E+03  0.51297698277E+03  0.00000000000E+00 0. -1.
         -3    1    3    3    0  502  0.36981119050E+02 -0.31465229497E+02 -0.52370033501E+02  0.71416274352E+02  0.00000000000E+00 0.  1.
         11    1    5    5    0    0 -0.19735664241E+02 -0.35687842416E+02  0.83338676410E+02  0.92781752112E+02  0.00000000000E+00 0. -1.
        -11    1    5    5    0    0 -0.58817152835E+02 -0.26789492486E+03  0.19463733402E+03  0.33631955047E+03  0.00000000000E+00 0.  1.
          4    1    6    6  503    0  0.52379480137E+01  0.11772177304E+03 -0.47991378501E+00  0.11783922210E+03  0.00000000000E+00 0. -1.
         -4    1    6    6    0  503 -0.36966675299E+02  0.52943672440E+03  0.18531120422E+03  0.56214768756E+03  0.00000000000E+00 0.  1.
<mgrwt>
<rscale>  0 0.16934520E+04</rscale>
<asrwt>0</asrwt>
<pdfrwt beam="1">  1        2 0.12949948E+00 0.16934520E+04</pdfrwt>
<pdfrwt beam="2">  1       -1 0.13103613E+00 0.16934520E+04</pdfrwt>
<totfact> 0.17376102E+01</totfact>
</mgrwt>
</event>
<event>
12    6  0.1510140E-007  0.2510156E+04  0.7818608E-02  0.8399376E-01
         -1   -1    0    0    0  501 -0.00000000000E+00  0.00000000000E+00  0.43318026487E+03  0.43318026487E+03  0.00000000000E+00 0.  1.
          2   -1    0    0  501    0  0.00000000000E+00 -0.00000000000E+00 -0.36364087335E+04  0.36364087335E+04  0.00000000000E+00 0. -1.
         24    2    1    2    0    0 -0.10509557377E+04 -0.28269019617E+03 -0.13255184030E+04  0.17169823178E+04  0.81286735783E+02 0.  0.
        254    2    1    2    0    0  0.10509557377E+04  0.28269019617E+03 -0.18777100657E+04  0.23526066806E+04  0.90804261644E+03 0.  0.
         23    2    4    4    0    0  0.34383862015E+02 -0.70863795293E+02 -0.85876344346E+03  0.86734388013E+03  0.92772987000E+02 0.  0.
         23    2    4    4    0    0  0.10165718757E+04  0.35355399146E+03 -0.10189466222E+04  0.14852628005E+04  0.96615548839E+02 0.  0.
          4    1    3    3  502    0 -0.63191141861E+03 -0.17336063910E+03 -0.73492719800E+03  0.98462375480E+03  0.00000000000E+00 0. -1.
         -3    1    3    3    0  502 -0.41904431907E+03 -0.10932955707E+03 -0.59059120495E+03  0.73235856297E+03  0.00000000000E+00 0.  1.
         11    1    5    5    0    0  0.57287136644E+02 -0.65289456824E+02 -0.47632948350E+03  0.48418416542E+03  0.00000000000E+00 0. -1.
        -11    1    5    5    0    0 -0.22903274629E+02 -0.55743384684E+01 -0.38243395997E+03  0.38315971471E+03  0.00000000000E+00 0.  1.
          1    1    6    6  503    0  0.33957822575E+03  0.71819495978E+02 -0.34265167683E+03  0.48773105606E+03  0.00000000000E+00 0. -1.
         -1    1    6    6    0  503  0.67699364991E+03  0.28173449549E+03 -0.67629494540E+03  0.99753174443E+03  0.00000000000E+00 0.  1.
<mgrwt>
<rscale>  0 0.25101558E+04</rscale>
<asrwt>0</asrwt>
<pdfrwt beam="1">  1        2 0.55944752E+00 0.25101558E+04</pdfrwt>
<pdfrwt beam="2">  1       -1 0.66643115E-01 0.25101558E+04</pdfrwt>
<totfact> 0.15048831E+00</totfact>
</mgrwt>
</event>
<event>
12    6  0.1510140E-007  0.1178500E+04  0.7818608E-02  0.9131886E-01
          2   -1    0    0  501    0  0.00000000000E+00  0.00000000000E+00  0.63612476916E+03  0.63612476916E+03  0.00000000000E+00 0. -1.
         -1   -1    0    0    0  501 -0.00000000000E+00 -0.00000000000E+00 -0.54582924094E+03  0.54582924094E+03  0.00000000000E+00 0.  1.
         24    2    1    2    0    0  0.75424470792E+02  0.15970888172E+03  0.18395611090E+03  0.26718899752E+03  0.79714063773E+02 0.  0.
        254    2    1    2    0    0 -0.75424470792E+02 -0.15970888172E+03 -0.93660582688E+02  0.91476501258E+03  0.89265163743E+03 0.  0.
         23    2    4    4    0    0  0.26005083696E+03 -0.31693609607E+03 -0.26589667711E+03  0.49600611519E+03  0.85124007227E+02 0.  0.
         23    2    4    4    0    0 -0.33547530775E+03  0.15722721436E+03  0.17223609442E+03  0.41875889740E+03  0.91813195579E+02 0.  0.
          4    1    3    3  502    0  0.22875287717E+02  0.24429252032E+02  0.85498624469E+02  0.91815477612E+02  0.00000000000E+00 0. -1.
         -3    1    3    3    0  502  0.52549183076E+02  0.13527962969E+03  0.98457486430E+02  0.17537351990E+03  0.00000000000E+00 0.  1.
         11    1    5    5    0    0  0.17610322562E+03 -0.20455200639E+03 -0.12593552600E+03  0.29784832735E+03  0.00000000000E+00 0. -1.
        -11    1    5    5    0    0  0.83947611337E+02 -0.11238408968E+03 -0.13996115110E+03  0.19815778784E+03  0.00000000000E+00 0.  1.
          2    1    6    6  503    0 -0.24654089897E+03  0.12610332217E+03  0.83263138058E+02  0.28916641037E+03  0.00000000000E+00 0. -1.
         -2    1    6    6    0  503 -0.88934408786E+02  0.31123892186E+02  0.88972956360E+02  0.12959248703E+03  0.00000000000E+00 0.  1.
<mgrwt>
<rscale>  0 0.11784999E+04</rscale>
<asrwt>0</asrwt>
<pdfrwt beam="1">  1        2 0.97865350E-01 0.11784999E+04</pdfrwt>
<pdfrwt beam="2">  1       -1 0.83973729E-01 0.11784999E+04</pdfrwt>
<totfact> 0.73320140E+01</totfact>
</mgrwt>
</event>
<event>
12    6  0.1510140E-007  0.1719939E+04  0.7818608E-02  0.8750074E-01
         -1   -1    0    0    0  501 -0.00000000000E+00  0.00000000000E+00  0.22574401824E+03  0.22574401824E+03  0.00000000000E+00 0.  1.
          2   -1    0    0  501    0  0.00000000000E+00 -0.00000000000E+00 -0.32760443749E+04  0.32760443749E+04  0.00000000000E+00 0. -1.
         24    2    1    2    0    0  0.41610035732E+03  0.41723588054E+03 -0.15142929861E+04  0.16268469761E+04  0.79514455144E+02 0.  0.
        254    2    1    2    0    0 -0.41610035732E+03 -0.41723588054E+03 -0.15360073706E+04  0.18749414171E+04  0.89936721505E+03 0.  0.
         23    2    4    4    0    0  0.25609785691E+03 -0.20266811240E+03 -0.69157658014E+03  0.77072294374E+03  0.95263916176E+02 0.  0.
         23    2    4    4    0    0 -0.67219821423E+03 -0.21456776815E+03 -0.84443079046E+03  0.11042184733E+04  0.91352671563E+02 0.  0.
          4    1    3    3  502    0  0.39460838895E+03  0.38601399626E+03 -0.13554921176E+04  0.14635851416E+04  0.00000000000E+00 0. -1.
         -3    1    3    3    0  502  0.21491968364E+02  0.31221884282E+02 -0.15880086846E+03  0.16326183444E+03  0.00000000000E+00 0.  1.
         11    1    5    5    0    0  0.72719116110E+01 -0.38868723451E+02 -0.53465838155E+02  0.66500031660E+02  0.00000000000E+00 0.  1.
        -11    1    5    5    0    0  0.24882594530E+03 -0.16379938894E+03 -0.63811074198E+03  0.70422291208E+03  0.00000000000E+00 0. -1.
          3    1    6    6  503    0 -0.57936772999E+03 -0.15186787286E+03 -0.69527121188E+03  0.91767798025E+03  0.00000000000E+00 0. -1.
         -3    1    6    6    0  503 -0.92830484236E+02 -0.62699895291E+02 -0.14915957858E+03  0.18654049307E+03  0.00000000000E+00 0.  1.
<mgrwt>
<rscale>  0 0.17199389E+04</rscale>
<asrwt>0</asrwt>
<pdfrwt beam="1">  1        2 0.50400683E+00 0.17199389E+04</pdfrwt>
<pdfrwt beam="2">  1       -1 0.34729849E-01 0.17199389E+04</pdfrwt>
<totfact> 0.99052939E+00</totfact>
</mgrwt>
</event>
<event>
12    6  0.1510140E-007  0.3003477E+04  0.7818608E-02  0.8242739E-01
          2   -1    0    0  501    0  0.00000000000E+00  0.00000000000E+00  0.19707553244E+04  0.19707553244E+04  0.00000000000E+00 0. -1.
         -1   -1    0    0    0  501 -0.00000000000E+00 -0.00000000000E+00 -0.11443418803E+04  0.11443418803E+04  0.00000000000E+00 0.  1.
         24    2    1    2    0    0  0.53199810937E+03  0.67220454594E+03 -0.72610360007E+03  0.11262741072E+04  0.79912368098E+02 0.  0.
        254    2    1    2    0    0 -0.53199810937E+03 -0.67220454594E+03  0.15525170442E+04  0.19888230975E+04  0.90012621370E+03 0.  0.
         23    2    4    4    0    0 -0.15217179445E+03  0.38941675718E+02 -0.53945320002E+02  0.18906027389E+03  0.90338145207E+02 0.  0.
         23    2    4    4    0    0 -0.37982631492E+03 -0.71114622165E+03  0.16064623642E+04  0.17997628236E+04  0.91803679084E+02 0.  0.
          2    1    3    3  502    0  0.62745805283E+02  0.58650421707E+02 -0.47798471633E+02  0.98293448090E+02  0.00000000000E+00 0. -1.
         -1    1    3    3    0  502  0.46925230408E+03  0.61355412423E+03 -0.67830512843E+03  0.10279806591E+04  0.00000000000E+00 0.  1.
         11    1    5    5    0    0 -0.15719417978E+03  0.53238637422E+02 -0.47832535506E+02  0.17272033500E+03  0.00000000000E+00 0.  1.
        -11    1    5    5    0    0  0.50223853323E+01 -0.14296961705E+02 -0.61127844958E+01  0.16339938883E+02  0.00000000000E+00 0. -1.
          1    1    6    6  503    0  0.13448372274E+01 -0.70451364099E+01  0.35338808702E+01  0.79956768448E+01  0.00000000000E+00 0. -1.
         -1    1    6    6    0  503 -0.38117115215E+03 -0.70410108524E+03  0.16029284834E+04  0.17917671468E+04  0.00000000000E+00 0.  1.
<mgrwt>
<rscale>  0 0.30034766E+04</rscale>
<asrwt>0</asrwt>
<pdfrwt beam="1">  1        2 0.30319313E+00 0.30034766E+04</pdfrwt>
<pdfrwt beam="2">  1       -1 0.17605260E+00 0.30034766E+04</pdfrwt>
<totfact> 0.15006945E+00</totfact>
</mgrwt>
</event>
<event>
12    6  0.1510140E-007  0.2277487E+04  0.7818608E-02  0.8486851E-01
         -1   -1    0    0    0  501 -0.00000000000E+00  0.00000000000E+00  0.25545540579E+04  0.25545540579E+04  0.00000000000E+00 0.  1.
          2   -1    0    0  501    0  0.00000000000E+00 -0.00000000000E+00 -0.50761774829E+03  0.50761774829E+03  0.00000000000E+00 0. -1.
         24    2    1    2    0    0  0.50057119234E+03  0.43163226303E+03 -0.72252081822E+02  0.66864062523E+03  0.70583236596E+02 0.  0.
        254    2    1    2    0    0 -0.50057119234E+03 -0.43163226303E+03  0.21191883914E+04  0.23935311810E+04  0.89507214615E+03 0.  0.
         23    2    4    4    0    0  0.88897690831E+02  0.20160438481E+03  0.38284430834E+03  0.45141989342E+03  0.93075390635E+02 0.  0.
         23    2    4    4    0    0 -0.58946888317E+03 -0.63323664784E+03  0.17363440831E+04  0.19421112875E+04  0.91887223956E+02 0.  0.
          2    1    3    3  502    0  0.38191768347E+03  0.28756263988E+03 -0.53790533291E+02  0.48108919160E+03  0.00000000000E+00 0. -1.
         -1    1    3    3    0  502  0.11865350887E+03  0.14406962315E+03 -0.18461548531E+02  0.18755143363E+03  0.00000000000E+00 0.  1.
         11    1    5    5    0    0  0.19144867931E+02  0.11604942874E+03  0.12876387981E+03  0.17439648110E+03  0.00000000000E+00 0.  1.
        -11    1    5    5    0    0  0.69752822900E+02  0.85554956073E+02  0.25408042853E+03  0.27702341232E+03  0.00000000000E+00 0. -1.
          2    1    6    6  503    0 -0.42613051175E+03 -0.39514099172E+03  0.11443294312E+04  0.12834381416E+04  0.00000000000E+00 0. -1.
         -2    1    6    6    0  503 -0.16333837142E+03 -0.23809565612E+03  0.59201465192E+03  0.65867314590E+03  0.00000000000E+00 0.  1.
<mgrwt>
<rscale>  0 0.22774872E+04</rscale>
<asrwt>0</asrwt>
<pdfrwt beam="1">  1        2 0.78095040E-01 0.22774872E+04</pdfrwt>
<pdfrwt beam="2">  1       -1 0.39300831E+00 0.22774872E+04</pdfrwt>
<totfact> 0.50133797E-01</totfact>
</mgrwt>
</event>
<event>
12    6  0.1510140E-007  0.1549414E+04  0.7818608E-02  0.8852242E-01
         -1   -1    0    0    0  501 -0.00000000000E+00  0.00000000000E+00  0.51237504864E+03  0.51237504864E+03  0.00000000000E+00 0.  1.
          2   -1    0    0  501    0  0.00000000000E+00 -0.00000000000E+00 -0.11713504144E+04  0.11713504144E+04  0.00000000000E+00 0. -1.
         24    2    1    2    0    0  0.38471208640E+03  0.26480381273E+03 -0.87230276668E+02  0.48318986663E+03  0.87970889437E+02 0.  0.
        254    2    1    2    0    0 -0.38471208640E+03 -0.26480381273E+03 -0.57174508912E+03  0.12005355964E+04  0.94671475256E+03 0.  0.
         23    2    4    4    0    0 -0.61414901598E+02 -0.57229872675E+03 -0.21069214133E+03  0.61953919430E+03  0.90222015508E+02 0.  0.
         23    2    4    4    0    0 -0.32329718480E+03  0.30749491402E+03 -0.36105294779E+03  0.58099640213E+03  0.90129885859E+02 0.  0.
          2    1    3    3  502    0 -0.84778556765E+00  0.64166790234E+01  0.70569729093E+01  0.95756658620E+01  0.00000000000E+00 0. -1.
         -1    1    3    3    0  502  0.38555987197E+03  0.25838713371E+03 -0.94287249578E+02  0.47361420077E+03  0.00000000000E+00 0.  1.
         11    1    5    5    0    0 -0.19000994271E+02 -0.26379552450E+03 -0.50168559383E+02  0.26919509817E+03  0.00000000000E+00 0.  1.
        -11    1    5    5    0    0 -0.42413907327E+02 -0.30850320225E+03 -0.16052358194E+03  0.35034409613E+03  0.00000000000E+00 0. -1.
          4    1    6    6  503    0 -0.89000316088E+02  0.75983218079E+02 -0.14816519121E+03  0.18880526894E+03  0.00000000000E+00 0.  1.
         -4    1    6    6    0  503 -0.23429686872E+03  0.23151169594E+03 -0.21288775658E+03  0.39219113319E+03  0.00000000000E+00 0. -1.
<mgrwt>
<rscale>  0 0.15494137E+04</rscale>
<asrwt>0</asrwt>
<pdfrwt beam="1">  1        2 0.18020776E+00 0.15494137E+04</pdfrwt>
<pdfrwt beam="2">  1       -1 0.78826930E-01 0.15494137E+04</pdfrwt>
<totfact> 0.34827080E+01</totfact>
</mgrwt>
</event>
<event>
12    6  0.1510140E-007  0.1941338E+04  0.7818608E-02  0.8634549E-01
          2   -1    0    0  501    0  0.00000000000E+00  0.00000000000E+00  0.13023155761E+04  0.13023155761E+04  0.00000000000E+00 0. -1.
         -1   -1    0    0    0  501 -0.00000000000E+00 -0.00000000000E+00 -0.72347891910E+03  0.72347891910E+03  0.00000000000E+00 0.  1.
         24    2    1    2    0    0  0.48243931735E+03 -0.58067640388E+03  0.26269976519E+03  0.80334417225E+03  0.80111868753E+02 0.  0.
        254    2    1    2    0    0 -0.48243931735E+03  0.58067640388E+03  0.31613689179E+03  0.12224503229E+04  0.90802504190E+03 0.  0.
         23    2    4    4    0    0 -0.30910457256E+03  0.42785041697E+02 -0.25555287089E+03  0.41333024960E+03  0.90324021381E+02 0.  0.
         23    2    4    4    0    0 -0.17333474479E+03  0.53789136218E+03  0.57168976269E+03  0.80912007333E+03  0.92054641619E+02 0.  0.
          2    1    3    3  502    0  0.85781189188E+02 -0.82147403849E+02  0.69518624583E+02  0.13762066539E+03  0.00000000000E+00 0. -1.
         -1    1    3    3    0  502  0.39665812817E+03 -0.49852900003E+03  0.19318114060E+03  0.66572350687E+03  0.00000000000E+00 0.  1.
         11    1    5    5    0    0 -0.94364167080E+02 -0.34799183506E+01 -0.12883123253E+03  0.15973162597E+03  0.00000000000E+00 0. -1.
        -11    1    5    5    0    0 -0.21474040548E+03  0.46264960048E+02 -0.12672163836E+03  0.25359862362E+03  0.00000000000E+00 0.  1.
          4    1    6    6  503    0 -0.22016773955E+02  0.50261727903E+02  0.99743851902E+02  0.11384118595E+03  0.00000000000E+00 0. -1.
         -4    1    6    6    0  503 -0.15131797084E+03  0.48762963428E+03  0.47194591078E+03  0.69527888737E+03  0.00000000000E+00 0.  1.
<mgrwt>
<rscale>  0 0.19413375E+04</rscale>
<asrwt>0</asrwt>
<pdfrwt beam="1">  1        2 0.20035624E+00 0.19413375E+04</pdfrwt>
<pdfrwt beam="2">  1       -1 0.11130445E+00 0.19413375E+04</pdfrwt>
<totfact> 0.13014834E+01</totfact>
</mgrwt>
</event>
<event>
12    6  0.1510140E-007  0.1612266E+04  0.7818608E-02  0.8813048E-01
          4   -1    0    0  501    0  0.00000000000E+00  0.00000000000E+00  0.61846490819E+03  0.61846490819E+03  0.00000000000E+00 0. -1.
         -3   -1    0    0    0  501 -0.00000000000E+00 -0.00000000000E+00 -0.10507479012E+04  0.10507479012E+04  0.00000000000E+00 0.  1.
         24    2    1    2    0    0 -0.16325330614E+03  0.24857427286E+03 -0.67687513028E+03  0.74357872941E+03  0.79426530523E+02 0.  0.
        254    2    1    2    0    0  0.16325330614E+03 -0.24857427286E+03  0.24459213724E+03  0.92563408000E+03  0.84174362211E+03 0.  0.
         23    2    4    4    0    0 -0.14876235561E+03  0.68428840939E+02 -0.21144466750E+03  0.28244239463E+03  0.90841147896E+02 0.  0.
         23    2    4    4    0    0  0.31201566174E+03 -0.31700311380E+03  0.45603680474E+03  0.64319168537E+03  0.88776289197E+02 0.  0.
          2    1    3    3  502    0 -0.49681865741E+01  0.49821695695E+01 -0.41500466129E-01  0.70360936423E+01  0.00000000000E+00 0. -1.
         -1    1    3    3    0  502 -0.15828511956E+03  0.24359210329E+03 -0.67683362981E+03  0.73654263577E+03  0.00000000000E+00 0.  1.
         11    1    5    5    0    0 -0.78127566769E+02  0.78225162428E+02 -0.16012663913E+03  0.19458579929E+03  0.00000000000E+00 0.  1.
        -11    1    5    5    0    0 -0.70634788836E+02 -0.97963214896E+01 -0.51318028375E+02  0.87856595341E+02  0.00000000000E+00 0. -1.
          4    1    6    6  503    0  0.28820239278E+03 -0.25225227311E+03  0.36600372478E+03  0.52976462231E+03  0.00000000000E+00 0.  1.
         -4    1    6    6    0  503  0.23813268957E+02 -0.64750840685E+02  0.90033079961E+02  0.11342706306E+03  0.00000000000E+00 0. -1.
<mgrwt>
<rscale>  0 0.16122664E+04</rscale>
<asrwt>0</asrwt>
<pdfrwt beam="1">  1        4 0.95148448E-01 0.16122664E+04</pdfrwt>
<pdfrwt beam="2">  1       -3 0.16165352E+00 0.16122664E+04</pdfrwt>
<totfact> 0.53952313E-01</totfact>
</mgrwt>
</event>
<event>
12    6  0.1510140E-007  0.2781820E+04  0.7818608E-02  0.8308935E-01
         -1   -1    0    0    0  501 -0.00000000000E+00  0.00000000000E+00  0.16299663931E+04  0.16299663931E+04  0.00000000000E+00 0.  1.
          2   -1    0    0  501    0  0.00000000000E+00 -0.00000000000E+00 -0.11869140462E+04  0.11869140462E+04  0.00000000000E+00 0. -1.
         24    2    1    2    0    0  0.62531442429E+03 -0.72220611496E+03  0.10015834285E+04  0.13878529643E+04  0.10181691689E+03 0.  0.
        254    2    1    2    0    0 -0.62531442429E+03  0.72220611496E+03 -0.55853108159E+03  0.14290274751E+04  0.90419176822E+03 0.  0.
         23    2    4    4    0    0 -0.14538787016E+03  0.13817805672E+03  0.23962116353E+03  0.32575577123E+03  0.92020173499E+02 0.  0.
         23    2    4    4    0    0 -0.47992655413E+03  0.58402805825E+03 -0.79815224512E+03  0.11032717039E+04  0.93504951454E+02 0.  0.
          4    1    3    3  502    0  0.30497222667E+03 -0.41395282010E+03  0.49257617008E+03  0.71203671228E+03  0.00000000000E+00 0. -1.
         -3    1    3    3    0  502  0.32034219762E+03 -0.30825329486E+03  0.50900725841E+03  0.67581625202E+03  0.00000000000E+00 0.  1.
         11    1    5    5    0    0 -0.22117011396E+02  0.32576326434E+02  0.39197321607E+01  0.39569477344E+02  0.00000000000E+00 0. -1.
        -11    1    5    5    0    0 -0.12327085876E+03  0.10560173028E+03  0.23570143137E+03  0.28618629389E+03  0.00000000000E+00 0.  1.
          1    1    6    6  503    0 -0.90937735992E+02  0.14584257570E+03 -0.22989829875E+03  0.28704173300E+03  0.00000000000E+00 0. -1.
         -1    1    6    6    0  503 -0.38898881814E+03  0.43818548255E+03 -0.56825394637E+03  0.81622997085E+03  0.00000000000E+00 0.  1.
<mgrwt>
<rscale>  0 0.27818196E+04</rscale>
<asrwt>0</asrwt>
<pdfrwt beam="1">  1        2 0.18260216E+00 0.27818196E+04</pdfrwt>
<pdfrwt beam="2">  1       -1 0.25076406E+00 0.27818196E+04</pdfrwt>
<totfact> 0.13198575E+00</totfact>
</mgrwt>
</event>
<event>
12    6  0.1510140E-007  0.1960539E+04  0.7818608E-02  0.8625295E-01
         -1   -1    0    0    0  501 -0.00000000000E+00  0.00000000000E+00  0.91797009971E+03  0.91797009971E+03  0.00000000000E+00 0.  1.
          2   -1    0    0  501    0  0.00000000000E+00 -0.00000000000E+00 -0.10467969626E+04  0.10467969626E+04  0.00000000000E+00 0. -1.
         24    2    1    2    0    0 -0.57052229348E+03 -0.51125295186E+03  0.92442472053E+02  0.77543947435E+03  0.76717009845E+02 0.  0.
        254    2    1    2    0    0  0.57052229348E+03  0.51125295186E+03 -0.22126933493E+03  0.11893275880E+04  0.88241981207E+03 0.  0.
         23    2    4    4    0    0  0.56080309771E+03 -0.59373037810E+02 -0.55125385620E+01  0.57126892270E+03  0.91063285407E+02 0.  0.
         23    2    4    4    0    0  0.97191957726E+01  0.57062598967E+03 -0.21575679637E+03  0.61805866525E+03  0.98676418931E+02 0.  0.
          2    1    3    3  502    0 -0.13332435074E+03 -0.12784197191E+03 -0.99910487138E+01  0.18498317041E+03  0.00000000000E+00 0. -1.
         -1    1    3    3    0  502 -0.43719794274E+03 -0.38341097995E+03  0.10243352077E+03  0.59045630394E+03  0.00000000000E+00 0.  1.
         11    1    5    5    0    0  0.24794019103E+03 -0.71043183212E+02 -0.10803455234E+02  0.25814373294E+03  0.00000000000E+00 0.  1.
        -11    1    5    5    0    0  0.31286290668E+03  0.11670145402E+02  0.52909166720E+01  0.31312518977E+03  0.00000000000E+00 0. -1.
          2    1    6    6  503    0 -0.19403928770E+02  0.37482132232E+03 -0.18244318997E+03  0.41731649103E+03  0.00000000000E+00 0. -1.
         -2    1    6    6    0  503  0.29123124542E+02  0.19580466735E+03 -0.33313606405E+02  0.20074217422E+03  0.00000000000E+00 0.  1.
<mgrwt>
<rscale>  0 0.19605390E+04</rscale>
<asrwt>0</asrwt>
<pdfrwt beam="1">  1        2 0.16104569E+00 0.19605390E+04</pdfrwt>
<pdfrwt beam="2">  1       -1 0.14122617E+00 0.19605390E+04</pdfrwt>
<totfact> 0.10243060E+01</totfact>
</mgrwt>
</event>
<event>
12    6  0.1510140E-007  0.2386340E+04  0.7818608E-02  0.8444635E-01
          2   -1    0    0  501    0  0.00000000000E+00  0.00000000000E+00  0.20915821649E+04  0.20915821649E+04  0.00000000000E+00 0. -1.
         -1   -1    0    0    0  501 -0.00000000000E+00 -0.00000000000E+00 -0.68065946308E+03  0.68065946308E+03  0.00000000000E+00 0.  1.
         24    2    1    2    0    0 -0.39254373306E+03 -0.93560414488E+03  0.81785373919E+03  0.13057388382E+04  0.81384743659E+02 0.  0.
        254    2    1    2    0    0  0.39254373306E+03  0.93560414488E+03  0.59306896259E+03  0.14665027898E+04  0.87718523685E+03 0.  0.
         23    2    4    4    0    0  0.13038082104E+02 -0.11034722023E+03  0.26651221373E+03  0.30254324848E+03  0.90316978134E+02 0.  0.
         23    2    4    4    0    0  0.37950565095E+03  0.10459513651E+04  0.32655674886E+03  0.11639595413E+04  0.10061663012E+03 0.  0.
          2    1    3    3  502    0 -0.16663757935E+02 -0.89782712470E+02  0.57693153625E+02  0.10801442618E+03  0.00000000000E+00 0. -1.
         -1    1    3    3    0  502 -0.37587997512E+03 -0.84582143241E+03  0.76016058557E+03  0.11977244120E+04  0.00000000000E+00 0.  1.
         11    1    5    5    0    0  0.48964753435E+02 -0.71199272444E+02  0.13044871405E+03  0.15647284260E+03  0.00000000000E+00 0.  1.
        -11    1    5    5    0    0 -0.35926671330E+02 -0.39147947783E+02  0.13606349968E+03  0.14607040588E+03  0.00000000000E+00 0. -1.
          4    1    6    6  503    0  0.36397119233E+03  0.99139068218E+03  0.28571617647E+03  0.10940586123E+04  0.00000000000E+00 0. -1.
         -4    1    6    6    0  503  0.15534458625E+02  0.54560682928E+02  0.40840572392E+02  0.69900929033E+02  0.00000000000E+00 0.  1.
<mgrwt>
<rscale>  0 0.23863405E+04</rscale>
<asrwt>0</asrwt>
<pdfrwt beam="1">  1        2 0.32178187E+00 0.23863405E+04</pdfrwt>
<pdfrwt beam="2">  1       -1 0.10471684E+00 0.23863405E+04</pdfrwt>
<totfact> 0.52124170E+00</totfact>
</mgrwt>
</event>
<event>
12    6  0.1510140E-007  0.1148646E+04  0.7818608E-02  0.9159033E-01
          2   -1    0    0  501    0  0.00000000000E+00  0.00000000000E+00  0.79083345212E+03  0.79083345212E+03  0.00000000000E+00 0. -1.
         -1   -1    0    0    0  501 -0.00000000000E+00 -0.00000000000E+00 -0.41708779200E+03  0.41708779200E+03  0.00000000000E+00 0.  1.
         24    2    1    2    0    0 -0.75443204674E+02 -0.11386710544E+03 -0.90906670614E+02  0.18205906474E+03  0.78892873305E+02 0.  0.
        254    2    1    2    0    0  0.75443204674E+02  0.11386710544E+03  0.46465233073E+03  0.10258621794E+04  0.90434176492E+03 0.  0.
         23    2    4    4    0    0  0.35272309756E+03  0.22838304908E+03 -0.40115064652E+02  0.43182389850E+03  0.91050866254E+02 0.  0.
         23    2    4    4    0    0 -0.27727989288E+03 -0.11451594364E+03  0.50476739538E+03  0.59403828088E+03  0.89962855459E+02 0.  0.
          2    1    3    3  502    0 -0.19979583416E+02  0.84293665107E+01 -0.22888264066E+02  0.31529519584E+02  0.00000000000E+00 0. -1.
         -1    1    3    3    0  502 -0.55463621258E+02 -0.12229647195E+03 -0.68018406548E+02  0.15052954516E+03  0.00000000000E+00 0.  1.
         11    1    5    5    0    0  0.20878501527E+03  0.97982993067E+02  0.11303613355E+02  0.23091041815E+03  0.00000000000E+00 0. -1.
        -11    1    5    5    0    0  0.14393808228E+03  0.13040005602E+03 -0.51418678007E+02  0.20091348035E+03  0.00000000000E+00 0.  1.
          2    1    6    6  503    0 -0.17625260095E+03 -0.10334511723E+03  0.27324061559E+03  0.34118268802E+03  0.00000000000E+00 0. -1.
         -2    1    6    6    0  503 -0.10102729193E+03 -0.11170826407E+02  0.23152677979E+03  0.25285559285E+03  0.00000000000E+00 0.  1.
<mgrwt>
<rscale>  0 0.11486461E+04</rscale>
<asrwt>0</asrwt>
<pdfrwt beam="1">  1        2 0.12166669E+00 0.11486461E+04</pdfrwt>
<pdfrwt beam="2">  1       -1 0.64167353E-01 0.11486461E+04</pdfrwt>
<totfact> 0.97379167E+01</totfact>
</mgrwt>
</event>
<event>
12    6  0.1510140E-007  0.2256201E+04  0.7818608E-02  0.8495393E-01
          2   -1    0    0  501    0  0.00000000000E+00  0.00000000000E+00  0.68094122609E+03  0.68094122609E+03  0.00000000000E+00 0. -1.
         -1   -1    0    0    0  501 -0.00000000000E+00 -0.00000000000E+00 -0.18689002416E+04  0.18689002416E+04  0.00000000000E+00 0.  1.
         24    2    1    2    0    0  0.83383990985E+02  0.68752619457E+03 -0.12390839706E+04  0.14217318991E+04  0.79670248381E+02 0.  0.
        254    2    1    2    0    0 -0.83383990985E+02 -0.68752619457E+03  0.51124955130E+02  0.11281095686E+04  0.88902884064E+03 0.  0.
         23    2    4    4    0    0 -0.15275503507E+02  0.52235547405E+02  0.31659698489E+03  0.33419850923E+03  0.92158012727E+02 0.  0.
         23    2    4    4    0    0 -0.68108487478E+02 -0.73976174197E+03 -0.26547202976E+03  0.79391105934E+03  0.89068347965E+02 0.  0.
          4    1    3    3  502    0  0.48781502869E+02  0.17953537869E+03 -0.37987844340E+03  0.42298962042E+03  0.00000000000E+00 0. -1.
         -3    1    3    3    0  502  0.34602488116E+02  0.50799081587E+03 -0.85920552721E+03  0.99874227866E+03  0.00000000000E+00 0.  1.
         11    1    5    5    0    0 -0.36618138637E+02  0.51769168696E+02  0.11374389357E+03  0.13022522117E+03  0.00000000000E+00 0. -1.
        -11    1    5    5    0    0  0.21342635130E+02  0.46637870935E+00  0.20285309132E+03  0.20397328805E+03  0.00000000000E+00 0.  1.
          1    1    6    6  503    0 -0.15369544556E+02 -0.54437722611E+03 -0.17303576103E+03  0.57142292726E+03  0.00000000000E+00 0. -1.
         -1    1    6    6    0  503 -0.52738942922E+02 -0.19538451586E+03 -0.92436268733E+02  0.22248813208E+03  0.00000000000E+00 0.  1.
<mgrwt>
<rscale>  0 0.22562014E+04</rscale>
<asrwt>0</asrwt>
<pdfrwt beam="1">  1        2 0.10476019E+00 0.22562014E+04</pdfrwt>
<pdfrwt beam="2">  1       -1 0.28752311E+00 0.22562014E+04</pdfrwt>
<totfact> 0.17529326E+00</totfact>
</mgrwt>
</event>
<event>
12    6  0.1510140E-007  0.1305184E+04  0.7818608E-02  0.9025464E-01
          2   -1    0    0  501    0  0.00000000000E+00  0.00000000000E+00  0.38275261765E+03  0.38275261765E+03  0.00000000000E+00 0. -1.
         -1   -1    0    0    0  501 -0.00000000000E+00 -0.00000000000E+00 -0.11126674544E+04  0.11126674544E+04  0.00000000000E+00 0.  1.
         24    2    1    2    0    0 -0.89753780663E+02 -0.43685114753E+02  0.17108090189E+03  0.21311366845E+03  0.78642420442E+02 0.  0.
        254    2    1    2    0    0  0.89753780663E+02  0.43685114753E+02 -0.90099573864E+03  0.12823064036E+04  0.90694666949E+03 0.  0.
         23    2    4    4    0    0 -0.13885018216E+03 -0.38029606197E+03 -0.49695883446E+03  0.64711428267E+03  0.88793827821E+02 0.  0.
         23    2    4    4    0    0  0.22860396282E+03  0.42398117672E+03 -0.40403690418E+03  0.63519212094E+03  0.90572625722E+02 0.  0.
          4    1    3    3  502    0 -0.99121772574E+02 -0.29842334773E+02  0.11562181635E+03  0.15519051247E+03  0.00000000000E+00 0. -1.
         -3    1    3    3    0  502  0.93679919112E+01 -0.13842779980E+02  0.55459085538E+02  0.57923155981E+02  0.00000000000E+00 0.  1.
         11    1    5    5    0    0 -0.77167080869E+02 -0.30533844092E+03 -0.40826580915E+03  0.51562320816E+03  0.00000000000E+00 0. -1.
        -11    1    5    5    0    0 -0.61683101289E+02 -0.74957621045E+02 -0.88693025305E+02  0.13149107451E+03  0.00000000000E+00 0.  1.
          1    1    6    6  503    0  0.21832540018E+03  0.33297361469E+03 -0.31863605749E+03  0.50996700440E+03  0.00000000000E+00 0. -1.
         -1    1    6    6    0  503  0.10278562644E+02  0.91007562031E+02 -0.85400846693E+02  0.12522511654E+03  0.00000000000E+00 0.  1.
<mgrwt>
<rscale>  0 0.13051841E+04</rscale>
<asrwt>0</asrwt>
<pdfrwt beam="1">  1        2 0.58885018E-01 0.13051841E+04</pdfrwt>
<pdfrwt beam="2">  1       -1 0.17117961E+00 0.13051841E+04</pdfrwt>
<totfact> 0.22605322E+01</totfact>
</mgrwt>
</event>
<event>
12    6  0.1510140E-007  0.1865766E+04  0.7818608E-02  0.8672087E-01
          2   -1    0    0  501    0  0.00000000000E+00  0.00000000000E+00  0.26644352135E+04  0.26644352135E+04  0.00000000000E+00 0. -1.
         -1   -1    0    0    0  501 -0.00000000000E+00 -0.00000000000E+00 -0.32662485164E+03  0.32662485164E+03  0.00000000000E+00 0.  1.
         24    2    1    2    0    0  0.21197603579E+03  0.17368616024E+03 -0.15638656246E+03  0.32544433943E+03  0.79727906892E+02 0.  0.
        254    2    1    2    0    0 -0.21197603579E+03 -0.17368616024E+03  0.24941969243E+04  0.26656157257E+04  0.89966003459E+03 0.  0.
         23    2    4    4    0    0 -0.23339948223E+03  0.22309115260E+03  0.19862947146E+04  0.20144850322E+04  0.92402765308E+02 0.  0.
         23    2    4    4    0    0  0.21423446440E+02 -0.39677731284E+03  0.50790220975E+03  0.65113069354E+03  0.90085100635E+02 0.  0.
          4    1    3    3  502    0  0.27348544856E+02  0.69745352220E+01  0.53562377274E+01  0.28727623116E+02  0.00000000000E+00 0. -1.
         -3    1    3    3    0  502  0.18462749094E+03  0.16671162502E+03 -0.16174280019E+03  0.29671671631E+03  0.00000000000E+00 0.  1.
         11    1    5    5    0    0 -0.12065663825E+03  0.82342805808E+02  0.11303249353E+04  0.11397248885E+04  0.00000000000E+00 0.  1.
        -11    1    5    5    0    0 -0.11274284399E+03  0.14074834679E+03  0.85596977922E+03  0.87476014366E+03  0.00000000000E+00 0. -1.
          1    1    6    6  503    0 -0.29288050216E+02 -0.14956128055E+03  0.22815069995E+03  0.27437038545E+03  0.00000000000E+00 0. -1.
         -1    1    6    6    0  503  0.50711496657E+02 -0.24721603229E+03  0.27975150980E+03  0.37676030809E+03  0.00000000000E+00 0.  1.
<mgrwt>
<rscale>  0 0.18657661E+04</rscale>
<asrwt>0</asrwt>
<pdfrwt beam="1">  1        2 0.40991310E+00 0.18657661E+04</pdfrwt>
<pdfrwt beam="2">  1       -1 0.50249979E-01 0.18657661E+04</pdfrwt>
<totfact> 0.11869940E+01</totfact>
</mgrwt>
</event>
<event>
12    6  0.1510140E-007  0.1258741E+04  0.7818608E-02  0.9062939E-01
          2   -1    0    0  501    0  0.00000000000E+00  0.00000000000E+00  0.26693258898E+04  0.26693258898E+04  0.00000000000E+00 0. -1.
         -1   -1    0    0    0  501 -0.00000000000E+00 -0.00000000000E+00 -0.14839221681E+03  0.14839221681E+03  0.00000000000E+00 0.  1.
         24    2    1    2    0    0 -0.19869208606E+03  0.17986187187E+02  0.11910673683E+03  0.24515157878E+03  0.78171822460E+02 0.  0.
        254    2    1    2    0    0  0.19869208606E+03 -0.17986187187E+02  0.24018269361E+04  0.25725665278E+04  0.89973543935E+03 0.  0.
         23    2    4    4    0    0 -0.14132776927E+03  0.31984020317E+03  0.55748024506E+03  0.66481890891E+03  0.94491608539E+02 0.  0.
         23    2    4    4    0    0  0.34001985533E+03 -0.33782639036E+03  0.18443466911E+04  0.19077476189E+04  0.90255683774E+02 0.  0.
          2    1    3    3  502    0 -0.56527063823E+02 -0.22649938214E+02  0.61266341064E+02  0.86382250451E+02  0.00000000000E+00 0. -1.
         -1    1    3    3    0  502 -0.14216502224E+03  0.40636125401E+02  0.57840395768E+02  0.15876932833E+03  0.00000000000E+00 0.  1.
         11    1    5    5    0    0 -0.11662383753E+03  0.28359303558E+03  0.41670293475E+03  0.51736589097E+03  0.00000000000E+00 0.  1.
        -11    1    5    5    0    0 -0.24703931737E+02  0.36247167586E+02  0.14077731031E+03  0.14745301794E+03  0.00000000000E+00 0. -1.
          4    1    6    6  503    0  0.10654555937E+03 -0.53618222185E+02  0.41056510300E+03  0.42754014288E+03  0.00000000000E+00 0. -1.
         -4    1    6    6    0  503  0.23347429596E+03 -0.28420816817E+03  0.14337815881E+04  0.14802074760E+04  0.00000000000E+00 0.  1.
<mgrwt>
<rscale>  0 0.12587409E+04</rscale>
<asrwt>0</asrwt>
<pdfrwt beam="1">  1        2 0.41066549E+00 0.12587409E+04</pdfrwt>
<pdfrwt beam="2">  1       -1 0.22829574E-01 0.12587409E+04</pdfrwt>
<totfact> 0.51101469E+01</totfact>
</mgrwt>
</event>
<event>
12    6  0.1510140E-007  0.1566589E+04  0.7818608E-02  0.8841340E-01
         -1   -1    0    0    0  501 -0.00000000000E+00  0.00000000000E+00  0.48374853498E+03  0.48374853498E+03  0.00000000000E+00 0.  1.
          2   -1    0    0  501    0  0.00000000000E+00 -0.00000000000E+00 -0.12683253016E+04  0.12683253016E+04  0.00000000000E+00 0. -1.
         24    2    1    2    0    0  0.59857146375E+02 -0.38846083335E+03  0.12933413152E+03  0.42243535687E+03  0.85085933846E+02 0.  0.
        254    2    1    2    0    0 -0.59857146375E+02  0.38846083335E+03 -0.91391089815E+03  0.13296384797E+04  0.88216815858E+03 0.  0.
         23    2    4    4    0    0 -0.29602992426E+03  0.35718901169E+03 -0.10801839418E+03  0.48537434846E+03  0.93287611869E+02 0.  0.
         23    2    4    4    0    0  0.23617277789E+03  0.31271821660E+02 -0.80589250397E+03  0.84426413128E+03  0.81016588190E+02 0.  0.
          4    1    3    3  502    0  0.25519761456E+02 -0.16788584023E+03  0.11980326423E+02  0.17023642911E+03  0.00000000000E+00 0. -1.
         -3    1    3    3    0  502  0.34337384919E+02 -0.22057499311E+03  0.11735380509E+03  0.25219892775E+03  0.00000000000E+00 0.  1.
         11    1    5    5    0    0 -0.29907370221E+03  0.35332812064E+03 -0.11486212458E+03  0.47694774122E+03  0.00000000000E+00 0. -1.
        -11    1    5    5    0    0  0.30437779420E+01  0.38608910422E+01  0.68437303979E+01  0.84266072389E+01  0.00000000000E+00 0.  1.
          2    1    6    6  503    0  0.22442135093E+03  0.12326200574E+02 -0.67365563271E+03  0.71016110106E+03  0.00000000000E+00 0. -1.
         -2    1    6    6    0  503  0.11751426964E+02  0.18945621086E+02 -0.13223687126E+03  0.13410303022E+03  0.00000000000E+00 0.  1.
<mgrwt>
<rscale>  0 0.15665893E+04</rscale>
<asrwt>0</asrwt>
<pdfrwt beam="1">  1        2 0.19512696E+00 0.15665893E+04</pdfrwt>
<pdfrwt beam="2">  1       -1 0.74422853E-01 0.15665893E+04</pdfrwt>
<totfact> 0.34362620E+01</totfact>
</mgrwt>
</event>
<event>
12    6  0.1510140E-007  0.1882114E+04  0.7818608E-02  0.8663811E-01
         -1   -1    0    0    0  501 -0.00000000000E+00  0.00000000000E+00  0.32612401561E+03  0.32612401561E+03  0.00000000000E+00 0.  1.
          2   -1    0    0  501    0  0.00000000000E+00 -0.00000000000E+00 -0.27154948281E+04  0.27154948281E+04  0.00000000000E+00 0. -1.
         24    2    1    2    0    0  0.13562096752E+03 -0.29928147943E+03 -0.19639626912E+04  0.19928896175E+04  0.80604741232E+02 0.  0.
        254    2    1    2    0    0 -0.13562096752E+03  0.29928147943E+03 -0.42540812127E+03  0.10487292262E+04  0.90049901137E+03 0.  0.
         23    2    4    4    0    0 -0.20810860863E+03 -0.28372160118E+03 -0.17276987865E+03  0.40249785926E+03  0.91367148211E+02 0.  0.
         23    2    4    4    0    0  0.72487641110E+02  0.58300308062E+03 -0.25263824263E+03  0.64623136694E+03  0.92961539691E+02 0.  0.
          2    1    3    3  502    0  0.79473750602E+02 -0.16673151029E+03 -0.13316225183E+04  0.13443712303E+04  0.00000000000E+00 0. -1.
         -1    1    3    3    0  502  0.56147216918E+02 -0.13254996914E+03 -0.63234017294E+03  0.64851838725E+03  0.00000000000E+00 0.  1.
         11    1    5    5    0    0 -0.34912418238E+02 -0.19977986822E+02 -0.49409691368E+02  0.63712749946E+02  0.00000000000E+00 0. -1.
        -11    1    5    5    0    0 -0.17319619039E+03 -0.26374361436E+03 -0.12336018728E+03  0.33878510931E+03  0.00000000000E+00 0.  1.
          4    1    6    6  503    0  0.62961876093E+02  0.22584879388E+03 -0.13239453802E+03  0.26925859176E+03  0.00000000000E+00 0.  1.
         -4    1    6    6    0  503  0.95257650167E+01  0.35715428674E+03 -0.12024370461E+03  0.37697277519E+03  0.00000000000E+00 0. -1.
<mgrwt>
<rscale>  0 0.18821138E+04</rscale>
<asrwt>0</asrwt>
<pdfrwt beam="1">  1        2 0.41776844E+00 0.18821138E+04</pdfrwt>
<pdfrwt beam="2">  1       -1 0.50172925E-01 0.18821138E+04</pdfrwt>
<totfact> 0.11086889E+01</totfact>
</mgrwt>
</event>
<event>
12    6  0.1510140E-007  0.1414834E+04  0.7818608E-02  0.8943150E-01
          2   -1    0    0  501    0  0.00000000000E+00  0.00000000000E+00  0.16087278639E+04  0.16087278639E+04  0.00000000000E+00 0. -1.
         -1   -1    0    0    0  501 -0.00000000000E+00 -0.00000000000E+00 -0.31107754739E+03  0.31107754739E+03  0.00000000000E+00 0.  1.
         24    2    1    2    0    0  0.28785868720E+03 -0.21980059503E+03  0.20181624079E+03  0.42363407669E+03  0.86954646312E+02 0.  0.
        254    2    1    2    0    0 -0.28785868720E+03  0.21980059503E+03  0.10958340757E+04  0.14961713346E+04  0.95210367902E+03 0.  0.
         23    2    4    4    0    0 -0.54515333840E+03  0.28911626669E+03  0.10346708898E+04  0.12080880136E+04  0.90290754170E+02 0.  0.
         23    2    4    4    0    0  0.25729465120E+03 -0.69315671666E+02  0.61163185920E+02  0.28808332103E+03  0.90806743512E+02 0.  0.
          2    1    3    3  502    0  0.14982236688E+03 -0.12358544467E+03  0.15637636681E+03  0.24934648954E+03  0.00000000000E+00 0. -1.
         -1    1    3    3    0  502  0.13803632032E+03 -0.96215150357E+02  0.45439873985E+02  0.17428758715E+03  0.00000000000E+00 0.  1.
         11    1    5    5    0    0 -0.24223145269E+03  0.79466130706E+02  0.40433913292E+03  0.47799694247E+03  0.00000000000E+00 0. -1.
        -11    1    5    5    0    0 -0.30292188572E+03  0.20965013599E+03  0.63033175691E+03  0.73009107112E+03  0.00000000000E+00 0.  1.
          3    1    6    6  503    0  0.18455462381E+03 -0.43497583953E+02  0.84296688781E+02  0.20750513420E+03  0.00000000000E+00 0. -1.
         -3    1    6    6    0  503  0.72740027394E+02 -0.25818087713E+02 -0.23133502861E+02  0.80578186832E+02  0.00000000000E+00 0.  1.
<mgrwt>
<rscale>  0 0.14148344E+04</rscale>
<asrwt>0</asrwt>
<pdfrwt beam="1">  1        2 0.24749659E+00 0.14148344E+04</pdfrwt>
<pdfrwt beam="2">  1       -1 0.47858085E-01 0.14148344E+04</pdfrwt>
<totfact> 0.53276281E+01</totfact>
</mgrwt>
</event>
<event>
12    6  0.1510140E-007  0.2272314E+04  0.7818608E-02  0.8488918E-01
          2   -1    0    0  501    0  0.00000000000E+00  0.00000000000E+00  0.26465214449E+04  0.26465214449E+04  0.00000000000E+00 0. -1.
         -1   -1    0    0    0  501 -0.00000000000E+00 -0.00000000000E+00 -0.48775429272E+03  0.48775429272E+03  0.00000000000E+00 0.  1.
         24    2    1    2    0    0 -0.10398642775E+03 -0.45275513480E+03  0.20640694298E+04  0.21172254890E+04  0.80378922242E+02 0.  0.
        254    2    1    2    0    0  0.10398642775E+03  0.45275513480E+03  0.94697722380E+02  0.10170502486E+04  0.89979062023E+03 0.  0.
         23    2    4    4    0    0 -0.19944340275E+03  0.23354874362E+02  0.36019301281E+03  0.42193466488E+03  0.89256562170E+02 0.  0.
         23    2    4    4    0    0  0.30342983050E+03  0.42940026044E+03 -0.26549529043E+03  0.59511558370E+03  0.84973896073E+02 0.  0.
          2    1    3    3  502    0 -0.46802433872E+02 -0.33275922634E+03  0.13763265963E+04  0.14167547672E+04  0.00000000000E+00 0. -1.
         -1    1    3    3    0  502 -0.57183993875E+02 -0.11999590846E+03  0.68774283343E+03  0.70047072183E+03  0.00000000000E+00 0.  1.
         11    1    5    5    0    0 -0.16560372701E+03 -0.15597792385E+02  0.29642567638E+03  0.33990596809E+03  0.00000000000E+00 0.  1.
        -11    1    5    5    0    0 -0.33839675746E+02  0.38952666747E+02  0.63767336428E+02  0.82028696786E+02  0.00000000000E+00 0. -1.
          4    1    6    6  503    0  0.26305401967E+02  0.36637916150E+02 -0.52889566655E+02  0.69509836235E+02  0.00000000000E+00 0. -1.
         -4    1    6    6    0  503  0.27712442853E+03  0.39276234429E+03 -0.21260572378E+03  0.52560574746E+03  0.00000000000E+00 0.  1.
<mgrwt>
<rscale>  0 0.22723135E+04</rscale>
<asrwt>0</asrwt>
<pdfrwt beam="1">  1        2 0.40715714E+00 0.22723135E+04</pdfrwt>
<pdfrwt beam="2">  1       -1 0.75039123E-01 0.22723135E+04</pdfrwt>
<totfact> 0.52761037E+00</totfact>
</mgrwt>
</event>
<event>
12    6  0.1510140E-007  0.2282085E+04  0.7818608E-02  0.8485018E-01
         -1   -1    0    0    0  501 -0.00000000000E+00  0.00000000000E+00  0.77137991092E+03  0.77137991092E+03  0.00000000000E+00 0.  1.
          2   -1    0    0  501    0  0.00000000000E+00 -0.00000000000E+00 -0.16878558172E+04  0.16878558172E+04  0.00000000000E+00 0. -1.
         24    2    1    2    0    0 -0.89330254679E+02 -0.10050660498E+03  0.61066228671E+03  0.63004448400E+03  0.77240865931E+02 0.  0.
        254    2    1    2    0    0  0.89330254679E+02  0.10050660498E+03 -0.15271381930E+04  0.18291912441E+04  0.99785172999E+03 0.  0.
         23    2    4    4    0    0 -0.35750634706E+03 -0.23487581012E+03 -0.60330490769E+03  0.74509903388E+03  0.90654973809E+02 0.  0.
         23    2    4    4    0    0  0.44683660174E+03  0.33538241510E+03 -0.92383328527E+03  0.10840922102E+04  0.98202180602E+02 0.  0.
          4    1    3    3  502    0 -0.95013196890E+01  0.12569033509E+02  0.44470798618E+02  0.47179525315E+02  0.00000000000E+00 0. -1.
         -3    1    3    3    0  502 -0.79828934990E+02 -0.11307563849E+03  0.56619148809E+03  0.58286495869E+03  0.00000000000E+00 0.  1.
         11    1    5    5    0    0 -0.11324915413E+03 -0.10635492398E+03 -0.27813858713E+03  0.31858721634E+03  0.00000000000E+00 0.  1.
        -11    1    5    5    0    0 -0.24425719293E+03 -0.12852088614E+03 -0.32516632056E+03  0.42651181754E+03  0.00000000000E+00 0. -1.
          2    1    6    6  503    0  0.26741275420E+03  0.16867388697E+03 -0.59846669774E+03  0.67684772997E+03  0.00000000000E+00 0. -1.
         -2    1    6    6    0  503  0.17942384754E+03  0.16670852813E+03 -0.32536658753E+03  0.40724448025E+03  0.00000000000E+00 0.  1.
<mgrwt>
<rscale>  0 0.22820851E+04</rscale>
<asrwt>0</asrwt>
<pdfrwt beam="1">  1        2 0.25967013E+00 0.22820851E+04</pdfrwt>
<pdfrwt beam="2">  1       -1 0.11867383E+00 0.22820851E+04</pdfrwt>
<totfact> 0.65514131E+00</totfact>
</mgrwt>
</event>
<event>
12    6  0.1531590E-007  0.1386561E+04  0.7818608E-02  0.8963604E-01
          2   -1    0    0  501    0  0.00000000000E+00  0.00000000000E+00  0.20852223848E+04  0.20852223848E+04  0.00000000000E+00 0. -1.
         -1   -1    0    0    0  501 -0.00000000000E+00 -0.00000000000E+00 -0.23049732657E+03  0.23049732657E+03  0.00000000000E+00 0.  1.
         24    2    1    2    0    0 -0.28634863172E+03 -0.12269515483E+03  0.94602665636E+03  0.99946508656E+03  0.83152779840E+02 0.  0.
        254    2    1    2    0    0  0.28634863172E+03  0.12269515483E+03  0.90869840188E+03  0.13162546248E+04  0.89985766200E+03 0.  0.
         23    2    4    4    0    0 -0.64310347438E+02 -0.22228364674E+03 -0.32287571899E+02  0.25033177338E+03  0.89875853662E+02 0.  0.
         23    2    4    4    0    0  0.35065897916E+03  0.34497880157E+03  0.94098597378E+03  0.10659228514E+04  0.93620666308E+02 0.  0.
          4    1    3    3  502    0 -0.23094961920E+03 -0.79434618896E+02  0.62924571716E+03  0.67497982033E+03  0.00000000000E+00 0. -1.
         -3    1    3    3    0  502 -0.55399012516E+02 -0.43260535937E+02  0.31678093920E+03  0.32448526623E+03  0.00000000000E+00 0.  1.
         11    1    5    5    0    0  0.14089378136E+01  0.37549650106E+01 -0.13615432646E+02  0.14193832257E+02  0.00000000000E+00 0. -1.
        -11    1    5    5    0    0 -0.65719285252E+02 -0.22603861175E+03 -0.18672139253E+02  0.23613794113E+03  0.00000000000E+00 0.  1.
          1    1    6    6  503    0  0.94728717906E+01  0.18701355291E+02  0.12751763125E+02  0.24537388868E+02  0.00000000000E+00 0. -1.
         -1    1    6    6    0  503  0.34118610737E+03  0.32627744628E+03  0.92823421066E+03  0.10413854626E+04  0.00000000000E+00 0.  1.
<mgrwt>
<rscale>  0 0.13865615E+04</rscale>
<asrwt>0</asrwt>
<pdfrwt beam="1">  1        2 0.32080343E+00 0.13865615E+04</pdfrwt>
<pdfrwt beam="2">  1       -1 0.35461128E-01 0.13865615E+04</pdfrwt>
<totfact> 0.50422789E+01</totfact>
</mgrwt>
</event>
<event>
12    6  0.1510140E-007  0.2711134E+04  0.7818608E-02  0.8331401E-01
          2   -1    0    0  501    0  0.00000000000E+00  0.00000000000E+00  0.24969046350E+04  0.24969046350E+04  0.00000000000E+00 0. -1.
         -1   -1    0    0    0  501 -0.00000000000E+00 -0.00000000000E+00 -0.73593583569E+03  0.73593583569E+03  0.00000000000E+00 0.  1.
         24    2    1    2    0    0 -0.32084181217E+03 -0.98952858524E+03  0.15096987312E+04  0.18351324785E+04  0.80091603796E+02 0.  0.
        254    2    1    2    0    0  0.32084181217E+03  0.98952858524E+03  0.25127006804E+03  0.13977079922E+04  0.89907991575E+03 0.  0.
         23    2    4    4    0    0  0.87352030674E+02  0.10109348464E+03  0.42928536935E+03  0.45710307497E+03  0.82504684192E+02 0.  0.
         23    2    4    4    0    0  0.23348978150E+03  0.88843510060E+03 -0.17801530131E+03  0.94060491722E+03  0.95988315676E+02 0.  0.
          4    1    3    3  502    0 -0.75515563684E+02 -0.15901436632E+03  0.22196903043E+03  0.28329916965E+03  0.00000000000E+00 0. -1.
         -3    1    3    3    0  502 -0.24532624848E+03 -0.83051421891E+03  0.12877297008E+04  0.15518333088E+04  0.00000000000E+00 0.  1.
         11    1    5    5    0    0  0.72182893277E+02  0.21557192830E+02  0.22887150613E+03  0.24095071895E+03  0.00000000000E+00 0.  1.
        -11    1    5    5    0    0  0.15169137397E+02  0.79536291805E+02  0.20041386322E+03  0.21615235602E+03  0.00000000000E+00 0. -1.
          4    1    6    6  503    0  0.13109815914E+03  0.34559466671E+03 -0.98279370266E+02  0.38246730005E+03  0.00000000000E+00 0. -1.
         -4    1    6    6    0  503  0.10239162236E+03  0.54284043389E+03 -0.79735931045E+02  0.55813761716E+03  0.00000000000E+00 0.  1.
<mgrwt>
<rscale>  0 0.27111338E+04</rscale>
<asrwt>0</asrwt>
<pdfrwt beam="1">  1        2 0.38413917E+00 0.27111338E+04</pdfrwt>
<pdfrwt beam="2">  1       -1 0.11322090E+00 0.27111338E+04</pdfrwt>
<totfact> 0.24815383E+00</totfact>
</mgrwt>
</event>
<event>
12    6  0.1510140E-007  0.2574474E+04  0.7818608E-02  0.8376924E-01
          2   -1    0    0  501    0  0.00000000000E+00  0.00000000000E+00  0.10564925955E+04  0.10564925955E+04  0.00000000000E+00 0. -1.
         -1   -1    0    0    0  501 -0.00000000000E+00 -0.00000000000E+00 -0.15683775144E+04  0.15683775144E+04  0.00000000000E+00 0.  1.
         24    2    1    2    0    0 -0.84611090533E+03  0.26919973462E+03  0.48315051819E+03  0.10139695035E+04  0.79546021605E+02 0.  0.
        254    2    1    2    0    0  0.84611090533E+03 -0.26919973462E+03 -0.99503543710E+03  0.16109006064E+04  0.90362220065E+03 0.  0.
         23    2    4    4    0    0  0.52130244904E+03 -0.26828936129E+03 -0.11067812106E+04  0.12558019387E+04  0.91315038801E+02 0.  0.
         23    2    4    4    0    0  0.32480845629E+03 -0.91037333178E+00  0.11174577354E+03  0.35509866772E+03  0.90036569554E+02 0.  0.
          4    1    3    3  502    0 -0.59986753026E+03  0.19472069774E+03  0.38323223355E+03  0.73798655057E+03  0.00000000000E+00 0. -1.
         -1    1    3    3    0  502 -0.24624337507E+03  0.74479036884E+02  0.99918284640E+02  0.27598295293E+03  0.00000000000E+00 0.  1.
         11    1    5    5    0    0  0.33793842503E+03 -0.13610420620E+03 -0.74301002675E+03  0.82752077551E+03  0.00000000000E+00 0. -1.
        -11    1    5    5    0    0  0.18336402401E+03 -0.13218515510E+03 -0.36377118388E+03  0.42828116320E+03  0.00000000000E+00 0.  1.
          3    1    6    6  503    0  0.23735894011E+03  0.20509803955E+01  0.12220082535E+03  0.26697661824E+03  0.00000000000E+00 0. -1.
         -3    1    6    6    0  503  0.87449516187E+02 -0.29613537273E+01 -0.10455051816E+02  0.88122049486E+02  0.00000000000E+00 0.  1.
<mgrwt>
<rscale>  0 0.25744741E+04</rscale>
<asrwt>0</asrwt>
<pdfrwt beam="1">  1        2 0.16253732E+00 0.25744741E+04</pdfrwt>
<pdfrwt beam="2">  1       -1 0.24128885E+00 0.25744741E+04</pdfrwt>
<totfact> 0.18629114E+00</totfact>
</mgrwt>
</event>
<event>
12    6  0.1510140E-007  0.1980267E+04  0.7818608E-02  0.8615902E-01
          2   -1    0    0  501    0  0.00000000000E+00  0.00000000000E+00  0.40795742677E+03  0.40795742677E+03  0.00000000000E+00 0. -1.
         -1   -1    0    0    0  501 -0.00000000000E+00 -0.00000000000E+00 -0.24031054858E+04  0.24031054858E+04  0.00000000000E+00 0.  1.
         24    2    1    2    0    0 -0.49175167642E+02  0.77373362074E+03 -0.62138651537E+03  0.99672099631E+03  0.79054601510E+02 0.  0.
        254    2    1    2    0    0  0.49175167642E+02 -0.77373362074E+03 -0.13737615436E+04  0.18143419162E+04  0.89640052278E+03 0.  0.
         23    2    4    4    0    0  0.13076149829E+03  0.14779832912E+02 -0.83812433194E+03  0.85334313963E+03  0.91788372180E+02 0.  0.
         23    2    4    4    0    0 -0.81586330652E+02 -0.78851345365E+03 -0.53563721169E+03  0.96099877660E+03  0.90562851833E+02 0.  0.
          2    1    3    3  502    0  0.57843271395E+01  0.35180494975E+03 -0.31665624510E+03  0.47336176299E+03  0.00000000000E+00 0. -1.
         -1    1    3    3    0  502 -0.54959494781E+02  0.42192867099E+03 -0.30473027028E+03  0.52335923331E+03  0.00000000000E+00 0.  1.
         11    1    5    5    0    0  0.64943356343E+02  0.11396051814E+02 -0.17597546203E+03  0.18792251798E+03  0.00000000000E+00 0. -1.
        -11    1    5    5    0    0  0.65818141950E+02  0.33837810979E+01 -0.66214886991E+03  0.66542062164E+03  0.00000000000E+00 0.  1.
          1    1    6    6  503    0 -0.75753123859E+02 -0.43045682024E+03 -0.33356318704E+03  0.54981452292E+03  0.00000000000E+00 0. -1.
         -1    1    6    6    0  503 -0.58332067922E+01 -0.35805663342E+03 -0.20207402465E+03  0.41118425368E+03  0.00000000000E+00 0.  1.
<mgrwt>
<rscale>  0 0.19802674E+04</rscale>
<asrwt>0</asrwt>
<pdfrwt beam="1">  1        2 0.62762682E-01 0.19802674E+04</pdfrwt>
<pdfrwt beam="2">  1       -1 0.36970853E+00 0.19802674E+04</pdfrwt>
<totfact> 0.95108121E-01</totfact>
</mgrwt>
</event>
<event>
12    6  0.1510140E-007  0.1307564E+04  0.7818608E-02  0.9023588E-01
          2   -1    0    0  501    0  0.00000000000E+00  0.00000000000E+00  0.25863499274E+04  0.25863499274E+04  0.00000000000E+00 0. -1.
         -1   -1    0    0    0  501 -0.00000000000E+00 -0.00000000000E+00 -0.16526417493E+03  0.16526417493E+03  0.00000000000E+00 0.  1.
         24    2    1    2    0    0 -0.54242462581E+02  0.19242900140E+03  0.12118262231E+04  0.12307028982E+04  0.78330475292E+02 0.  0.
        254    2    1    2    0    0  0.54242462581E+02 -0.19242900140E+03  0.12092595293E+04  0.15209112041E+04  0.90049492840E+03 0.  0.
         23    2    4    4    0    0  0.29642377434E+03 -0.41662540384E+03  0.98028654540E+03  0.11092496953E+04  0.89606887825E+02 0.  0.
         23    2    4    4    0    0 -0.24218131176E+03  0.22419640244E+03  0.22897298392E+03  0.41166150875E+03  0.90115236159E+02 0.  0.
          2    1    3    3  502    0 -0.22665880213E+02  0.12789936246E+03  0.55686682972E+03  0.57181522810E+03  0.00000000000E+00 0. -1.
         -1    1    3    3    0  502 -0.31576582368E+02  0.64529638938E+02  0.65495939340E+03  0.65888767013E+03  0.00000000000E+00 0.  1.
         11    1    5    5    0    0  0.21339778255E+03 -0.26027257638E+03  0.71585649550E+03  0.79103157318E+03  0.00000000000E+00 0.  1.
        -11    1    5    5    0    0  0.83025991788E+02 -0.15635282746E+03  0.26443004990E+03  0.31821812214E+03  0.00000000000E+00 0. -1.
          1    1    6    6  503    0 -0.15293459534E+03  0.16725871729E+03  0.19908456905E+03  0.30166062818E+03  0.00000000000E+00 0. -1.
         -1    1    6    6    0  503 -0.89246716423E+02  0.56937685147E+02  0.29888414869E+02  0.11000088057E+03  0.00000000000E+00 0.  1.
<mgrwt>
<rscale>  0 0.13075641E+04</rscale>
<asrwt>0</asrwt>
<pdfrwt beam="1">  1        2 0.39789996E+00 0.13075641E+04</pdfrwt>
<pdfrwt beam="2">  1       -1 0.25425260E-01 0.13075641E+04</pdfrwt>
<totfact> 0.47328824E+01</totfact>
</mgrwt>
</event>
<event>
12    6  0.1510140E-007  0.2719124E+04  0.7818608E-02  0.8328827E-01
          2   -1    0    0  501    0  0.00000000000E+00  0.00000000000E+00  0.29228037686E+04  0.29228037686E+04  0.00000000000E+00 0. -1.
         -1   -1    0    0    0  501 -0.00000000000E+00 -0.00000000000E+00 -0.63240939149E+03  0.63240939149E+03  0.00000000000E+00 0.  1.
         24    2    1    2    0    0  0.71679458598E+03  0.37701796615E+03 -0.15225482062E+03  0.82788255582E+03  0.79189459785E+02 0.  0.
        254    2    1    2    0    0 -0.71679458598E+03 -0.37701796615E+03  0.24426491977E+04  0.27273306042E+04  0.90324974206E+03 0.  0.
         23    2    4    4    0    0 -0.59967462602E+03 -0.65769480345E+03  0.18393849654E+04  0.20453911547E+04  0.90087806465E+02 0.  0.
         23    2    4    4    0    0 -0.11711995995E+03  0.28067683731E+03  0.60326423227E+03  0.68193944960E+03  0.92828373688E+02 0.  0.
          2    1    3    3  502    0  0.31496609777E+03  0.12965503983E+03 -0.86864981594E+02  0.35151045094E+03  0.00000000000E+00 0. -1.
         -1    1    3    3    0  502  0.40182848821E+03  0.24736292632E+03 -0.65389839030E+02  0.47637210487E+03  0.00000000000E+00 0.  1.
         11    1    5    5    0    0 -0.58713407801E+03 -0.65216868735E+03  0.18274406952E+04  0.20272123512E+04  0.00000000000E+00 0.  1.
        -11    1    5    5    0    0 -0.12540548018E+02 -0.55261160986E+01  0.11944270198E+02  0.18178803434E+02  0.00000000000E+00 0. -1.
          3    1    6    6  503    0 -0.11264931101E+02  0.52916280973E+02  0.47246208407E+02  0.71827819635E+02  0.00000000000E+00 0. -1.
         -3    1    6    6    0  503 -0.10585502885E+03  0.22776055633E+03  0.55601802386E+03  0.61011162996E+03  0.00000000000E+00 0.  1.
<mgrwt>
<rscale>  0 0.27191238E+04</rscale>
<asrwt>0</asrwt>
<pdfrwt beam="1">  1        2 0.44966211E+00 0.27191238E+04</pdfrwt>
<pdfrwt beam="2">  1       -1 0.97293754E-01 0.27191238E+04</pdfrwt>
<totfact> 0.19642794E+00</totfact>
</mgrwt>
</event>
<event>
12    6  0.1510140E-007  0.1448607E+04  0.7818608E-02  0.8919367E-01
          2   -1    0    0  501    0  0.00000000000E+00  0.00000000000E+00  0.22417868125E+04  0.22417868125E+04  0.00000000000E+00 0. -1.
         -1   -1    0    0    0  501 -0.00000000000E+00 -0.00000000000E+00 -0.23401659138E+03  0.23401659138E+03  0.00000000000E+00 0.  1.
         24    2    1    2    0    0 -0.47736726355E+02  0.59831061423E+02  0.13785338162E+04  0.13829282116E+04  0.79223765489E+02 0.  0.
        254    2    1    2    0    0  0.47736726355E+02 -0.59831061423E+02  0.62923640487E+03  0.10928751923E+04  0.89026916249E+03 0.  0.
         23    2    4    4    0    0  0.11321308289E+02 -0.39701909675E+03  0.44148177935E+02  0.41038069912E+03  0.93332316950E+02 0.  0.
         23    2    4    4    0    0  0.36415418066E+02  0.33718803533E+03  0.58508822694E+03  0.68249449314E+03  0.91916516608E+02 0.  0.
          2    1    3    3  502    0 -0.54773687741E+02  0.62606593294E+02  0.13640844639E+04  0.13666185156E+04  0.00000000000E+00 0. -1.
         -1    1    3    3    0  502  0.70369613851E+01 -0.27755318715E+01  0.14449352322E+02  0.16309696050E+02  0.00000000000E+00 0.  1.
         11    1    5    5    0    0  0.25630823115E+02 -0.50433047212E+02  0.28003422508E+02  0.63123870420E+02  0.00000000000E+00 0. -1.
        -11    1    5    5    0    0 -0.14309514826E+02 -0.34658604954E+03  0.16144755428E+02  0.34725682870E+03  0.00000000000E+00 0.  1.
          4    1    6    6  503    0 -0.53438447768E+01  0.64736882333E+02  0.55362146034E+02  0.85348625207E+02  0.00000000000E+00 0. -1.
         -4    1    6    6    0  503  0.41759262843E+02  0.27245115300E+03  0.52972608090E+03  0.59714586794E+03  0.00000000000E+00 0.  1.
<mgrwt>
<rscale>  0 0.14486067E+04</rscale>
<asrwt>0</asrwt>
<pdfrwt beam="1">  1        2 0.34489027E+00 0.14486067E+04</pdfrwt>
<pdfrwt beam="2">  1       -1 0.36002554E-01 0.14486067E+04</pdfrwt>
<totfact> 0.39910668E+01</totfact>
</mgrwt>
</event>
<event>
12    6  0.1510140E-007  0.2445164E+04  0.7818608E-02  0.8422786E-01
         -1   -1    0    0    0  501 -0.00000000000E+00  0.00000000000E+00  0.45398605681E+03  0.45398605681E+03  0.00000000000E+00 0.  1.
          2   -1    0    0  501    0  0.00000000000E+00 -0.00000000000E+00 -0.32924069540E+04  0.32924069540E+04  0.00000000000E+00 0. -1.
         24    2    1    2    0    0  0.76829584113E+03 -0.71881702180E+03 -0.13452173019E+04  0.17096818879E+04  0.80163321841E+02 0.  0.
        254    2    1    2    0    0 -0.76829584113E+03  0.71881702180E+03 -0.14932035953E+04  0.20367111229E+04  0.90086558979E+03 0.  0.
         23    2    4    4    0    0 -0.79778795345E+02  0.66270533421E+03 -0.58647624773E+03  0.89328207809E+03  0.91953606317E+02 0.  0.
         23    2    4    4    0    0 -0.68851704578E+03  0.56111687587E+02 -0.90672734761E+03  0.11434290449E+04  0.89840157405E+02 0.  0.
          2    1    3    3  502    0  0.23428386593E+03 -0.17451846030E+03 -0.39703137825E+03  0.49292954682E+03  0.00000000000E+00 0. -1.
         -1    1    3    3    0  502  0.53401197520E+03 -0.54429856149E+03 -0.94818592363E+03  0.12167523411E+04  0.00000000000E+00 0.  1.
         11    1    5    5    0    0 -0.23564398836E+02  0.15235179018E+03 -0.87214212970E+02  0.17712331243E+03  0.00000000000E+00 0. -1.
        -11    1    5    5    0    0 -0.56214396509E+02  0.51035354403E+03 -0.49926203476E+03  0.71615876566E+03  0.00000000000E+00 0.  1.
          2    1    6    6  503    0 -0.19021254496E+03  0.30455889544E+02 -0.19392239648E+03  0.27333911050E+03  0.00000000000E+00 0. -1.
         -2    1    6    6    0  503 -0.49830450082E+03  0.25655798043E+02 -0.71280495113E+03  0.87008993435E+03  0.00000000000E+00 0.  1.
<mgrwt>
<rscale>  0 0.24451641E+04</rscale>
<asrwt>0</asrwt>
<pdfrwt beam="1">  1        2 0.50652414E+00 0.24451641E+04</pdfrwt>
<pdfrwt beam="2">  1       -1 0.69844010E-01 0.24451641E+04</pdfrwt>
<totfact> 0.23824191E+00</totfact>
</mgrwt>
</event>
<event>
12    6  0.1510140E-007  0.1353264E+04  0.7818608E-02  0.8988361E-01
         -1   -1    0    0    0  501 -0.00000000000E+00  0.00000000000E+00  0.75798133960E+03  0.75798133960E+03  0.00000000000E+00 0.  1.
          2   -1    0    0  501    0  0.00000000000E+00 -0.00000000000E+00 -0.60401339380E+03  0.60401339380E+03  0.00000000000E+00 0. -1.
         24    2    1    2    0    0  0.32202115030E+03  0.16464128458E+03 -0.83044240807E+02  0.37953642466E+03  0.79669177736E+02 0.  0.
        254    2    1    2    0    0 -0.32202115030E+03 -0.16464128458E+03  0.23701218661E+03  0.98245830875E+03  0.88218205490E+03 0.  0.
         23    2    4    4    0    0 -0.25928964591E+03 -0.21079698948E+03 -0.28427660777E+03  0.44717820354E+03  0.86537071523E+02 0.  0.
         23    2    4    4    0    0 -0.62731504396E+02  0.46155704894E+02  0.52128879437E+03  0.53528010521E+03  0.93365910043E+02 0.  0.
          2    1    3    3  502    0  0.22568585540E+03  0.14126873688E+03 -0.87621647841E+02  0.28030075726E+03  0.00000000000E+00 0. -1.
         -1    1    3    3    0  502  0.96335294900E+02  0.23372547700E+02  0.45774070346E+01  0.99235667401E+02  0.00000000000E+00 0.  1.
         11    1    5    5    0    0 -0.20572672700E+03 -0.18781264187E+03 -0.19303779160E+03  0.33891099663E+03  0.00000000000E+00 0. -1.
        -11    1    5    5    0    0 -0.53562918905E+02 -0.22984347607E+02 -0.91238816165E+02  0.10826720691E+03  0.00000000000E+00 0.  1.
          3    1    6    6  503    0 -0.12707933286E+02  0.48040315637E+02  0.10697897081E+03  0.11795704172E+03  0.00000000000E+00 0. -1.
         -3    1    6    6    0  503 -0.50023571110E+02 -0.18846107424E+01  0.41430982356E+03  0.41732306350E+03  0.00000000000E+00 0.  1.
<mgrwt>
<rscale>  0 0.13532640E+04</rscale>
<asrwt>0</asrwt>
<pdfrwt beam="1">  1        2 0.92925137E-01 0.13532640E+04</pdfrwt>
<pdfrwt beam="2">  1       -1 0.11661251E+00 0.13532640E+04</pdfrwt>
<totfact> 0.36456973E+01</totfact>
</mgrwt>
</event>
<event>
12    6  0.1510140E-007  0.4894775E+04  0.7818608E-02  0.7844947E-01
         -1   -1    0    0    0  501 -0.00000000000E+00  0.00000000000E+00  0.14668019850E+04  0.14668019850E+04  0.00000000000E+00 0.  1.
          2   -1    0    0  501    0  0.00000000000E+00 -0.00000000000E+00 -0.40835131509E+04  0.40835131509E+04  0.00000000000E+00 0. -1.
         24    2    1    2    0    0  0.14789865174E+04 -0.17132589944E+04 -0.20396740183E+04  0.30478029784E+04  0.78583674444E+02 0.  0.
        254    2    1    2    0    0 -0.14789865174E+04  0.17132589944E+04 -0.57703714763E+03  0.25025121575E+04  0.89829712690E+03 0.  0.
         23    2    4    4    0    0 -0.52866094301E+03  0.57200491297E+03 -0.64169670515E+03  0.10132644943E+04  0.90874974392E+02 0.  0.
         23    2    4    4    0    0 -0.95032557439E+03  0.11412540814E+04  0.64659557517E+02  0.14892476631E+04  0.89989822585E+02 0.  0.
          2    1    3    3  502    0  0.13810134289E+03 -0.14020256647E+03 -0.20219118568E+03  0.28215246963E+03  0.00000000000E+00 0. -1.
         -1    1    3    3    0  502  0.13408851745E+04 -0.15730564279E+04 -0.18374828326E+04  0.27656505088E+04  0.00000000000E+00 0.  1.
         11    1    5    5    0    0 -0.51351464252E+03  0.55414473262E+03 -0.59737211686E+03  0.96313400873E+03  0.00000000000E+00 0.  1.
        -11    1    5    5    0    0 -0.15146300492E+02  0.17860180350E+02 -0.44324588290E+02  0.50130485613E+02  0.00000000000E+00 0. -1.
          3    1    6    6  503    0 -0.60292219343E+02  0.46917932124E+02 -0.79028408648E+01  0.76804289996E+02  0.00000000000E+00 0. -1.
         -3    1    6    6    0  503 -0.89003335505E+03  0.10943361493E+04  0.72562398382E+02  0.14124433731E+04  0.00000000000E+00 0.  1.
<mgrwt>
<rscale>  0 0.48947748E+04</rscale>
<asrwt>0</asrwt>
<pdfrwt beam="1">  1        2 0.62823278E+00 0.48947748E+04</pdfrwt>
<pdfrwt beam="2">  1       -1 0.22566185E+00 0.48947748E+04</pdfrwt>
<totfact> 0.24415901E-02</totfact>
</mgrwt>
</event>
<event>
12    6  0.1510140E-007  0.1502555E+04  0.7818608E-02  0.8882756E-01
         -1   -1    0    0    0  501 -0.00000000000E+00  0.00000000000E+00  0.12723582139E+04  0.12723582139E+04  0.00000000000E+00 0.  1.
          2   -1    0    0  501    0  0.00000000000E+00 -0.00000000000E+00 -0.44359989454E+03  0.44359989454E+03  0.00000000000E+00 0. -1.
         24    2    1    2    0    0 -0.18420652102E+03 -0.33862689760E+03  0.59634087290E+03  0.71470420653E+03  0.81113796492E+02 0.  0.
        254    2    1    2    0    0  0.18420652102E+03  0.33862689760E+03  0.23241744643E+03  0.10012539019E+04  0.89436641733E+03 0.  0.
         23    2    4    4    0    0  0.52970457377E+03  0.24331811169E+03  0.22428299540E+03  0.63151816057E+03  0.93389968166E+02 0.  0.
         23    2    4    4    0    0 -0.34549805275E+03  0.95308785907E+02  0.81344510301E+01  0.36973574130E+03  0.90474747754E+02 0.  0.
          4    1    3    3  502    0 -0.33318702505E+02 -0.33592300435E+02  0.37389626322E+02  0.60303919787E+02  0.00000000000E+00 0. -1.
         -3    1    3    3    0  502 -0.15088781852E+03 -0.30503459716E+03  0.55895124657E+03  0.65440028674E+03  0.00000000000E+00 0.  1.
         11    1    5    5    0    0  0.74607365240E+02  0.11501235060E+02  0.48707454639E+01  0.75645631185E+02  0.00000000000E+00 0. -1.
        -11    1    5    5    0    0  0.45509720853E+03  0.23181687663E+03  0.21941224994E+03  0.55587252939E+03  0.00000000000E+00 0.  1.
          3    1    6    6  503    0 -0.93555982319E+02  0.39486870004E+02  0.41173215907E+02  0.10957722591E+03  0.00000000000E+00 0. -1.
         -3    1    6    6    0  503 -0.25194207043E+03  0.55821915903E+02 -0.33038764877E+02  0.26015851539E+03  0.00000000000E+00 0.  1.
<mgrwt>
<rscale>  0 0.15025551E+04</rscale>
<asrwt>0</asrwt>
<pdfrwt beam="1">  1        2 0.68246138E-01 0.15025551E+04</pdfrwt>
<pdfrwt beam="2">  1       -1 0.19574742E+00 0.15025551E+04</pdfrwt>
<totfact> 0.12579143E+01</totfact>
</mgrwt>
</event>
<event>
12    6  0.1510140E-007  0.1490334E+04  0.7818608E-02  0.8890906E-01
         -1   -1    0    0    0  501 -0.00000000000E+00  0.00000000000E+00  0.17786298340E+03  0.17786298340E+03  0.00000000000E+00 0.  1.
          2   -1    0    0  501    0  0.00000000000E+00 -0.00000000000E+00 -0.31219177458E+04  0.31219177458E+04  0.00000000000E+00 0. -1.
         24    2    1    2    0    0 -0.25026154078E+03  0.27109447659E+03 -0.32838694755E+03  0.50023172133E+03  0.79187964200E+02 0.  0.
        254    2    1    2    0    0  0.25026154078E+03 -0.27109447659E+03 -0.26156678149E+04  0.27995490079E+04  0.92716421190E+03 0.  0.
         23    2    4    4    0    0  0.20141126176E+03 -0.55930343827E+03 -0.22185879761E+04  0.22983476853E+04  0.82961691733E+02 0.  0.
         23    2    4    4    0    0  0.48850279017E+02  0.28820896167E+03 -0.39707983874E+03  0.50120132259E+03  0.89886662437E+02 0.  0.
          2    1    3    3  502    0 -0.73030268770E+01  0.16551384634E+02 -0.44749405043E+02  0.48267916742E+02  0.00000000000E+00 0. -1.
         -1    1    3    3    0  502 -0.24295851390E+03  0.25454309196E+03 -0.28363754251E+03  0.45196380459E+03  0.00000000000E+00 0.  1.
         11    1    5    5    0    0  0.86520712999E+02 -0.25145679279E+03 -0.83729034417E+03  0.87850524919E+03  0.00000000000E+00 0. -1.
        -11    1    5    5    0    0  0.11489054876E+03 -0.30784664547E+03 -0.13812976320E+04  0.14198424361E+04  0.00000000000E+00 0.  1.
          3    1    6    6  503    0  0.49264742784E+02  0.11333468745E+03 -0.21996444536E+03  0.25230165176E+03  0.00000000000E+00 0. -1.
         -3    1    6    6    0  503 -0.41446376755E+00  0.17487427422E+03 -0.17711539339E+03  0.24889967083E+03  0.00000000000E+00 0.  1.
<mgrwt>
<rscale>  0 0.14903337E+04</rscale>
<asrwt>0</asrwt>
<pdfrwt beam="1">  1        2 0.48029504E+00 0.14903337E+04</pdfrwt>
<pdfrwt beam="2">  1       -1 0.27363536E-01 0.14903337E+04</pdfrwt>
<totfact> 0.19396814E+01</totfact>
</mgrwt>
</event>
<event>
12    6  0.1510140E-007  0.1484080E+04  0.7818608E-02  0.8895109E-01
         -1   -1    0    0    0  501 -0.00000000000E+00  0.00000000000E+00  0.66099752097E+03  0.66099752097E+03  0.00000000000E+00 0.  1.
          2   -1    0    0  501    0  0.00000000000E+00 -0.00000000000E+00 -0.83301848588E+03  0.83301848588E+03  0.00000000000E+00 0. -1.
         24    2    1    2    0    0 -0.29678656161E+03 -0.21214375407E+03 -0.34912598102E+03  0.51084571376E+03  0.77376721964E+02 0.  0.
        254    2    1    2    0    0  0.29678656161E+03  0.21214375407E+03  0.17710501611E+03  0.98317029309E+03  0.89563966133E+03 0.  0.
         23    2    4    4    0    0  0.26779361836E+03 -0.31877479103E+03  0.59061136168E+02  0.43029055922E+03  0.91274082360E+02 0.  0.
         23    2    4    4    0    0  0.28992943253E+02  0.53091854511E+03  0.11804387994E+03  0.55287973388E+03  0.95008158830E+02 0.  0.
          4    1    3    3  502    0 -0.21696045070E+03 -0.16723247314E+03 -0.30239282105E+03  0.40801955280E+03  0.00000000000E+00 0. -1.
         -3    1    3    3    0  502 -0.79826110914E+02 -0.44911280929E+02 -0.46733159964E+02  0.10282616096E+03  0.00000000000E+00 0.  1.
         11    1    5    5    0    0  0.27287463939E+02 -0.90791453822E+02  0.15042058921E+02  0.95989360410E+02  0.00000000000E+00 0.  1.
        -11    1    5    5    0    0  0.24050615442E+03 -0.22798333721E+03  0.44019077247E+02  0.33430119881E+03  0.00000000000E+00 0. -1.
          2    1    6    6  503    0 -0.84740470755E+01  0.17881154260E+03  0.82176645445E+02  0.19697303952E+03  0.00000000000E+00 0.  1.
         -2    1    6    6    0  503  0.37466990328E+02  0.35210700251E+03  0.35867234495E+02  0.35590669436E+03  0.00000000000E+00 0. -1.
<mgrwt>
<rscale>  0 0.14840797E+04</rscale>
<asrwt>0</asrwt>
<pdfrwt beam="1">  1        2 0.12815669E+00 0.14840797E+04</pdfrwt>
<pdfrwt beam="2">  1       -1 0.10169193E+00 0.14840797E+04</pdfrwt>
<totfact> 0.33047514E+01</totfact>
</mgrwt>
</event>
<event>
12    6  0.1510140E-007  0.2048001E+04  0.7818608E-02  0.8584502E-01
          2   -1    0    0  501    0  0.00000000000E+00  0.00000000000E+00  0.95588612703E+03  0.95588612703E+03  0.00000000000E+00 0. -1.
         -1   -1    0    0    0  501 -0.00000000000E+00 -0.00000000000E+00 -0.10969681969E+04  0.10969681969E+04  0.00000000000E+00 0.  1.
         24    2    1    2    0    0 -0.36173379683E+03  0.15655082460E+03  0.66895767315E+03  0.78089054182E+03  0.83223610690E+02 0.  0.
        254    2    1    2    0    0  0.36173379683E+03 -0.15655082460E+03 -0.81003974298E+03  0.12719637821E+04  0.89797994256E+03 0.  0.
         23    2    4    4    0    0 -0.27884227370E+03 -0.11884003908E+03 -0.16172505571E+03  0.35565697670E+03  0.91983275356E+02 0.  0.
         23    2    4    4    0    0  0.64057607053E+03 -0.37710785518E+02 -0.64831468726E+03  0.91630680536E+03  0.86870146518E+02 0.  0.
          4    1    3    3  502    0 -0.35148206135E+03  0.15958942769E+03  0.61668995411E+03  0.72754032492E+03  0.00000000000E+00 0. -1.
         -3    1    3    3    0  502 -0.10251735479E+02 -0.30386030936E+01  0.52267719040E+02  0.53350216895E+02  0.00000000000E+00 0.  1.
         11    1    5    5    0    0 -0.24888338218E+03 -0.12515618607E+03 -0.11861657637E+03  0.30278193642E+03  0.00000000000E+00 0.  1.
        -11    1    5    5    0    0 -0.29958891520E+02  0.63161469864E+01 -0.43108479338E+02  0.52875040281E+02  0.00000000000E+00 0. -1.
          1    1    6    6  503    0  0.30678174478E+02 -0.21169597577E+02 -0.41943329089E+02  0.56111898078E+02  0.00000000000E+00 0. -1.
         -1    1    6    6    0  503  0.60989789605E+03 -0.16541187940E+02 -0.60637135818E+03  0.86019490728E+03  0.00000000000E+00 0.  1.
<mgrwt>
<rscale>  0 0.20480007E+04</rscale>
<asrwt>0</asrwt>
<pdfrwt beam="1">  1        2 0.14705940E+00 0.20480007E+04</pdfrwt>
<pdfrwt beam="2">  1       -1 0.16876434E+00 0.20480007E+04</pdfrwt>
<totfact> 0.71384706E+00</totfact>
</mgrwt>
</event>
<event>
12    6  0.1510140E-007  0.1875624E+04  0.7818608E-02  0.8667086E-01
         -1   -1    0    0    0  501 -0.00000000000E+00  0.00000000000E+00  0.49854118931E+03  0.49854118931E+03  0.00000000000E+00 0.  1.
          2   -1    0    0  501    0  0.00000000000E+00 -0.00000000000E+00 -0.17641296431E+04  0.17641296431E+04  0.00000000000E+00 0. -1.
         24    2    1    2    0    0  0.31431958175E+03  0.25535188800E+03 -0.11807005429E+04  0.12507834178E+04  0.80024997488E+02 0.  0.
        254    2    1    2    0    0 -0.31431958175E+03 -0.25535188800E+03 -0.84887910874E+02  0.10118874145E+04  0.92342232813E+03 0.  0.
         23    2    4    4    0    0 -0.19409117085E+02 -0.21093172036E+03  0.38431816697E+03  0.44832050172E+03  0.91770988438E+02 0.  0.
         23    2    4    4    0    0 -0.29491046466E+03 -0.44420167639E+02 -0.46920607785E+03  0.56356691280E+03  0.92238756804E+02 0.  0.
          4    1    3    3  502    0  0.28135379608E+03  0.19354217612E+03 -0.94063427700E+03  0.10007054390E+04  0.00000000000E+00 0. -1.
         -3    1    3    3    0  502  0.32965785666E+02  0.61809711875E+02 -0.24006626587E+03  0.25007797887E+03  0.00000000000E+00 0.  1.
         11    1    5    5    0    0  0.27447809170E+02 -0.10522751447E+03  0.23929325823E+03  0.26284496469E+03  0.00000000000E+00 0.  1.
        -11    1    5    5    0    0 -0.46856926255E+02 -0.10570420589E+03  0.14502490875E+03  0.18547553703E+03  0.00000000000E+00 0. -1.
          2    1    6    6  503    0 -0.16154460508E+03  0.34231499888E+00 -0.17935788908E+03  0.24138357232E+03  0.00000000000E+00 0. -1.
         -2    1    6    6    0  503 -0.13336585958E+03 -0.44762482638E+02 -0.28984818877E+03  0.32218334049E+03  0.00000000000E+00 0.  1.
<mgrwt>
<rscale>  0 0.18756239E+04</rscale>
<asrwt>0</asrwt>
<pdfrwt beam="1">  1        2 0.27140456E+00 0.18756239E+04</pdfrwt>
<pdfrwt beam="2">  1       -1 0.76698645E-01 0.18756239E+04</pdfrwt>
<totfact> 0.16468008E+01</totfact>
</mgrwt>
</event>
<event>
12    6  0.1510140E-007  0.1594127E+04  0.7818608E-02  0.8824164E-01
         -1   -1    0    0    0  501 -0.00000000000E+00  0.00000000000E+00  0.28711751435E+03  0.28711751435E+03  0.00000000000E+00 0.  1.
          2   -1    0    0  501    0  0.00000000000E+00 -0.00000000000E+00 -0.22127174049E+04  0.22127174049E+04  0.00000000000E+00 0. -1.
         24    2    1    2    0    0  0.23778428936E+03  0.37707071078E+03 -0.13162222565E+03  0.47151642469E+03  0.79244174997E+02 0.  0.
        254    2    1    2    0    0 -0.23778428936E+03 -0.37707071078E+03 -0.17939776649E+04  0.20283184946E+04  0.83486308104E+03 0.  0.
         23    2    4    4    0    0 -0.26927537735E+03  0.17387279612E+03 -0.36424528026E+03  0.49341810651E+03  0.89698526035E+02 0.  0.
         23    2    4    4    0    0  0.31491087991E+02 -0.55094350690E+03 -0.14297323846E+04  0.15349003881E+04  0.85170846844E+02 0.  0.
          4    1    3    3  502    0  0.11394191146E+03  0.12121347133E+03 -0.70966294081E+02  0.18086370480E+03  0.00000000000E+00 0. -1.
         -3    1    3    3    0  502  0.12384237790E+03  0.25585723945E+03 -0.60655931574E+02  0.29065271989E+03  0.00000000000E+00 0.  1.
         11    1    5    5    0    0 -0.10455995432E+02  0.70278084467E+01 -0.57159656944E+02  0.58531566817E+02  0.00000000000E+00 0. -1.
        -11    1    5    5    0    0 -0.25881938192E+03  0.16684498767E+03 -0.30708562331E+03  0.43488653970E+03  0.00000000000E+00 0.  1.
          3    1    6    6  503    0 -0.25401921221E+02 -0.80337619983E+02 -0.20626507168E+03  0.22281084035E+03  0.00000000000E+00 0. -1.
         -3    1    6    6    0  503  0.56893009212E+02 -0.47060588691E+03 -0.12234673130E+04  0.13120895477E+04  0.00000000000E+00 0.  1.
<mgrwt>
<rscale>  0 0.15941266E+04</rscale>
<asrwt>0</asrwt>
<pdfrwt beam="1">  1        2 0.34041805E+00 0.15941266E+04</pdfrwt>
<pdfrwt beam="2">  1       -1 0.44171926E-01 0.15941266E+04</pdfrwt>
<totfact> 0.28162555E+01</totfact>
</mgrwt>
</event>
<event>
12    6  0.1510140E-007  0.2068085E+04  0.7818608E-02  0.8575434E-01
         -1   -1    0    0    0  501 -0.00000000000E+00  0.00000000000E+00  0.81460245044E+03  0.81460245044E+03  0.00000000000E+00 0.  1.
          2   -1    0    0  501    0  0.00000000000E+00 -0.00000000000E+00 -0.13125958021E+04  0.13125958021E+04  0.00000000000E+00 0. -1.
         24    2    1    2    0    0  0.53098114152E+03 -0.24778921880E+02 -0.86825357417E+03  0.10211046525E+04  0.78965022418E+02 0.  0.
        254    2    1    2    0    0 -0.53098114152E+03  0.24778921880E+02  0.37026022247E+03  0.11060936000E+04  0.89654640265E+03 0.  0.
         23    2    4    4    0    0 -0.64486464405E+03  0.20674173206E+02 -0.58075340486E+02  0.65353679387E+03  0.86369932166E+02 0.  0.
         23    2    4    4    0    0  0.11388350254E+03  0.41047486737E+01  0.42833556295E+03  0.45255680617E+03  0.91378373852E+02 0.  0.
          4    1    3    3  502    0  0.44100204904E+03  0.42793355198E+01 -0.74511754267E+03  0.86585291613E+03  0.00000000000E+00 0. -1.
         -3    1    3    3    0  502  0.89979092474E+02 -0.29058257400E+02 -0.12313603149E+03  0.15525173641E+03  0.00000000000E+00 0.  1.
         11    1    5    5    0    0 -0.45522641922E+03  0.15850643315E+02 -0.12327373989E+01  0.45550395749E+03  0.00000000000E+00 0. -1.
        -11    1    5    5    0    0 -0.18963822484E+03  0.48235298911E+01 -0.56842603087E+02  0.19803283638E+03  0.00000000000E+00 0.  1.
          1    1    6    6  503    0  0.49172796036E+02 -0.33721637308E+02  0.10597800338E+03  0.12159954725E+03  0.00000000000E+00 0. -1.
         -1    1    6    6    0  503  0.64710706502E+02  0.37826385982E+02  0.32235755958E+03  0.33095725892E+03  0.00000000000E+00 0.  1.
<mgrwt>
<rscale>  0 0.20680849E+04</rscale>
<asrwt>0</asrwt>
<pdfrwt beam="1">  1        2 0.20193782E+00 0.20680849E+04</pdfrwt>
<pdfrwt beam="2">  1       -1 0.12532345E+00 0.20680849E+04</pdfrwt>
<totfact> 0.95186259E+00</totfact>
</mgrwt>
</event>
<event>
12    6  0.1510140E-007  0.3185889E+04  0.7818608E-02  0.8192554E-01
          2   -1    0    0  501    0  0.00000000000E+00  0.00000000000E+00  0.32592554162E+04  0.32592554162E+04  0.00000000000E+00 0. -1.
         -1   -1    0    0    0  501 -0.00000000000E+00 -0.00000000000E+00 -0.77854347845E+03  0.77854347845E+03  0.00000000000E+00 0.  1.
         24    2    1    2    0    0 -0.12115469951E+04 -0.81544659289E+03  0.13073725463E+04  0.19617183833E+04  0.79478132947E+02 0.  0.
        254    2    1    2    0    0  0.12115469951E+04  0.81544659289E+03  0.11733393915E+04  0.20760805113E+04  0.89475454445E+03 0.  0.
         23    2    4    4    0    0  0.57633095683E+03  0.72579534321E+03  0.10724989894E+04  0.14203769011E+04  0.90995641995E+02 0.  0.
         23    2    4    4    0    0  0.63521603824E+03  0.89651249680E+02  0.10084040207E+03  0.65570361023E+03  0.90783676793E+02 0.  0.
          4    1    3    3  502    0 -0.57690633720E+03 -0.35115824050E+03  0.57069609866E+03  0.88420985564E+03  0.00000000000E+00 0. -1.
         -3    1    3    3    0  502 -0.63464065787E+03 -0.46428835239E+03  0.73667644760E+03  0.10775085277E+04  0.00000000000E+00 0.  1.
         11    1    5    5    0    0  0.26742725909E+03  0.38813253299E+03  0.59353960850E+03  0.75792708682E+03  0.00000000000E+00 0. -1.
        -11    1    5    5    0    0  0.30890369774E+03  0.33766281023E+03  0.47895938092E+03  0.66244981429E+03  0.00000000000E+00 0.  1.
          2    1    6    6  503    0  0.42019644230E+03  0.89127006573E+02  0.98391425023E+02  0.44066942932E+03  0.00000000000E+00 0. -1.
         -2    1    6    6    0  503  0.21501959594E+03  0.52424310645E+00  0.24489770426E+01  0.21503418091E+03  0.00000000000E+00 0.  1.
<mgrwt>
<rscale>  0 0.31858889E+04</rscale>
<asrwt>0</asrwt>
<pdfrwt beam="1">  1        2 0.50142390E+00 0.31858889E+04</pdfrwt>
<pdfrwt beam="2">  1       -1 0.11977592E+00 0.31858889E+04</pdfrwt>
<totfact> 0.70524877E-01</totfact>
</mgrwt>
</event>
<event>
12    6  0.1510140E-007  0.2873385E+04  0.7818608E-02  0.8280841E-01
         -1   -1    0    0    0  501 -0.00000000000E+00  0.00000000000E+00  0.50988200303E+03  0.50988200303E+03  0.00000000000E+00 0.  1.
          2   -1    0    0  501    0  0.00000000000E+00 -0.00000000000E+00 -0.40481613894E+04  0.40481613894E+04  0.00000000000E+00 0. -1.
         24    2    1    2    0    0 -0.91105655857E+03 -0.80899548854E+03 -0.22859541455E+04  0.25916071825E+04  0.79647217736E+02 0.  0.
        254    2    1    2    0    0  0.91105655857E+03  0.80899548854E+03 -0.12523252409E+04  0.19664362100E+04  0.90225002395E+03 0.  0.
         23    2    4    4    0    0  0.29264590952E+03 -0.17256815643E+03 -0.32357546701E+03  0.47744730352E+03  0.88506767084E+02 0.  0.
         23    2    4    4    0    0  0.61841064904E+03  0.98156364497E+03 -0.92874977385E+03  0.14889889065E+04  0.92805717516E+02 0.  0.
          4    1    3    3  502    0 -0.64366645755E+03 -0.60589208859E+03 -0.16033473737E+04  0.18308835387E+04  0.00000000000E+00 0. -1.
         -3    1    3    3    0  502 -0.26739010101E+03 -0.20310339995E+03 -0.68260677183E+03  0.76072364373E+03  0.00000000000E+00 0.  1.
         11    1    5    5    0    0  0.56402054003E+02 -0.74704358898E+02 -0.10863320592E+03  0.14339841827E+03  0.00000000000E+00 0.  1.
        -11    1    5    5    0    0  0.23624385552E+03 -0.97863797531E+02 -0.21494226109E+03  0.33404888525E+03  0.00000000000E+00 0. -1.
          1    1    6    6  503    0  0.47070890619E+03  0.81490541366E+03 -0.74496313344E+03  0.12002532140E+04  0.00000000000E+00 0. -1.
         -1    1    6    6    0  503  0.14770174285E+03  0.16665823131E+03 -0.18378664041E+03  0.28873569245E+03  0.00000000000E+00 0.  1.
<mgrwt>
<rscale>  0 0.28733845E+04</rscale>
<asrwt>0</asrwt>
<pdfrwt beam="1">  1        2 0.62279406E+00 0.28733845E+04</pdfrwt>
<pdfrwt beam="2">  1       -1 0.78443386E-01 0.28733845E+04</pdfrwt>
<totfact> 0.49971425E-01</totfact>
</mgrwt>
</event>
<event>
12    6  0.1510140E-007  0.2733952E+04  0.7818608E-02  0.8324072E-01
         -1   -1    0    0    0  501 -0.00000000000E+00  0.00000000000E+00  0.43473178539E+04  0.43473178539E+04  0.00000000000E+00 0.  1.
          2   -1    0    0  501    0  0.00000000000E+00 -0.00000000000E+00 -0.42983366986E+03  0.42983366986E+03  0.00000000000E+00 0. -1.
         24    2    1    2    0    0  0.10390167418E+04  0.35191753089E+03  0.81995512368E+03  0.13718935764E+04  0.79773691394E+02 0.  0.
        254    2    1    2    0    0 -0.10390167418E+04 -0.35191753089E+03  0.30975290604E+04  0.34052579474E+04  0.89313698283E+03 0.  0.
         23    2    4    4    0    0 -0.46642676050E+03 -0.43894513506E+03  0.77341582957E+03  0.10083358514E+04  0.91336680608E+02 0.  0.
         23    2    4    4    0    0 -0.57258998129E+03  0.87027604168E+02  0.23241132308E+04  0.23969220960E+04  0.91105072400E+02 0.  0.
          4    1    3    3  502    0  0.74752976622E+03  0.22954903135E+03  0.54798028938E+03  0.95486957577E+03  0.00000000000E+00 0. -1.
         -3    1    3    3    0  502  0.29148697557E+03  0.12236849954E+03  0.27197483430E+03  0.41702400063E+03  0.00000000000E+00 0.  1.
         11    1    5    5    0    0 -0.23688592768E+01 -0.79689292137E+01  0.32911730591E+02  0.33945505411E+02  0.00000000000E+00 0. -1.
        -11    1    5    5    0    0 -0.46405790122E+03 -0.43097620584E+03  0.74050409898E+03  0.97439034596E+03  0.00000000000E+00 0.  1.
          1    1    6    6  503    0 -0.11419260649E+03  0.44720845678E+02  0.39259920234E+03  0.41130771826E+03  0.00000000000E+00 0. -1.
         -1    1    6    6    0  503 -0.45839737480E+03  0.42306758489E+02  0.19315140285E+04  0.19856143778E+04  0.00000000000E+00 0.  1.
<mgrwt>
<rscale>  0 0.27339521E+04</rscale>
<asrwt>0</asrwt>
<pdfrwt beam="1">  1        2 0.66128260E-01 0.27339521E+04</pdfrwt>
<pdfrwt beam="2">  1       -1 0.66881810E+00 0.27339521E+04</pdfrwt>
<totfact> 0.18366029E-02</totfact>
</mgrwt>
</event>
<event>
12    6  0.1510140E-007  0.2613745E+04  0.7818608E-02  0.8363547E-01
         -1   -1    0    0    0  501 -0.00000000000E+00  0.00000000000E+00  0.68030429668E+03  0.68030429668E+03  0.00000000000E+00 0.  1.
          2   -1    0    0  501    0  0.00000000000E+00 -0.00000000000E+00 -0.25105179645E+04  0.25105179645E+04  0.00000000000E+00 0. -1.
         24    2    1    2    0    0  0.73542831899E+03 -0.74068477110E+01 -0.18787984962E+04  0.20192062867E+04  0.80003531175E+02 0.  0.
        254    2    1    2    0    0 -0.73542831899E+03  0.74068477110E+01  0.48584828401E+02  0.11716159745E+04  0.91072159983E+03 0.  0.
         23    2    4    4    0    0 -0.24791247076E+03  0.25667468469E+03 -0.33333180451E+03  0.49774935754E+03  0.96446068440E+02 0.  0.
         23    2    4    4    0    0 -0.48751584823E+03 -0.24926783698E+03  0.38191663291E+03  0.67386661696E+03  0.91813648969E+02 0.  0.
          2    1    3    3  502    0  0.48196282268E+03 -0.42829264870E+02 -0.12230411266E+04  0.13152764370E+04  0.00000000000E+00 0. -1.
         -1    1    3    3    0  502  0.25346549632E+03  0.35422417159E+02 -0.65575736960E+03  0.70392984966E+03  0.00000000000E+00 0.  1.
         11    1    5    5    0    0 -0.21975328624E+03  0.22006199765E+03 -0.23731219576E+03  0.39119799064E+03  0.00000000000E+00 0.  1.
        -11    1    5    5    0    0 -0.28159184525E+02  0.36612687037E+02 -0.96019608747E+02  0.10655136690E+03  0.00000000000E+00 0. -1.
          3    1    6    6  503    0 -0.43820871909E+03 -0.21005932487E+03  0.36743032536E+03  0.60922643200E+03  0.00000000000E+00 0. -1.
         -3    1    6    6    0  503 -0.49307129141E+02 -0.39208512112E+02  0.14486307551E+02  0.64640184967E+02  0.00000000000E+00 0.  1.
<mgrwt>
<rscale>  0 0.26137453E+04</rscale>
<asrwt>0</asrwt>
<pdfrwt beam="1">  1        2 0.38623353E+00 0.26137453E+04</pdfrwt>
<pdfrwt beam="2">  1       -1 0.10466220E+00 0.26137453E+04</pdfrwt>
<totfact> 0.29576024E+00</totfact>
</mgrwt>
</event>
<event>
12    6  0.1510140E-007  0.2485655E+04  0.7818608E-02  0.8408114E-01
          2   -1    0    0  501    0  0.00000000000E+00  0.00000000000E+00  0.26628640891E+04  0.26628640891E+04  0.00000000000E+00 0. -1.
         -1   -1    0    0    0  501 -0.00000000000E+00 -0.00000000000E+00 -0.58005965824E+03  0.58005965824E+03  0.00000000000E+00 0.  1.
         24    2    1    2    0    0  0.69514492572E+02  0.81186586849E+03  0.18227909642E+04  0.19982411680E+04  0.80264644619E+02 0.  0.
        254    2    1    2    0    0 -0.69514492572E+02 -0.81186586849E+03  0.26001346669E+03  0.12446825794E+04  0.90425066628E+03 0.  0.
         23    2    4    4    0    0  0.67333122001E+02  0.48322573361E+02  0.34075361588E+03  0.36567326444E+03  0.10361027544E+03 0.  0.
         23    2    4    4    0    0 -0.13684761457E+03 -0.86018844185E+03 -0.80740149192E+02  0.87900931494E+03  0.86527330729E+02 0.  0.
          4    1    3    3  502    0  0.40456079176E+02  0.53306718493E+03  0.11008714876E+04  0.12238118116E+04  0.00000000000E+00 0. -1.
         -3    1    3    3    0  502  0.29058413396E+02  0.27879868355E+03  0.72191947666E+03  0.77442935644E+03  0.00000000000E+00 0.  1.
         11    1    5    5    0    0  0.29774298491E+02 -0.30438919281E+02  0.78794014538E+02  0.89563013486E+02  0.00000000000E+00 0. -1.
        -11    1    5    5    0    0  0.37558823510E+02  0.78761492641E+02  0.26195960134E+03  0.27611025096E+03  0.00000000000E+00 0.  1.
          3    1    6    6  503    0 -0.26571365638E+02 -0.43227508185E+02 -0.50190485313E+00  0.50743539926E+02  0.00000000000E+00 0. -1.
         -3    1    6    6    0  503 -0.11027624893E+03 -0.81696093366E+03 -0.80238244338E+02  0.82826577502E+03  0.00000000000E+00 0.  1.
<mgrwt>
<rscale>  0 0.24856549E+04</rscale>
<asrwt>0</asrwt>
<pdfrwt beam="1">  1        2 0.40967139E+00 0.24856549E+04</pdfrwt>
<pdfrwt beam="2">  1       -1 0.89239949E-01 0.24856549E+04</pdfrwt>
<totfact> 0.34918762E+00</totfact>
</mgrwt>
</event>
<event>
12    6  0.1510140E-007  0.2685324E+04  0.7818608E-02  0.8339783E-01
         -1   -1    0    0    0  501 -0.00000000000E+00  0.00000000000E+00  0.59775944938E+03  0.59775944938E+03  0.00000000000E+00 0.  1.
          2   -1    0    0  501    0  0.00000000000E+00 -0.00000000000E+00 -0.30158298840E+04  0.30158298840E+04  0.00000000000E+00 0. -1.
         24    2    1    2    0    0  0.11708985650E+04  0.19537911987E+03 -0.95052385443E+03  0.15230140352E+04  0.83064453717E+02 0.  0.
        254    2    1    2    0    0 -0.11708985650E+04 -0.19537911987E+03 -0.14675465802E+04  0.20905752983E+04  0.89868551925E+03 0.  0.
         23    2    4    4    0    0 -0.66828889810E+03 -0.28854584110E+02 -0.18463501422E+03  0.69969303112E+03  0.89652724271E+02 0.  0.
         23    2    4    4    0    0 -0.50260966690E+03 -0.16652453576E+03 -0.12829115660E+04  0.13908822671E+04  0.91348215918E+02 0.  0.
          4    1    3    3  502    0  0.42384680082E+03  0.67426918506E+02 -0.39519796084E+03  0.58341574213E+03  0.00000000000E+00 0. -1.
         -3    1    3    3    0  502  0.74705176418E+03  0.12795220136E+03 -0.55532589359E+03  0.93959829304E+03  0.00000000000E+00 0.  1.
         11    1    5    5    0    0 -0.36682974992E+02  0.70388557257E+01 -0.31344053214E+02  0.48761007127E+02  0.00000000000E+00 0. -1.
        -11    1    5    5    0    0 -0.63160592311E+03 -0.35893439836E+02 -0.15329096101E+03  0.65093202399E+03  0.00000000000E+00 0.  1.
          3    1    6    6  503    0 -0.14466091281E+03 -0.26241348946E+02 -0.45265572273E+03  0.47593338968E+03  0.00000000000E+00 0. -1.
         -3    1    6    6    0  503 -0.35794875409E+03 -0.14028318681E+03 -0.83025584328E+03  0.91494887745E+03  0.00000000000E+00 0.  1.
<mgrwt>
<rscale>  0 0.26853237E+04</rscale>
<asrwt>0</asrwt>
<pdfrwt beam="1">  1        2 0.46397383E+00 0.26853237E+04</pdfrwt>
<pdfrwt beam="2">  1       -1 0.91962993E-01 0.26853237E+04</pdfrwt>
<totfact> 0.19561096E+00</totfact>
</mgrwt>
</event>
<event>
12    6  0.1510140E-007  0.2701709E+04  0.7818608E-02  0.8334451E-01
         -1   -1    0    0    0  501 -0.00000000000E+00  0.00000000000E+00  0.19646348721E+04  0.19646348721E+04  0.00000000000E+00 0.  1.
          2   -1    0    0  501    0  0.00000000000E+00 -0.00000000000E+00 -0.92882784611E+03  0.92882784611E+03  0.00000000000E+00 0. -1.
         24    2    1    2    0    0  0.17653921541E+03 -0.99249907099E+03  0.11426168630E+04  0.15259005036E+04  0.81108265132E+02 0.  0.
        254    2    1    2    0    0 -0.17653921541E+03  0.99249907099E+03 -0.10680983702E+03  0.13675622146E+04  0.91793113529E+03 0.  0.
         23    2    4    4    0    0  0.28586087411E+03  0.10937849525E+03 -0.17526195392E+03  0.36424121940E+03  0.90966031253E+02 0.  0.
         23    2    4    4    0    0 -0.46240008953E+03  0.88312057574E+03  0.68452116902E+02  0.10033209952E+04  0.90837949695E+02 0.  0.
          2    1    3    3  502    0  0.42041308022E+02 -0.10264312892E+03  0.11148931186E+03  0.15726712992E+03  0.00000000000E+00 0. -1.
         -1    1    3    3    0  502  0.13449790739E+03 -0.88985594207E+03  0.10311275512E+04  0.13686333737E+04  0.00000000000E+00 0.  1.
         11    1    5    5    0    0  0.29089127329E+03  0.98199722104E+02 -0.16762753689E+03  0.34979981336E+03  0.00000000000E+00 0.  1.
        -11    1    5    5    0    0 -0.50303991805E+01  0.11178773147E+02 -0.76344170343E+01  0.14441406041E+02  0.00000000000E+00 0. -1.
          3    1    6    6  503    0 -0.26965408017E+02  0.18557351970E+02  0.60344826561E+01  0.33285485164E+02  0.00000000000E+00 0. -1.
         -3    1    6    6    0  503 -0.43543468151E+03  0.86456322377E+03  0.62417634246E+02  0.97003551008E+03  0.00000000000E+00 0.  1.
<mgrwt>
<rscale>  0 0.27017088E+04</rscale>
<asrwt>0</asrwt>
<pdfrwt beam="1">  1        2 0.14289659E+00 0.27017088E+04</pdfrwt>
<pdfrwt beam="2">  1       -1 0.30225152E+00 0.27017088E+04</pdfrwt>
<totfact> 0.89544919E-01</totfact>
</mgrwt>
</event>
<event>
12    6  0.1510140E-007  0.1616434E+04  0.7818608E-02  0.8810515E-01
         -1   -1    0    0    0  501 -0.00000000000E+00  0.00000000000E+00  0.10326552521E+04  0.10326552521E+04  0.00000000000E+00 0.  1.
          2   -1    0    0  501    0  0.00000000000E+00 -0.00000000000E+00 -0.63255845976E+03  0.63255845976E+03  0.00000000000E+00 0. -1.
         24    2    1    2    0    0 -0.13193267043E+02 -0.55668908627E+03  0.13967756600E+03  0.57971444008E+03  0.80512163779E+02 0.  0.
        254    2    1    2    0    0  0.13193267043E+02  0.55668908627E+03  0.26041922631E+03  0.10854992718E+04  0.89465842335E+03 0.  0.
         23    2    4    4    0    0 -0.92864392400E+02 -0.16143911861E+03  0.28691421964E+03  0.35331427932E+03  0.88458047396E+02 0.  0.
         23    2    4    4    0    0  0.10605765944E+03  0.71812820488E+03 -0.26494993334E+02  0.73218499243E+03  0.91850599878E+02 0.  0.
          2    1    3    3  502    0 -0.16806938018E+02 -0.41171849300E+03  0.66884738290E+02  0.41745437937E+03  0.00000000000E+00 0. -1.
         -1    1    3    3    0  502  0.36136709746E+01 -0.14497059328E+03  0.72792827714E+02  0.16226006070E+03  0.00000000000E+00 0.  1.
         11    1    5    5    0    0 -0.69424072641E+01 -0.46884786969E+02  0.22170522271E+02  0.52325064028E+02  0.00000000000E+00 0.  1.
        -11    1    5    5    0    0 -0.85921985136E+02 -0.11455433164E+03  0.26474369737E+03  0.30098921530E+03  0.00000000000E+00 0. -1.
          2    1    6    6  503    0  0.83991447262E+02  0.34281799859E+03 -0.44756073792E+02  0.35578343063E+03  0.00000000000E+00 0. -1.
         -2    1    6    6    0  503  0.22066212182E+02  0.37531020629E+03  0.18261080458E+02  0.37640156180E+03  0.00000000000E+00 0.  1.
<mgrwt>
<rscale>  0 0.16164341E+04</rscale>
<asrwt>0</asrwt>
<pdfrwt beam="1">  1        2 0.97316686E-01 0.16164341E+04</pdfrwt>
<pdfrwt beam="2">  1       -1 0.15887004E+00 0.16164341E+04</pdfrwt>
<totfact> 0.15163832E+01</totfact>
</mgrwt>
</event>
<event>
12    6  0.1510140E-007  0.1954343E+04  0.7818608E-02  0.8628269E-01
          2   -1    0    0  501    0  0.00000000000E+00  0.00000000000E+00  0.20315902446E+04  0.20315902446E+04  0.00000000000E+00 0. -1.
         -1   -1    0    0    0  501 -0.00000000000E+00 -0.00000000000E+00 -0.47000838963E+03  0.47000838963E+03  0.00000000000E+00 0.  1.
         24    2    1    2    0    0 -0.11589000382E+03 -0.35082133094E+03 -0.24284669475E+03  0.44925767738E+03  0.79698458592E+02 0.  0.
        254    2    1    2    0    0  0.11589000382E+03  0.35082133094E+03  0.18044285497E+04  0.20523409569E+04  0.90533690574E+03 0.  0.
         23    2    4    4    0    0  0.45114993118E+03  0.10525190738E+03  0.53576042654E+03  0.71441789590E+03  0.93485137426E+02 0.  0.
         23    2    4    4    0    0 -0.33525992736E+03  0.24556942357E+03  0.12686681232E+04  0.13379230610E+04  0.88406728135E+02 0.  0.
          2    1    3    3  502    0 -0.33931015518E+02 -0.86739234674E+02 -0.22830530243E+02  0.95897037269E+02  0.00000000000E+00 0. -1.
         -1    1    3    3    0  502 -0.81958988306E+02 -0.26408209627E+03 -0.22001616451E+03  0.35336064011E+03  0.00000000000E+00 0.  1.
         11    1    5    5    0    0  0.15222102128E+02 -0.10585714670E+02  0.80689670896E+01  0.20220731395E+02  0.00000000000E+00 0. -1.
        -11    1    5    5    0    0  0.43592782905E+03  0.11583762205E+03  0.52769145945E+03  0.69419716450E+03  0.00000000000E+00 0.  1.
          1    1    6    6  503    0 -0.90631943531E+02  0.90717921538E+02  0.28473115434E+03  0.31227507221E+03  0.00000000000E+00 0. -1.
         -1    1    6    6    0  503 -0.24462798383E+03  0.15485150203E+03  0.98393696885E+03  0.10256479887E+04  0.00000000000E+00 0.  1.
<mgrwt>
<rscale>  0 0.19543433E+04</rscale>
<asrwt>0</asrwt>
<pdfrwt beam="1">  1        2 0.31255234E+00 0.19543433E+04</pdfrwt>
<pdfrwt beam="2">  1       -1 0.72308984E-01 0.19543433E+04</pdfrwt>
<totfact> 0.13142950E+01</totfact>
</mgrwt>
</event>
<event>
12    6  0.1510140E-007  0.1629029E+04  0.7818608E-02  0.8802910E-01
         -1   -1    0    0    0  501 -0.00000000000E+00  0.00000000000E+00  0.27330165487E+03  0.27330165487E+03  0.00000000000E+00 0.  1.
          2   -1    0    0  501    0  0.00000000000E+00 -0.00000000000E+00 -0.24274798513E+04  0.24274798513E+04  0.00000000000E+00 0. -1.
         24    2    1    2    0    0 -0.32504596797E+03 -0.75476399471E+02 -0.15031981430E+04  0.15417537510E+04  0.77771481324E+02 0.  0.
        254    2    1    2    0    0  0.32504596797E+03  0.75476399471E+02 -0.65098005342E+03  0.11590277552E+04  0.89900986603E+03 0.  0.
         23    2    4    4    0    0 -0.21144103861E+03  0.58469164554E+02  0.76631911943E+02  0.25026503553E+03  0.92920299539E+02 0.  0.
         23    2    4    4    0    0  0.53648700658E+03  0.17007234917E+02 -0.72761196536E+03  0.90876271969E+03  0.91230226801E+02 0.  0.
          2    1    3    3  502    0 -0.30133313587E+03 -0.71467942460E+02 -0.14582901373E+04  0.14908116750E+04  0.00000000000E+00 0. -1.
         -1    1    3    3    0  502 -0.23712832101E+02 -0.40084570106E+01 -0.44908005703E+02  0.50942076029E+02  0.00000000000E+00 0.  1.
         11    1    5    5    0    0 -0.53988927753E+01  0.29695298802E+02  0.86301607547E+01  0.31391694583E+02  0.00000000000E+00 0.  1.
        -11    1    5    5    0    0 -0.20604214583E+03  0.28773865751E+02  0.68001751188E+02  0.21887334094E+03  0.00000000000E+00 0. -1.
          2    1    6    6  503    0  0.37986748409E+03 -0.95912951346E+01 -0.45062327133E+03  0.58945112696E+03  0.00000000000E+00 0. -1.
         -2    1    6    6    0  503  0.15661952249E+03  0.26598530052E+02 -0.27698869403E+03  0.31931159272E+03  0.00000000000E+00 0.  1.
<mgrwt>
<rscale>  0 0.16290295E+04</rscale>
<asrwt>0</asrwt>
<pdfrwt beam="1">  1        2 0.37345843E+00 0.16290295E+04</pdfrwt>
<pdfrwt beam="2">  1       -1 0.42046410E-01 0.16290295E+04</pdfrwt>
<totfact> 0.23247119E+01</totfact>
</mgrwt>
</event>
<event>
12    6  0.1510140E-007  0.2069831E+04  0.7818608E-02  0.8574651E-01
          2   -1    0    0  501    0  0.00000000000E+00  0.00000000000E+00  0.14644557682E+04  0.14644557682E+04  0.00000000000E+00 0. -1.
         -1   -1    0    0    0  501 -0.00000000000E+00 -0.00000000000E+00 -0.73136410161E+03  0.73136410161E+03  0.00000000000E+00 0.  1.
         24    2    1    2    0    0 -0.30544591278E+03 -0.74528137084E+03  0.53582453589E+03  0.97055001898E+03  0.78216869802E+02 0.  0.
        254    2    1    2    0    0  0.30544591278E+03  0.74528137084E+03  0.19726713073E+03  0.12252698509E+04  0.90201461141E+03 0.  0.
         23    2    4    4    0    0  0.17043595656E+03  0.19369363029E+03 -0.34131899505E+03  0.43751010114E+03  0.91382681686E+02 0.  0.
         23    2    4    4    0    0  0.13500995622E+03  0.55158774055E+03  0.53858612577E+03  0.78775974972E+03  0.89519185646E+02 0.  0.
          4    1    3    3  502    0 -0.27064596502E+03 -0.57649353900E+03  0.42529708403E+03  0.76581436952E+03  0.00000000000E+00 0. -1.
         -3    1    3    3    0  502 -0.34799947762E+02 -0.16878783184E+03  0.11052745186E+03  0.20473564946E+03  0.00000000000E+00 0.  1.
         11    1    5    5    0    0 -0.41548712840E+00 -0.86144999570E+01 -0.14610653231E+02  0.16966243747E+02  0.00000000000E+00 0.  1.
        -11    1    5    5    0    0  0.17085144369E+03  0.20230813025E+03 -0.32670834182E+03  0.42054385739E+03  0.00000000000E+00 0. -1.
          1    1    6    6  503    0  0.13763788832E+03  0.43896108800E+03  0.45877442649E+03  0.64969608239E+03  0.00000000000E+00 0. -1.
         -1    1    6    6    0  503 -0.26279321089E+01  0.11262665256E+03  0.79811699289E+02  0.13806366733E+03  0.00000000000E+00 0.  1.
<mgrwt>
<rscale>  0 0.20698313E+04</rscale>
<asrwt>0</asrwt>
<pdfrwt beam="1">  1        2 0.22530089E+00 0.20698313E+04</pdfrwt>
<pdfrwt beam="2">  1       -1 0.11251755E+00 0.20698313E+04</pdfrwt>
<totfact> 0.10122264E+01</totfact>
</mgrwt>
</event>
<event>
12    6  0.1510140E-007  0.2428365E+04  0.7818608E-02  0.8428960E-01
         -1   -1    0    0    0  501 -0.00000000000E+00  0.00000000000E+00  0.14910964232E+04  0.14910964232E+04  0.00000000000E+00 0.  1.
          2   -1    0    0  501    0  0.00000000000E+00 -0.00000000000E+00 -0.98869431387E+03  0.98869431387E+03  0.00000000000E+00 0. -1.
         24    2    1    2    0    0 -0.29390819045E+03 -0.74051956351E+03 -0.47380094189E+03  0.93036490041E+03  0.79625793704E+02 0.  0.
        254    2    1    2    0    0  0.29390819045E+03  0.74051956351E+03  0.97620305120E+03  0.15494258366E+04  0.90166333944E+03 0.  0.
         23    2    4    4    0    0  0.46707665243E+03  0.81617871372E+03  0.94347994171E+03  0.13351283345E+04  0.90027646689E+02 0.  0.
         23    2    4    4    0    0 -0.17316846198E+03 -0.75659150212E+02  0.32723109494E+02  0.21429750214E+03  0.95608547174E+02 0.  0.
          2    1    3    3  502    0 -0.29552472450E+03 -0.73891433865E+03 -0.46595484695E+03  0.92219476362E+03  0.00000000000E+00 0. -1.
         -1    1    3    3    0  502  0.16165340528E+01 -0.16052248543E+01 -0.78460949493E+01  0.81701367878E+01  0.00000000000E+00 0.  1.
         11    1    5    5    0    0  0.31657234849E+02  0.21944707582E+02  0.31162957707E+02  0.49546752085E+02  0.00000000000E+00 0. -1.
        -11    1    5    5    0    0  0.43541941759E+03  0.79423400614E+03  0.91231698400E+03  0.12855815824E+04  0.00000000000E+00 0.  1.
          3    1    6    6  503    0 -0.64014046382E+02  0.17754758854E+02 -0.21164883878E+01  0.66464344722E+02  0.00000000000E+00 0. -1.
         -3    1    6    6    0  503 -0.10915441560E+03 -0.93413909067E+02  0.34839597881E+02  0.14783315742E+03  0.00000000000E+00 0.  1.
<mgrwt>
<rscale>  0 0.24283645E+04</rscale>
<asrwt>0</asrwt>
<pdfrwt beam="1">  1        2 0.15210682E+00 0.24283645E+04</pdfrwt>
<pdfrwt beam="2">  1       -1 0.22939945E+00 0.24283645E+04</pdfrwt>
<totfact> 0.24960181E+00</totfact>
</mgrwt>
</event>
<event>
12    6  0.1510140E-007  0.2041844E+04  0.7818608E-02  0.8587303E-01
         -1   -1    0    0    0  501 -0.00000000000E+00  0.00000000000E+00  0.13195477795E+04  0.13195477795E+04  0.00000000000E+00 0.  1.
          2   -1    0    0  501    0  0.00000000000E+00 -0.00000000000E+00 -0.78987795894E+03  0.78987795894E+03  0.00000000000E+00 0. -1.
         24    2    1    2    0    0 -0.66511027631E+03  0.40224415098E+03  0.48579628399E+03  0.92011996408E+03  0.80316138619E+02 0.  0.
        254    2    1    2    0    0  0.66511027631E+03 -0.40224415098E+03  0.43873536573E+02  0.11893057744E+04  0.89908358960E+03 0.  0.
         23    2    4    4    0    0 -0.10167897950E+03 -0.33597234240E+03 -0.14674982929E+03  0.39124148197E+03  0.91205016811E+02 0.  0.
         23    2    4    4    0    0  0.76678925580E+03 -0.66271808583E+02  0.19062336586E+03  0.79806429239E+03  0.90618054255E+02 0.  0.
          4    1    3    3  502    0 -0.17194314288E+03  0.13617672870E+03  0.16461511131E+03  0.27423836474E+03  0.00000000000E+00 0. -1.
         -3    1    3    3    0  502 -0.49316713342E+03  0.26606742228E+03  0.32118117268E+03  0.64588159934E+03  0.00000000000E+00 0.  1.
         11    1    5    5    0    0 -0.57383059586E+02 -0.16388592894E+03 -0.24050262335E+02  0.17529925371E+03  0.00000000000E+00 0. -1.
        -11    1    5    5    0    0 -0.44295919911E+02 -0.17208641346E+03 -0.12269956695E+03  0.21594222827E+03  0.00000000000E+00 0.  1.
          1    1    6    6  503    0  0.51346490777E+03 -0.52339146817E+02  0.84237301075E+02  0.52295460672E+03  0.00000000000E+00 0. -1.
         -1    1    6    6    0  503  0.25332434803E+03 -0.13932661766E+02  0.10638606478E+03  0.27510968567E+03  0.00000000000E+00 0.  1.
<mgrwt>
<rscale>  0 0.20418440E+04</rscale>
<asrwt>0</asrwt>
<pdfrwt beam="1">  1        2 0.12151969E+00 0.20418440E+04</pdfrwt>
<pdfrwt beam="2">  1       -1 0.20300735E+00 0.20418440E+04</pdfrwt>
<totfact> 0.53117183E+00</totfact>
</mgrwt>
</event>
<event>
12    6  0.1510140E-007  0.2619351E+04  0.7818608E-02  0.8361658E-01
         -1   -1    0    0    0  501 -0.00000000000E+00  0.00000000000E+00  0.64013332707E+03  0.64013332707E+03  0.00000000000E+00 0.  1.
          2   -1    0    0  501    0  0.00000000000E+00 -0.00000000000E+00 -0.26795191234E+04  0.26795191234E+04  0.00000000000E+00 0. -1.
         24    2    1    2    0    0 -0.15605994150E+03  0.83004060945E+03 -0.18786999900E+04  0.20613914584E+04  0.80616209935E+02 0.  0.
        254    2    1    2    0    0  0.15605994150E+03 -0.83004060945E+03 -0.16068580633E+03  0.12582609922E+04  0.91873754542E+03 0.  0.
         23    2    4    4    0    0 -0.28039036126E+03 -0.34092673952E+01  0.39861892351E+02  0.29804679743E+03  0.92803799525E+02 0.  0.
         23    2    4    4    0    0  0.43645030276E+03 -0.82663134206E+03 -0.20054769868E+03  0.96021419474E+03  0.89351429081E+02 0.  0.
          4    1    3    3  502    0 -0.14538631958E+03  0.71792181383E+03 -0.15609521917E+04  0.17242739509E+04  0.00000000000E+00 0. -1.
         -3    1    3    3    0  502 -0.10673621915E+02  0.11211879562E+03 -0.31774779830E+03  0.33711750750E+03  0.00000000000E+00 0.  1.
         11    1    5    5    0    0 -0.19014499372E+03 -0.41332777381E+02  0.67293725728E+01  0.19470182736E+03  0.00000000000E+00 0. -1.
        -11    1    5    5    0    0 -0.90245367541E+02  0.37923509986E+02  0.33132519779E+02  0.10334497007E+03  0.00000000000E+00 0.  1.
          1    1    6    6  503    0  0.41288695237E+03 -0.74616058323E+03 -0.16244264223E+03  0.86811224126E+03  0.00000000000E+00 0. -1.
         -1    1    6    6    0  503  0.23563350383E+02 -0.80470758826E+02 -0.38105056450E+02  0.92101953477E+02  0.00000000000E+00 0.  1.
<mgrwt>
<rscale>  0 0.26193507E+04</rscale>
<asrwt>0</asrwt>
<pdfrwt beam="1">  1        2 0.41223370E+00 0.26193507E+04</pdfrwt>
<pdfrwt beam="2">  1       -1 0.98482052E-01 0.26193507E+04</pdfrwt>
<totfact> 0.27062021E+00</totfact>
</mgrwt>
</event>
<event>
12    6  0.1510140E-007  0.3241722E+04  0.7818608E-02  0.8177885E-01
         -1   -1    0    0    0  501 -0.00000000000E+00  0.00000000000E+00  0.13184922551E+04  0.13184922551E+04  0.00000000000E+00 0.  1.
          2   -1    0    0  501    0  0.00000000000E+00 -0.00000000000E+00 -0.19925719785E+04  0.19925719785E+04  0.00000000000E+00 0. -1.
         24    2    1    2    0    0  0.13678791752E+04 -0.53532227103E+03 -0.59737270921E+03  0.15877320431E+04  0.79846822304E+02 0.  0.
        254    2    1    2    0    0 -0.13678791752E+04  0.53532227103E+03 -0.76707014221E+02  0.17233321906E+04  0.89795684828E+03 0.  0.
         23    2    4    4    0    0 -0.68716765043E+03  0.57514861383E+03 -0.37261248378E+03  0.97482539422E+03  0.91919412347E+02 0.  0.
         23    2    4    4    0    0 -0.68071152477E+03 -0.39826342805E+02  0.29590546955E+03  0.74850679639E+03  0.88023064018E+02 0.  0.
          4    1    3    3  502    0  0.10743263581E+04 -0.45422807230E+03 -0.48168608644E+03  0.12619515646E+04  0.00000000000E+00 0. -1.
         -3    1    3    3    0  502  0.29355281707E+03 -0.81094198721E+02 -0.11568662277E+03  0.32578047849E+03  0.00000000000E+00 0.  1.
         11    1    5    5    0    0 -0.73690888954E+01  0.24018054412E+02 -0.50305505795E+01  0.25621804152E+02  0.00000000000E+00 0.  1.
        -11    1    5    5    0    0 -0.67979856154E+03  0.55113055942E+03 -0.36758193320E+03  0.94920359007E+03  0.00000000000E+00 0. -1.
          4    1    6    6  503    0 -0.17898268275E+03  0.25411630609E+02  0.93996653885E+02  0.20375456470E+03  0.00000000000E+00 0. -1.
         -4    1    6    6    0  503 -0.50172884202E+03 -0.65237973413E+02  0.20190881567E+03  0.54475223169E+03  0.00000000000E+00 0.  1.
<mgrwt>
<rscale>  0 0.32417222E+04</rscale>
<asrwt>0</asrwt>
<pdfrwt beam="1">  1        2 0.30654954E+00 0.32417222E+04</pdfrwt>
<pdfrwt beam="2">  1       -1 0.20284496E+00 0.32417222E+04</pdfrwt>
<totfact> 0.92628893E-01</totfact>
</mgrwt>
</event>
<event>
12    6  0.1510140E-007  0.1373421E+04  0.7818608E-02  0.8973286E-01
         -1   -1    0    0    0  501 -0.00000000000E+00  0.00000000000E+00  0.42174946430E+03  0.42174946430E+03  0.00000000000E+00 0.  1.
          2   -1    0    0  501    0  0.00000000000E+00 -0.00000000000E+00 -0.11181311302E+04  0.11181311302E+04  0.00000000000E+00 0. -1.
         24    2    1    2    0    0  0.15184230738E+03 -0.21173275053E+03 -0.51156611085E+03  0.58316454379E+03  0.10244098500E+03 0.  0.
        254    2    1    2    0    0 -0.15184230738E+03  0.21173275053E+03 -0.18481555504E+03  0.95671605070E+03  0.90181038380E+03 0.  0.
         23    2    4    4    0    0  0.27783158500E+03 -0.56310987127E+02  0.16134151731E+03  0.33643889902E+03  0.82454415714E+02 0.  0.
         23    2    4    4    0    0 -0.42967389238E+03  0.26804373765E+03 -0.34615707234E+03  0.62027715169E+03  0.91934362888E+02 0.  0.
          2    1    3    3  502    0  0.12344754185E+03 -0.18087331448E+03 -0.48842152759E+03  0.53526632632E+03  0.00000000000E+00 0. -1.
         -1    1    3    3    0  502  0.28394765526E+02 -0.30859436049E+02 -0.23144583265E+02  0.47898217473E+02  0.00000000000E+00 0.  1.
         11    1    5    5    0    0  0.22612560756E+03 -0.43721344389E+02  0.89631887842E+02  0.24714008511E+03  0.00000000000E+00 0.  1.
        -11    1    5    5    0    0  0.51705977436E+02 -0.12589642739E+02  0.71709629466E+02  0.89298813906E+02  0.00000000000E+00 0. -1.
          1    1    6    6  503    0 -0.15181495307E+02 -0.33772856154E+01 -0.26276050250E+02  0.30533828365E+02  0.00000000000E+00 0. -1.
         -1    1    6    6    0  503 -0.41449239708E+03  0.27142102327E+03 -0.31988102209E+03  0.58974332332E+03  0.00000000000E+00 0.  1.
<mgrwt>
<rscale>  0 0.13734208E+04</rscale>
<asrwt>0</asrwt>
<pdfrwt beam="1">  1        2 0.17202017E+00 0.13734208E+04</pdfrwt>
<pdfrwt beam="2">  1       -1 0.64884534E-01 0.13734208E+04</pdfrwt>
<totfact> 0.56872604E+01</totfact>
</mgrwt>
</event>
<event>
12    6  0.1510140E-007  0.4343952E+04  0.7818608E-02  0.7938541E-01
         -1   -1    0    0    0  501 -0.00000000000E+00  0.00000000000E+00  0.19084435159E+04  0.19084435159E+04  0.00000000000E+00 0.  1.
          2   -1    0    0  501    0  0.00000000000E+00 -0.00000000000E+00 -0.24718988311E+04  0.24718988311E+04  0.00000000000E+00 0. -1.
         24    2    1    2    0    0 -0.55893228889E+03 -0.92048574436E+03 -0.20630893530E+04  0.23284216326E+04  0.74231473135E+02 0.  0.
        254    2    1    2    0    0  0.55893228889E+03  0.92048574436E+03  0.14996340379E+04  0.20519207144E+04  0.89542004752E+03 0.  0.
         23    2    4    4    0    0  0.22445749110E+03  0.74720460545E+03  0.14653741590E+04  0.16626081790E+04  0.90822041481E+02 0.  0.
         23    2    4    4    0    0  0.33447479779E+03  0.17328113892E+03  0.34259878853E+02  0.38931253541E+03  0.92145360538E+02 0.  0.
          4    1    3    3  502    0 -0.38569647659E+03 -0.69545627408E+03 -0.15403464443E+04  0.17335190711E+04  0.00000000000E+00 0. -1.
         -3    1    3    3    0  502 -0.17323581230E+03 -0.22502947029E+03 -0.52274290865E+03  0.59490256152E+03  0.00000000000E+00 0.  1.
         11    1    5    5    0    0  0.14980723383E+03  0.42382078397E+03  0.75846583469E+03  0.88166699305E+03  0.00000000000E+00 0.  1.
        -11    1    5    5    0    0  0.74650257276E+02  0.32338382148E+03  0.70690832434E+03  0.78094118595E+03  0.00000000000E+00 0. -1.
          1    1    6    6  503    0  0.31301212231E+03  0.16965582224E+03  0.53783639047E+02  0.36007272399E+03  0.00000000000E+00 0. -1.
         -1    1    6    6    0  503  0.21462675479E+02  0.36253166750E+01 -0.19523760194E+02  0.29239811419E+02  0.00000000000E+00 0.  1.
<mgrwt>
<rscale>  0 0.43439518E+04</rscale>
<asrwt>0</asrwt>
<pdfrwt beam="1">  1        2 0.38029213E+00 0.43439518E+04</pdfrwt>
<pdfrwt beam="2">  1       -1 0.29360669E+00 0.43439518E+04</pdfrwt>
<totfact> 0.11455360E-01</totfact>
</mgrwt>
</event>
<event>
12    6  0.1510140E-007  0.1712968E+04  0.7818608E-02  0.8754002E-01
          2   -1    0    0  501    0  0.00000000000E+00  0.00000000000E+00  0.42519860903E+03  0.42519860903E+03  0.00000000000E+00 0. -1.
         -1   -1    0    0    0  501 -0.00000000000E+00 -0.00000000000E+00 -0.17252296075E+04  0.17252296075E+04  0.00000000000E+00 0.  1.
         24    2    1    2    0    0 -0.54917785252E+01 -0.59143024458E+03 -0.66074177747E+03  0.89025289866E+03  0.78425973013E+02 0.  0.
        254    2    1    2    0    0  0.54917785252E+01  0.59143024458E+03 -0.63928922103E+03  0.12601753179E+04  0.91078605055E+03 0.  0.
         23    2    4    4    0    0  0.25684659454E+03 -0.13634063446E+03 -0.12164706208E+03  0.32817907025E+03  0.91348523283E+02 0.  0.
         23    2    4    4    0    0 -0.25135481602E+03  0.72777087904E+03 -0.51764215895E+03  0.93199624764E+03  0.88509349643E+02 0.  0.
          4    1    3    3  502    0  0.24860960909E+02 -0.30494849394E+03 -0.29883563990E+03  0.42768492025E+03  0.00000000000E+00 0. -1.
         -3    1    3    3    0  502 -0.30352739435E+02 -0.28648175064E+03 -0.36190613757E+03  0.46256797841E+03  0.00000000000E+00 0.  1.
         11    1    5    5    0    0  0.98160640430E+02 -0.41233995281E+01 -0.38406785315E+02  0.10548741589E+03  0.00000000000E+00 0.  1.
        -11    1    5    5    0    0  0.15868595411E+03 -0.13221723494E+03 -0.83240276763E+02  0.22269165436E+03  0.00000000000E+00 0. -1.
          1    1    6    6  503    0 -0.11264486633E+03  0.41413975997E+03 -0.24747012647E+03  0.49542110390E+03  0.00000000000E+00 0. -1.
         -1    1    6    6    0  503 -0.13870994969E+03  0.31363111908E+03 -0.27017203248E+03  0.43657514374E+03  0.00000000000E+00 0.  1.
<mgrwt>
<rscale>  0 0.17129685E+04</rscale>
<asrwt>0</asrwt>
<pdfrwt beam="1">  1        2 0.65415171E-01 0.17129685E+04</pdfrwt>
<pdfrwt beam="2">  1       -1 0.26541994E+00 0.17129685E+04</pdfrwt>
<totfact> 0.44644731E+00</totfact>
</mgrwt>
</event>
<event>
12    6  0.1510140E-007  0.1804060E+04  0.7818608E-02  0.8704144E-01
          2   -1    0    0  501    0  0.00000000000E+00  0.00000000000E+00  0.19240003230E+04  0.19240003230E+04  0.00000000000E+00 0. -1.
         -1   -1    0    0    0  501 -0.00000000000E+00 -0.00000000000E+00 -0.42289904611E+03  0.42289904611E+03  0.00000000000E+00 0.  1.
         24    2    1    2    0    0  0.73966309406E+02 -0.51782657304E+03  0.11171394244E+04  0.12360370330E+04  0.78560032367E+02 0.  0.
        254    2    1    2    0    0 -0.73966309406E+02  0.51782657304E+03  0.38396185244E+03  0.11108623361E+04  0.90165018213E+03 0.  0.
         23    2    4    4    0    0 -0.40865306272E+02 -0.23585697476E+03 -0.64650952703E+01  0.25644501447E+03  0.91781055725E+02 0.  0.
         23    2    4    4    0    0 -0.33101003133E+02  0.75368354780E+03  0.39042694771E+03  0.85441732161E+03  0.91984734227E+02 0.  0.
          2    1    3    3  502    0  0.61868707442E+02 -0.45547944228E+03  0.91197798017E+03  0.10212703343E+04  0.00000000000E+00 0. -1.
         -1    1    3    3    0  502  0.12097601964E+02 -0.62347130756E+02  0.20516144422E+03  0.21476669873E+03  0.00000000000E+00 0.  1.
         11    1    5    5    0    0  0.21381696809E+02 -0.15583597465E+02  0.62720766022E+01  0.27191256192E+02  0.00000000000E+00 0. -1.
        -11    1    5    5    0    0 -0.62247003081E+02 -0.22027337730E+03 -0.12737171872E+02  0.22925375828E+03  0.00000000000E+00 0.  1.
          3    1    6    6  503    0  0.17228486365E+02  0.11781164114E+03  0.90534692757E+02  0.14957584739E+03  0.00000000000E+00 0. -1.
         -3    1    6    6    0  503 -0.50329489498E+02  0.63587190666E+03  0.29989225496E+03  0.70484147422E+03  0.00000000000E+00 0.  1.
<mgrwt>
<rscale>  0 0.18040598E+04</rscale>
<asrwt>0</asrwt>
<pdfrwt beam="1">  1        2 0.29600004E+00 0.18040598E+04</pdfrwt>
<pdfrwt beam="2">  1       -1 0.65061393E-01 0.18040598E+04</pdfrwt>
<totfact> 0.18956725E+01</totfact>
</mgrwt>
</event>
<event>
12    6  0.1510140E-007  0.1435284E+04  0.7818608E-02  0.8928667E-01
         -1   -1    0    0    0  501 -0.00000000000E+00  0.00000000000E+00  0.24655021288E+03  0.24655021288E+03  0.00000000000E+00 0.  1.
          2   -1    0    0  501    0  0.00000000000E+00 -0.00000000000E+00 -0.20888637111E+04  0.20888637111E+04  0.00000000000E+00 0. -1.
         24    2    1    2    0    0  0.85424572221E+02  0.42108066313E+03 -0.56826928254E+03  0.71682901092E+03  0.79420217965E+02 0.  0.
        254    2    1    2    0    0 -0.85424572221E+02 -0.42108066313E+03 -0.12740442156E+04  0.16185849130E+04  0.90112273017E+03 0.  0.
         23    2    4    4    0    0  0.32105575564E+03 -0.44780062951E+03 -0.55578826351E+03  0.78792913049E+03  0.91266197505E+02 0.  0.
         23    2    4    4    0    0 -0.40648032786E+03  0.26719966378E+02 -0.71825595213E+03  0.83065578252E+03  0.90317233791E+02 0.  0.
          4    1    3    3  502    0  0.61832710745E+01  0.21439340755E+03 -0.30506130142E+03  0.37291441869E+03  0.00000000000E+00 0. -1.
         -3    1    3    3    0  502  0.79241301146E+02  0.20668725558E+03 -0.26320798112E+03  0.34391459223E+03  0.00000000000E+00 0.  1.
         11    1    5    5    0    0  0.21567761146E+03 -0.28239245805E+03 -0.41592529461E+03  0.54704312732E+03  0.00000000000E+00 0.  1.
        -11    1    5    5    0    0  0.10537814418E+03 -0.16540817146E+03 -0.13986296889E+03  0.24088600317E+03  0.00000000000E+00 0. -1.
          2    1    6    6  503    0 -0.27191170490E+02 -0.29523197690E+00 -0.11010063582E+03  0.11340898079E+03  0.00000000000E+00 0. -1.
         -2    1    6    6    0  503 -0.37928915737E+03  0.27015198355E+02 -0.60815531631E+03  0.71724680173E+03  0.00000000000E+00 0.  1.
<mgrwt>
<rscale>  0 0.14352837E+04</rscale>
<asrwt>0</asrwt>
<pdfrwt beam="1">  1        2 0.32136365E+00 0.14352837E+04</pdfrwt>
<pdfrwt beam="2">  1       -1 0.37930802E-01 0.14352837E+04</pdfrwt>
<totfact> 0.44272501E+01</totfact>
</mgrwt>
</event>
<event>
12    6  0.1510140E-007  0.1638851E+04  0.7818608E-02  0.8797030E-01
          2   -1    0    0  501    0  0.00000000000E+00  0.00000000000E+00  0.12741836532E+04  0.12741836532E+04  0.00000000000E+00 0. -1.
         -3   -1    0    0    0  501 -0.00000000000E+00 -0.00000000000E+00 -0.52697107485E+03  0.52697107485E+03  0.00000000000E+00 0.  1.
         24    2    1    2    0    0  0.36794233134E+03  0.34010626628E+03 -0.30279580152E+02  0.50827142984E+03  0.79807028917E+02 0.  0.
        254    2    1    2    0    0 -0.36794233134E+03 -0.34010626628E+03  0.77749215852E+03  0.12928832982E+04  0.90332681502E+03 0.  0.
         23    2    4    4    0    0 -0.43782451001E+03 -0.29452377591E+03  0.94326114604E+03  0.10847156931E+04  0.91825862601E+02 0.  0.
         23    2    4    4    0    0  0.69882178667E+02 -0.45582490364E+02 -0.16576898752E+03  0.20816760515E+03  0.94303299461E+02 0.  0.
          2    1    3    3  502    0  0.86030367483E+02  0.38953620154E+02  0.23689907614E+01  0.94468093924E+02  0.00000000000E+00 0. -1.
         -1    1    3    3    0  502  0.28191196386E+03  0.30115264612E+03 -0.32648570914E+02  0.41380333592E+03  0.00000000000E+00 0.  1.
         11    1    5    5    0    0 -0.15393025343E+03 -0.15680647288E+03  0.36855778888E+03  0.42908931075E+03  0.00000000000E+00 0. -1.
        -11    1    5    5    0    0 -0.28389425658E+03 -0.13771730304E+03  0.57470335716E+03  0.65562638233E+03  0.00000000000E+00 0.  1.
          3    1    6    6  503    0  0.97874814520E+01  0.26390917235E+02 -0.18842428261E+02  0.33872000361E+02  0.00000000000E+00 0. -1.
         -3    1    6    6    0  503  0.60094697215E+02 -0.71973407599E+02 -0.14692655926E+03  0.17429560479E+03  0.00000000000E+00 0.  1.
<mgrwt>
<rscale>  0 0.16388507E+04</rscale>
<asrwt>0</asrwt>
<pdfrwt beam="1">  1        2 0.19602825E+00 0.16388507E+04</pdfrwt>
<pdfrwt beam="2">  1       -3 0.81072474E-01 0.16388507E+04</pdfrwt>
<totfact> 0.14703837E+01</totfact>
</mgrwt>
</event>
<event>
12    6  0.1510140E-007  0.4219806E+04  0.7818608E-02  0.7961615E-01
          2   -1    0    0  501    0  0.00000000000E+00  0.00000000000E+00  0.36792624265E+04  0.36792624265E+04  0.00000000000E+00 0. -1.
         -1   -1    0    0    0  501 -0.00000000000E+00 -0.00000000000E+00 -0.12099410090E+04  0.12099410090E+04  0.00000000000E+00 0.  1.
         24    2    1    2    0    0  0.14676062831E+04 -0.11010722498E+04  0.23228090034E+03  0.18511019460E+04  0.79973098615E+02 0.  0.
        254    2    1    2    0    0 -0.14676062831E+04  0.11010722498E+04  0.22370405172E+04  0.30381014895E+04  0.92708256568E+03 0.  0.
         23    2    4    4    0    0 -0.27502735675E+03 -0.14227807869E+03  0.26608504149E+03  0.41867230859E+03  0.92747798018E+02 0.  0.
         23    2    4    4    0    0 -0.11925789263E+04  0.12433503285E+04  0.19709554757E+04  0.26194291809E+04  0.92624034456E+02 0.  0.
          4    1    3    3  502    0  0.76991742937E+03 -0.57551003618E+03  0.81461899992E+02  0.96468683568E+03  0.00000000000E+00 0. -1.
         -3    1    3    3    0  502  0.69768885372E+03 -0.52556221362E+03  0.15081900035E+03  0.88641511035E+03  0.00000000000E+00 0.  1.
         11    1    5    5    0    0 -0.22788722553E+03 -0.14612815256E+03  0.25061616106E+03  0.36890985988E+03  0.00000000000E+00 0. -1.
        -11    1    5    5    0    0 -0.47140131219E+02  0.38500738621E+01  0.15468880427E+02  0.49762448711E+02  0.00000000000E+00 0.  1.
          2    1    6    6  503    0 -0.93616321182E+03  0.10284034741E+04  0.15961204501E+04  0.21169827009E+04  0.00000000000E+00 0. -1.
         -2    1    6    6    0  503 -0.25641571452E+03  0.21494685442E+03  0.37483502564E+03  0.50244648006E+03  0.00000000000E+00 0.  1.
<mgrwt>
<rscale>  0 0.42198059E+04</rscale>
<asrwt>0</asrwt>
<pdfrwt beam="1">  1        2 0.56604037E+00 0.42198059E+04</pdfrwt>
<pdfrwt beam="2">  1       -1 0.18614477E+00 0.42198059E+04</pdfrwt>
<totfact> 0.99775330E-02</totfact>
</mgrwt>
</event>
<event>
12    6  0.1510140E-007  0.1785912E+04  0.7818608E-02  0.8713827E-01
         -1   -1    0    0    0  501 -0.00000000000E+00  0.00000000000E+00  0.13003981132E+04  0.13003981132E+04  0.00000000000E+00 0.  1.
          2   -1    0    0  501    0  0.00000000000E+00 -0.00000000000E+00 -0.61317435062E+03  0.61317435062E+03  0.00000000000E+00 0. -1.
         24    2    1    2    0    0  0.13214115871E+03  0.39793914777E+03  0.69088077562E+03  0.81205480356E+03  0.79371951595E+02 0.  0.
        254    2    1    2    0    0 -0.13214115871E+03 -0.39793914777E+03 -0.36570130486E+01  0.11015176603E+04  0.10185828052E+04 0.  0.
         23    2    4    4    0    0 -0.50070287960E+03  0.52951538471E+02 -0.20315371450E+02  0.51145217270E+03  0.87540685228E+02 0.  0.
         23    2    4    4    0    0  0.36856172089E+03 -0.45089068624E+03  0.16658358401E+02  0.59006548757E+03  0.93592871935E+02 0.  0.
          4    1    3    3  502    0  0.38062184784E+02  0.12885802630E+03  0.15542521941E+03  0.20545101529E+03  0.00000000000E+00 0. -1.
         -3    1    3    3    0  502  0.94078973928E+02  0.26908112146E+03  0.53545555621E+03  0.60660378827E+03  0.00000000000E+00 0.  1.
         11    1    5    5    0    0 -0.30694331664E+03  0.41493820194E+02  0.29285667450E+02  0.31111667757E+03  0.00000000000E+00 0.  1.
        -11    1    5    5    0    0 -0.19375956296E+03  0.11457718277E+02 -0.49601038900E+02  0.20033549512E+03  0.00000000000E+00 0. -1.
          2    1    6    6  503    0  0.24588746405E+02 -0.19301131013E+02 -0.19743655665E+02  0.36972314604E+02  0.00000000000E+00 0.  1.
         -2    1    6    6    0  503  0.34397297449E+03 -0.43158955522E+03  0.36402014066E+02  0.55309317297E+03  0.00000000000E+00 0. -1.
<mgrwt>
<rscale>  0 0.17859124E+04</rscale>
<asrwt>0</asrwt>
<pdfrwt beam="1">  1        2 0.94334516E-01 0.17859124E+04</pdfrwt>
<pdfrwt beam="2">  1       -1 0.20006125E+00 0.17859124E+04</pdfrwt>
<totfact> 0.78392744E+00</totfact>
</mgrwt>
</event>
<event>
12    6  0.1510140E-007  0.1119123E+04  0.7818608E-02  0.9186751E-01
          2   -1    0    0  501    0  0.00000000000E+00  0.00000000000E+00  0.11262542078E+04  0.11262542078E+04  0.00000000000E+00 0. -1.
         -1   -1    0    0    0  501 -0.00000000000E+00 -0.00000000000E+00 -0.27800928106E+03  0.27800928106E+03  0.00000000000E+00 0.  1.
         24    2    1    2    0    0 -0.10200919177E+03 -0.14912510187E+03  0.15424913885E+03  0.25046184083E+03  0.79335777952E+02 0.  0.
        254    2    1    2    0    0  0.10200919177E+03  0.14912510187E+03  0.69399578785E+03  0.11538016480E+04  0.90387162701E+03 0.  0.
         23    2    4    4    0    0  0.37349295276E+03  0.38151399082E+03  0.32237021009E+03  0.63024583537E+03  0.90759846266E+02 0.  0.
         23    2    4    4    0    0 -0.27148376099E+03 -0.23238888895E+03  0.37162557776E+03  0.52355581262E+03  0.91088367469E+02 0.  0.
          2    1    3    3  502    0 -0.10345543283E+03 -0.15235514401E+03  0.15983514071E+03  0.24384911051E+03  0.00000000000E+00 0. -1.
         -1    1    3    3    0  502  0.14462410595E+01  0.32300421449E+01 -0.55860018643E+01  0.66127303203E+01  0.00000000000E+00 0.  1.
         11    1    5    5    0    0  0.32190371072E+03  0.36214097689E+03  0.27236778805E+03  0.55583477589E+03  0.00000000000E+00 0.  1.
        -11    1    5    5    0    0  0.51589242046E+02  0.19373013922E+02  0.50002422036E+02  0.74411059479E+02  0.00000000000E+00 0. -1.
          3    1    6    6  503    0 -0.46577587595E+02 -0.23633225640E+02  0.10404176231E+03  0.11641601834E+03  0.00000000000E+00 0. -1.
         -3    1    6    6    0  503 -0.22490617339E+03 -0.20875566331E+03  0.26758381545E+03  0.40713979428E+03  0.00000000000E+00 0.  1.
<mgrwt>
<rscale>  0 0.11191231E+04</rscale>
<asrwt>0</asrwt>
<pdfrwt beam="1">  1        2 0.17326988E+00 0.11191231E+04</pdfrwt>
<pdfrwt beam="2">  1       -1 0.42770659E-01 0.11191231E+04</pdfrwt>
<totfact> 0.12768463E+02</totfact>
</mgrwt>
</event>
<event>
12    6  0.1510140E-007  0.1551862E+04  0.7818608E-02  0.8850679E-01
         -1   -1    0    0    0  501 -0.00000000000E+00  0.00000000000E+00  0.66174840745E+03  0.66174840745E+03  0.00000000000E+00 0.  1.
          2   -1    0    0  501    0  0.00000000000E+00 -0.00000000000E+00 -0.90981564655E+03  0.90981564655E+03  0.00000000000E+00 0. -1.
         24    2    1    2    0    0  0.22227450957E+03 -0.15842481290E+03 -0.52402372506E+03  0.59617194525E+03  0.79471661166E+02 0.  0.
        254    2    1    2    0    0 -0.22227450957E+03  0.15842481290E+03  0.27595648596E+03  0.97539210876E+03  0.89483708279E+03 0.  0.
         23    2    4    4    0    0 -0.62287612873E+02  0.70360363590E+02 -0.32001820028E+03  0.34563750370E+03  0.90682456806E+02 0.  0.
         23    2    4    4    0    0 -0.15998689670E+03  0.88064449310E+02  0.59597468623E+03  0.62975460506E+03  0.89743421032E+02 0.  0.
          2    1    3    3  502    0  0.14864018182E+03 -0.64485020336E+02 -0.25891734913E+03  0.30543479694E+03  0.00000000000E+00 0. -1.
         -1    1    3    3    0  502  0.73634327753E+02 -0.93939792564E+02 -0.26510637592E+03  0.29073714831E+03  0.00000000000E+00 0.  1.
         11    1    5    5    0    0  0.19408728237E+02 -0.42696345757E+01 -0.44930213418E+02  0.49128938407E+02  0.00000000000E+00 0.  1.
        -11    1    5    5    0    0 -0.81696341110E+02  0.74629998166E+02 -0.27508798686E+03  0.29650856529E+03  0.00000000000E+00 0. -1.
          2    1    6    6  503    0 -0.14234627407E+03  0.10012729196E+03  0.45460649778E+03  0.48678024216E+03  0.00000000000E+00 0. -1.
         -2    1    6    6    0  503 -0.17640622626E+02 -0.12062842651E+02  0.14136818845E+03  0.14297436290E+03  0.00000000000E+00 0.  1.
<mgrwt>
<rscale>  0 0.15518622E+04</rscale>
<asrwt>0</asrwt>
<pdfrwt beam="1">  1        2 0.13997164E+00 0.15518622E+04</pdfrwt>
<pdfrwt beam="2">  1       -1 0.10180745E+00 0.15518622E+04</pdfrwt>
<totfact> 0.29018328E+01</totfact>
</mgrwt>
</event>
<event>
12    6  0.1510140E-007  0.1286584E+04  0.7818608E-02  0.9040272E-01
         -1   -1    0    0    0  501 -0.00000000000E+00  0.00000000000E+00  0.18444119329E+03  0.18444119329E+03  0.00000000000E+00 0.  1.
          2   -1    0    0  501    0  0.00000000000E+00 -0.00000000000E+00 -0.22436684792E+04  0.22436684792E+04  0.00000000000E+00 0. -1.
         24    2    1    2    0    0  0.23306396768E+03  0.42743507231E+02 -0.12369235096E+03  0.27904113959E+03  0.80114539630E+02 0.  0.
        254    2    1    2    0    0 -0.23306396768E+03 -0.42743507231E+02 -0.19355349350E+04  0.21490685329E+04  0.90335721297E+03 0.  0.
         23    2    4    4    0    0  0.11609702775E+03 -0.27966378974E+03 -0.23354467425E+03  0.39311438132E+03  0.91134224007E+02 0.  0.
         23    2    4    4    0    0 -0.34916099543E+03  0.23692028250E+03 -0.17019902607E+04  0.17559541516E+04  0.92517641239E+02 0.  0.
          2    1    3    3  502    0  0.12947863266E+03  0.43809979743E+02 -0.10813083273E+03  0.17428800196E+03  0.00000000000E+00 0. -1.
         -1    1    3    3    0  502  0.10358533502E+03 -0.10664725120E+01 -0.15561518232E+02  0.10475313764E+03  0.00000000000E+00 0.  1.
         11    1    5    5    0    0  0.44762276408E+02 -0.38885754954E+02 -0.17433267192E+02  0.61803577021E+02  0.00000000000E+00 0. -1.
        -11    1    5    5    0    0  0.71334751344E+02 -0.24077803478E+03 -0.21611140706E+03  0.33131080430E+03  0.00000000000E+00 0.  1.
          1    1    6    6  503    0 -0.93331460168E+02  0.17823347748E+02 -0.35677643268E+03  0.36921248097E+03  0.00000000000E+00 0. -1.
         -1    1    6    6    0  503 -0.25582953526E+03  0.21909693476E+03 -0.13452138280E+04  0.13867416706E+04  0.00000000000E+00 0.  1.
<mgrwt>
<rscale>  0 0.12865845E+04</rscale>
<asrwt>0</asrwt>
<pdfrwt beam="1">  1        2 0.34517978E+00 0.12865845E+04</pdfrwt>
<pdfrwt beam="2">  1       -1 0.28375567E-01 0.12865845E+04</pdfrwt>
<totfact> 0.61489465E+01</totfact>
</mgrwt>
</event>
<event>
12    6  0.1510140E-007  0.2949887E+04  0.7818608E-02  0.8258187E-01
         -1   -1    0    0    0  501 -0.00000000000E+00  0.00000000000E+00  0.98262779374E+03  0.98262779374E+03  0.00000000000E+00 0.  1.
          2   -1    0    0  501    0  0.00000000000E+00 -0.00000000000E+00 -0.22139193482E+04  0.22139193482E+04  0.00000000000E+00 0. -1.
         24    2    1    2    0    0  0.70426101291E+02 -0.75361738603E+03 -0.17529268210E+04  0.19110571548E+04  0.80548177518E+02 0.  0.
        254    2    1    2    0    0 -0.70426101291E+02  0.75361738603E+03  0.52163526653E+03  0.12854899871E+04  0.89860010878E+03 0.  0.
         23    2    4    4    0    0  0.49673037376E+02  0.93168905973E+03  0.37088755387E+03  0.10080365659E+04  0.89823303528E+02 0.  0.
         23    2    4    4    0    0 -0.12009913867E+03 -0.17807167370E+03  0.15074771265E+03  0.27745342127E+03  0.90123271242E+02 0.  0.
          4    1    3    3  502    0  0.57540990390E+02 -0.47617047492E+03 -0.11996468301E+04  0.12919759300E+04  0.00000000000E+00 0. -1.
         -3    1    3    3    0  502  0.12885110900E+02 -0.27744691111E+03 -0.55327999089E+03  0.61908122479E+03  0.00000000000E+00 0.  1.
         11    1    5    5    0    0  0.59385673473E+02  0.83407188703E+03  0.30597895498E+03  0.89040759871E+03  0.00000000000E+00 0. -1.
        -11    1    5    5    0    0 -0.97126360973E+01  0.97617172701E+02  0.64908598893E+02  0.11762896717E+03  0.00000000000E+00 0.  1.
          1    1    6    6  503    0 -0.95176368516E+02 -0.66735200225E+02  0.96709339838E+02  0.15121119167E+03  0.00000000000E+00 0. -1.
         -1    1    6    6    0  503 -0.24922770150E+02 -0.11133647348E+03  0.54038372815E+02  0.12624222960E+03  0.00000000000E+00 0.  1.
<mgrwt>
<rscale>  0 0.29498872E+04</rscale>
<asrwt>0</asrwt>
<pdfrwt beam="1">  1        2 0.34060297E+00 0.29498872E+04</pdfrwt>
<pdfrwt beam="2">  1       -1 0.15117351E+00 0.29498872E+04</pdfrwt>
<totfact> 0.16932262E+00</totfact>
</mgrwt>
</event>
<event>
12    6  0.1510140E-007  0.1297563E+04  0.7818608E-02  0.9031500E-01
          2   -1    0    0  501    0  0.00000000000E+00  0.00000000000E+00  0.12993029617E+04  0.12993029617E+04  0.00000000000E+00 0. -1.
         -1   -1    0    0    0  501 -0.00000000000E+00 -0.00000000000E+00 -0.32395627846E+03  0.32395627846E+03  0.00000000000E+00 0.  1.
         24    2    1    2    0    0  0.16356597922E+03 -0.10903126676E+03  0.56630037616E+03  0.60478918330E+03  0.80200957013E+02 0.  0.
        254    2    1    2    0    0 -0.16356597922E+03  0.10903126676E+03  0.40904630707E+03  0.10184700569E+04  0.91176791384E+03 0.  0.
         23    2    4    4    0    0 -0.58073766086E+02 -0.37694640332E+03  0.31618722736E+03  0.50445462784E+03  0.95073421751E+02 0.  0.
         23    2    4    4    0    0 -0.10549221313E+03  0.48597767007E+03  0.92859079712E+02  0.51401542902E+03  0.91028290880E+02 0.  0.
          2    1    3    3  502    0  0.14678844465E+03 -0.11954383814E+03  0.53730361411E+03  0.56967776019E+03  0.00000000000E+00 0. -1.
         -1    1    3    3    0  502  0.16777534568E+02  0.10512571381E+02  0.28996762053E+02  0.35111423110E+02  0.00000000000E+00 0.  1.
         11    1    5    5    0    0 -0.51392934477E+02 -0.37612985747E+03  0.32018879994E+03  0.49662437616E+03  0.00000000000E+00 0. -1.
        -11    1    5    5    0    0 -0.66808316096E+01 -0.81654585236E+00 -0.40015725872E+01  0.78302516751E+01  0.00000000000E+00 0.  1.
          2    1    6    6  503    0 -0.10907374633E+03  0.48354717167E+03  0.82140600541E+02  0.50245599571E+03  0.00000000000E+00 0. -1.
         -2    1    6    6    0  503  0.35815331989E+01  0.24304983997E+01  0.10718479171E+02  0.11559433302E+02  0.00000000000E+00 0.  1.
<mgrwt>
<rscale>  0 0.12975629E+04</rscale>
<asrwt>0</asrwt>
<pdfrwt beam="1">  1        2 0.19989276E+00 0.12975629E+04</pdfrwt>
<pdfrwt beam="2">  1       -1 0.49839428E-01 0.12975629E+04</pdfrwt>
<totfact> 0.74655574E+01</totfact>
</mgrwt>
</event>
<event>
12    6  0.1510140E-007  0.1221463E+04  0.7818608E-02  0.9094275E-01
         -1   -1    0    0    0  501 -0.00000000000E+00  0.00000000000E+00  0.68494546677E+03  0.68494546677E+03  0.00000000000E+00 0.  1.
          2   -1    0    0  501    0  0.00000000000E+00 -0.00000000000E+00 -0.54455869269E+03  0.54455869269E+03  0.00000000000E+00 0. -1.
         24    2    1    2    0    0 -0.18041847525E+03  0.21260471831E+03 -0.23352367666E+02  0.29108664128E+03  0.80215380050E+02 0.  0.
        254    2    1    2    0    0  0.18041847525E+03 -0.21260471831E+03  0.16373914175E+03  0.93841751818E+03  0.88094570742E+03 0.  0.
         23    2    4    4    0    0 -0.57194191897E+01 -0.41501584418E+03  0.38586520005E+03  0.57469509688E+03  0.95454906048E+02 0.  0.
         23    2    4    4    0    0  0.18613789444E+03  0.20241112587E+03 -0.22212605831E+03  0.36372242130E+03  0.85652988021E+02 0.  0.
          2    1    3    3  502    0 -0.32578378523E+02  0.33859525193E+02 -0.35371754717E+02  0.58813087194E+02  0.00000000000E+00 0. -1.
         -1    1    3    3    0  502 -0.14784009673E+03  0.17874519312E+03  0.12019387050E+02  0.23227355409E+03  0.00000000000E+00 0.  1.
         11    1    5    5    0    0 -0.10027799622E+02  0.72070610007E+00  0.10847330951E+02  0.14789887468E+02  0.00000000000E+00 0.  1.
        -11    1    5    5    0    0  0.43083804320E+01 -0.41573655028E+03  0.37501786910E+03  0.55990520941E+03  0.00000000000E+00 0. -1.
          1    1    6    6  503    0  0.17641366669E+03  0.21099018375E+03 -0.21309893606E+03  0.34792211195E+03  0.00000000000E+00 0. -1.
         -1    1    6    6    0  503  0.97242277557E+01 -0.85790578834E+01 -0.90271222417E+01  0.15800309351E+02  0.00000000000E+00 0.  1.
<mgrwt>
<rscale>  0 0.12214631E+04</rscale>
<asrwt>0</asrwt>
<pdfrwt beam="1">  1        2 0.83778260E-01 0.12214631E+04</pdfrwt>
<pdfrwt beam="2">  1       -1 0.10537623E+00 0.12214631E+04</pdfrwt>
<totfact> 0.53008030E+01</totfact>
</mgrwt>
</event>
<event>
12    6  0.1510140E-007  0.1483344E+04  0.7818608E-02  0.8895605E-01
          2   -1    0    0  501    0  0.00000000000E+00  0.00000000000E+00  0.18590502198E+04  0.18590502198E+04  0.00000000000E+00 0. -1.
         -1   -1    0    0    0  501 -0.00000000000E+00 -0.00000000000E+00 -0.29589157674E+03  0.29589157674E+03  0.00000000000E+00 0.  1.
         24    2    1    2    0    0  0.65414100610E+02 -0.25679881123E+00  0.12568871508E+04  0.12610813972E+04  0.79258500008E+02 0.  0.
        254    2    1    2    0    0 -0.65414100610E+02  0.25679881123E+00  0.30627149220E+03  0.89386039937E+03  0.83720076213E+03 0.  0.
         23    2    4    4    0    0  0.28178821490E+03  0.21573695321E+03 -0.13915257826E+02  0.36699052805E+03  0.92419598817E+02 0.  0.
         23    2    4    4    0    0 -0.34720231551E+03 -0.21548015440E+03  0.32018675003E+03  0.52686987132E+03  0.89950884230E+02 0.  0.
          2    1    3    3  502    0  0.42857993364E+02  0.20548704822E+02  0.11102965568E+04  0.11113134125E+04  0.00000000000E+00 0. -1.
         -1    1    3    3    0  502  0.22556107246E+02 -0.20805503633E+02  0.14659059406E+03  0.14976798464E+03  0.00000000000E+00 0.  1.
         11    1    5    5    0    0  0.21301355974E+03  0.13276862406E+03  0.25381296147E+02  0.25228256849E+03  0.00000000000E+00 0. -1.
        -11    1    5    5    0    0  0.68774655156E+02  0.82968329147E+02 -0.39296553973E+02  0.11470795956E+03  0.00000000000E+00 0.  1.
          1    1    6    6  503    0 -0.15080041499E+03 -0.44107546286E+02  0.13465544188E+03  0.20692590178E+03  0.00000000000E+00 0. -1.
         -1    1    6    6    0  503 -0.19640190052E+03 -0.17137260811E+03  0.18553130815E+03  0.31994396953E+03  0.00000000000E+00 0.  1.
<mgrwt>
<rscale>  0 0.14833439E+04</rscale>
<asrwt>0</asrwt>
<pdfrwt beam="1">  1        2 0.28600772E+00 0.14833439E+04</pdfrwt>
<pdfrwt beam="2">  1       -1 0.45521782E-01 0.14833439E+04</pdfrwt>
<totfact> 0.42267096E+01</totfact>
</mgrwt>
</event>
<event>
12    6  0.1510140E-007  0.1490050E+04  0.7818608E-02  0.8891097E-01
          2   -1    0    0  501    0  0.00000000000E+00  0.00000000000E+00  0.18227796726E+04  0.18227796726E+04  0.00000000000E+00 0. -1.
         -1   -1    0    0    0  501 -0.00000000000E+00 -0.00000000000E+00 -0.30451398647E+03  0.30451398647E+03  0.00000000000E+00 0.  1.
         24    2    1    2    0    0 -0.25779740827E+03 -0.79809264495E+02 -0.55270919208E+02  0.28770697507E+03  0.83014496212E+02 0.  0.
        254    2    1    2    0    0  0.25779740827E+03  0.79809264495E+02  0.15735366054E+04  0.18395866840E+04  0.91391066153E+03 0.  0.
         23    2    4    4    0    0  0.32060951123E+03  0.44197567364E+03  0.73064774940E+03  0.91590226490E+03  0.83053418716E+02 0.  0.
         23    2    4    4    0    0 -0.62812102965E+02 -0.36216640914E+03  0.84288885596E+03  0.92368441914E+03  0.87300712823E+02 0.  0.
          4    1    3    3  502    0  0.55251823714E+01  0.63492975722E+00  0.29307363608E+01  0.62864927941E+01  0.00000000000E+00 0. -1.
         -3    1    3    3    0  502 -0.26332259064E+03 -0.80444194253E+02 -0.58201655569E+02  0.28142048227E+03  0.00000000000E+00 0.  1.
         11    1    5    5    0    0  0.77588292493E+02  0.78647508568E+02  0.19921399908E+03  0.22779725890E+03  0.00000000000E+00 0.  1.
        -11    1    5    5    0    0  0.24302121874E+03  0.36332816507E+03  0.53143375033E+03  0.68810500600E+03  0.00000000000E+00 0. -1.
          4    1    6    6  503    0 -0.28522149455E+02 -0.32223353732E+03  0.75249561729E+03  0.81908340212E+03  0.00000000000E+00 0. -1.
         -4    1    6    6    0  503 -0.34289953511E+02 -0.39932871826E+02  0.90393238673E+02  0.10460101702E+03  0.00000000000E+00 0.  1.
<mgrwt>
<rscale>  0 0.14900495E+04</rscale>
<asrwt>0</asrwt>
<pdfrwt beam="1">  1        2 0.28042763E+00 0.14900495E+04</pdfrwt>
<pdfrwt beam="2">  1       -1 0.46848307E-01 0.14900495E+04</pdfrwt>
<totfact> 0.41923750E+01</totfact>
</mgrwt>
</event>
<event>
12    6  0.1510140E-007  0.1711248E+04  0.7818608E-02  0.8754975E-01
          2   -1    0    0  501    0  0.00000000000E+00  0.00000000000E+00  0.13488588293E+04  0.13488588293E+04  0.00000000000E+00 0. -1.
         -1   -1    0    0    0  501 -0.00000000000E+00 -0.00000000000E+00 -0.54274965816E+03  0.54274965816E+03  0.00000000000E+00 0.  1.
         24    2    1    2    0    0 -0.34230745682E+03  0.60338365346E+02 -0.26918316913E+03  0.44677432398E+03  0.79577664540E+02 0.  0.
        254    2    1    2    0    0  0.34230745682E+03 -0.60338365346E+02  0.10752923403E+04  0.14448341635E+04  0.90026497742E+03 0.  0.
         23    2    4    4    0    0  0.30264158659E+02 -0.10038553919E+03  0.11078288665E+04  0.11166086631E+04  0.92395526221E+02 0.  0.
         23    2    4    4    0    0  0.31204329816E+03  0.40047173846E+02 -0.32536526272E+02  0.32822550034E+03  0.87741423933E+02 0.  0.
          2    1    3    3  502    0 -0.26866134780E+02 -0.15341579637E+02 -0.34817465834E+02  0.46576916932E+02  0.00000000000E+00 0. -1.
         -1    1    3    3    0  502 -0.31544132204E+03  0.75679944983E+02 -0.23436570330E+03  0.40019740704E+03  0.00000000000E+00 0.  1.
         11    1    5    5    0    0 -0.27301183510E+01  0.92283238546E+01  0.35464098253E+03  0.35477153493E+03  0.00000000000E+00 0. -1.
        -11    1    5    5    0    0  0.32994277010E+02 -0.10961386305E+03  0.75318788400E+03  0.76183712820E+03  0.00000000000E+00 0.  1.
          4    1    6    6  503    0  0.17508711382E+03 -0.16097406940E+02  0.35930604508E+01  0.17586225866E+03  0.00000000000E+00 0. -1.
         -4    1    6    6    0  503  0.13695618434E+03  0.56144580786E+02 -0.36129586722E+02  0.15236324168E+03  0.00000000000E+00 0.  1.
<mgrwt>
<rscale>  0 0.17112483E+04</rscale>
<asrwt>0</asrwt>
<pdfrwt beam="1">  1        2 0.20751674E+00 0.17112483E+04</pdfrwt>
<pdfrwt beam="2">  1       -1 0.83499948E-01 0.17112483E+04</pdfrwt>
<totfact> 0.23879553E+01</totfact>
</mgrwt>
</event>
<event>
12    6  0.1510140E-007  0.1433109E+04  0.7818608E-02  0.8930195E-01
          2   -1    0    0  501    0  0.00000000000E+00  0.00000000000E+00  0.21176044449E+04  0.21176044449E+04  0.00000000000E+00 0. -1.
         -1   -1    0    0    0  501 -0.00000000000E+00 -0.00000000000E+00 -0.24246748619E+03  0.24246748619E+03  0.00000000000E+00 0.  1.
         24    2    1    2    0    0  0.16437064599E+03 -0.34897683640E+03  0.27205747046E+03  0.47858172401E+03  0.78883824186E+02 0.  0.
        254    2    1    2    0    0 -0.16437064599E+03  0.34897683640E+03  0.16030794883E+04  0.18814902071E+04  0.90627755795E+03 0.  0.
         23    2    4    4    0    0 -0.71076977825E+02 -0.29287501121E+03  0.68419493120E+03  0.75302358423E+03  0.89967247156E+02 0.  0.
         23    2    4    4    0    0 -0.93293668166E+02  0.64185184761E+03  0.91888455710E+03  0.11284666229E+04  0.91709251930E+02 0.  0.
          2    1    3    3  502    0  0.27282468430E+02 -0.12232995683E+02  0.25384203365E+02  0.39221640040E+02  0.00000000000E+00 0. -1.
         -1    1    3    3    0  502  0.13708817756E+03 -0.33674384072E+03  0.24667326709E+03  0.43936008397E+03  0.00000000000E+00 0.  1.
         11    1    5    5    0    0 -0.53311980243E+02 -0.28193668406E+03  0.66660275809E+03  0.72573390313E+03  0.00000000000E+00 0. -1.
        -11    1    5    5    0    0 -0.17764997581E+02 -0.10938327141E+02  0.17592173104E+02  0.27289681094E+02  0.00000000000E+00 0.  1.
          3    1    6    6  503    0 -0.87286116917E+02  0.35235398527E+03  0.46198270646E+03  0.58753741856E+03  0.00000000000E+00 0. -1.
         -3    1    6    6    0  503 -0.60075512480E+01  0.28949786233E+03  0.45690185064E+03  0.54092920432E+03  0.00000000000E+00 0.  1.
<mgrwt>
<rscale>  0 0.14331088E+04</rscale>
<asrwt>0</asrwt>
<pdfrwt beam="1">  1        2 0.32578529E+00 0.14331088E+04</pdfrwt>
<pdfrwt beam="2">  1       -1 0.37302692E-01 0.14331088E+04</pdfrwt>
<totfact> 0.43988371E+01</totfact>
</mgrwt>
</event>
<event>
12    6  0.1510140E-007  0.1437396E+04  0.7818608E-02  0.8927186E-01
          2   -1    0    0  501    0  0.00000000000E+00  0.00000000000E+00  0.18325652304E+04  0.18325652304E+04  0.00000000000E+00 0. -1.
         -1   -1    0    0    0  501 -0.00000000000E+00 -0.00000000000E+00 -0.28185991366E+03  0.28185991366E+03  0.00000000000E+00 0.  1.
         24    2    1    2    0    0  0.12002032755E+03  0.13035368689E+03  0.10530701445E+04  0.10707416188E+04  0.78319360495E+02 0.  0.
        254    2    1    2    0    0 -0.12002032755E+03 -0.13035368689E+03  0.49763517221E+03  0.10436835252E+04  0.90013197562E+03 0.  0.
         23    2    4    4    0    0 -0.20778857687E+03 -0.41819846455E+03  0.54769409501E+03  0.72537223802E+03  0.90166587777E+02 0.  0.
         23    2    4    4    0    0  0.87768249325E+02  0.28784477766E+03 -0.50058922801E+02  0.31831128723E+03  0.90875179277E+02 0.  0.
          2    1    3    3  502    0  0.81802068979E+02  0.13217645737E+03  0.83809263217E+03  0.85238574277E+03  0.00000000000E+00 0. -1.
         -1    1    3    3    0  502  0.38218258570E+02 -0.18227704779E+01  0.21497751232E+03  0.21835587600E+03  0.00000000000E+00 0.  1.
         11    1    5    5    0    0 -0.21066345168E+03 -0.41390253889E+03  0.54987514002E+03  0.71976181559E+03  0.00000000000E+00 0.  1.
        -11    1    5    5    0    0  0.28748748106E+01 -0.42959256647E+01 -0.21810450108E+01  0.56104224290E+01  0.00000000000E+00 0. -1.
          1    1    6    6  503    0  0.56929125692E+02  0.11332219620E+03 -0.61043177442E+02  0.14074485786E+03  0.00000000000E+00 0.  1.
         -1    1    6    6    0  503  0.30839123633E+02  0.17452258146E+03  0.10984254640E+02  0.17756642936E+03  0.00000000000E+00 0. -1.
<mgrwt>
<rscale>  0 0.14373958E+04</rscale>
<asrwt>0</asrwt>
<pdfrwt beam="1">  1        2 0.28193310E+00 0.14373958E+04</pdfrwt>
<pdfrwt beam="2">  1       -1 0.43363065E-01 0.14373958E+04</pdfrwt>
<totfact> 0.48035059E+01</totfact>
</mgrwt>
</event>
<event>
12    6  0.1510140E-007  0.1803995E+04  0.7818608E-02  0.8704178E-01
         -1   -1    0    0    0  501 -0.00000000000E+00  0.00000000000E+00  0.60515591579E+03  0.60515591579E+03  0.00000000000E+00 0.  1.
          2   -1    0    0  501    0  0.00000000000E+00 -0.00000000000E+00 -0.13444456809E+04  0.13444456809E+04  0.00000000000E+00 0. -1.
         24    2    1    2    0    0  0.22399980118E+03  0.28722380495E+03  0.33164116885E+03  0.50142210919E+03  0.93620733018E+02 0.  0.
        254    2    1    2    0    0 -0.22399980118E+03 -0.28722380495E+03 -0.10709309340E+04  0.14481794875E+04  0.90424406976E+03 0.  0.
         23    2    4    4    0    0  0.30010844834E+03  0.80155935510E+02 -0.29504850940E+03  0.43852892332E+03  0.93615911708E+02 0.  0.
         23    2    4    4    0    0 -0.52410824952E+03 -0.36737974046E+03 -0.77588242459E+03  0.10096505642E+04  0.87996557466E+02 0.  0.
          2    1    3    3  502    0  0.57418496356E+01  0.51143575080E+02  0.70112245252E+02  0.86973335244E+02  0.00000000000E+00 0. -1.
         -1    1    3    3    0  502  0.21825795154E+03  0.23608022986E+03  0.26152892360E+03  0.41444877394E+03  0.00000000000E+00 0.  1.
         11    1    5    5    0    0  0.77431279459E+02  0.45297440546E+02 -0.40175786264E+02  0.98293209128E+02  0.00000000000E+00 0. -1.
        -11    1    5    5    0    0  0.22267716889E+03  0.34858494964E+02 -0.25487272314E+03  0.34023571419E+03  0.00000000000E+00 0.  1.
          4    1    6    6  503    0 -0.24916642346E+03 -0.15875102578E+03 -0.42381873605E+03  0.51663150871E+03  0.00000000000E+00 0. -1.
         -4    1    6    6    0  503 -0.27494182606E+03 -0.20862871468E+03 -0.35206368854E+03  0.49301905551E+03  0.00000000000E+00 0.  1.
<mgrwt>
<rscale>  0 0.18039947E+04</rscale>
<asrwt>0</asrwt>
<pdfrwt beam="1">  1        2 0.20683780E+00 0.18039947E+04</pdfrwt>
<pdfrwt beam="2">  1       -1 0.93100911E-01 0.18039947E+04</pdfrwt>
<totfact> 0.18774342E+01</totfact>
</mgrwt>
</event>
<event>
12    6  0.1510140E-007  0.1814414E+04  0.7818608E-02  0.8698672E-01
         -1   -1    0    0    0  501 -0.00000000000E+00  0.00000000000E+00  0.28378399009E+03  0.28378399009E+03  0.00000000000E+00 0.  1.
          2   -1    0    0  501    0  0.00000000000E+00 -0.00000000000E+00 -0.29001783070E+04  0.29001783070E+04  0.00000000000E+00 0. -1.
         24    2    1    2    0    0  0.24334481158E+03 -0.55258870243E+03 -0.44378872413E+03  0.75409113615E+03  0.84463237996E+02 0.  0.
        254    2    1    2    0    0 -0.24334481158E+03  0.55258870243E+03 -0.21726055927E+04  0.24298711609E+04  0.90525566866E+03 0.  0.
         23    2    4    4    0    0 -0.51909385921E+03  0.38142637305E+03 -0.88081185020E+03  0.10950491053E+04  0.91424913963E+02 0.  0.
         23    2    4    4    0    0  0.27574904763E+03  0.17116232938E+03 -0.12917937425E+04  0.13348220556E+04  0.87662800215E+02 0.  0.
          2    1    3    3  502    0  0.91289807393E+02 -0.20582397215E+03 -0.11602669559E+03  0.25329731648E+03  0.00000000000E+00 0. -1.
         -1    1    3    3    0  502  0.15205500419E+03 -0.34676473028E+03 -0.32776202854E+03  0.50079381967E+03  0.00000000000E+00 0.  1.
         11    1    5    5    0    0 -0.22643859665E+03  0.13724476365E+03 -0.29765574901E+03  0.39838361929E+03  0.00000000000E+00 0. -1.
        -11    1    5    5    0    0 -0.29265526256E+03  0.24418160940E+03 -0.58315610119E+03  0.69666548603E+03  0.00000000000E+00 0.  1.
          1    1    6    6  503    0  0.28020556339E+03  0.17370650299E+03 -0.12826017017E+04  0.13242946168E+04  0.00000000000E+00 0. -1.
         -1    1    6    6    0  503 -0.44565157582E+01 -0.25441736118E+01 -0.91920408100E+01  0.10527438735E+02  0.00000000000E+00 0.  1.
<mgrwt>
<rscale>  0 0.18144136E+04</rscale>
<asrwt>0</asrwt>
<pdfrwt beam="1">  1        2 0.44618129E+00 0.18144136E+04</pdfrwt>
<pdfrwt beam="2">  1       -1 0.43659074E-01 0.18144136E+04</pdfrwt>
<totfact> 0.11208059E+01</totfact>
</mgrwt>
</event>
<event>
12    6  0.1510140E-007  0.1244846E+04  0.7818608E-02  0.9074484E-01
         -1   -1    0    0    0  501 -0.00000000000E+00  0.00000000000E+00  0.30087112212E+03  0.30087112212E+03  0.00000000000E+00 0.  1.
          2   -1    0    0  501    0  0.00000000000E+00 -0.00000000000E+00 -0.12876284605E+04  0.12876284605E+04  0.00000000000E+00 0. -1.
         24    2    1    2    0    0 -0.71227700148E+02 -0.25972675640E+03 -0.69613887432E+02  0.28786466614E+03  0.74085082368E+02 0.  0.
        254    2    1    2    0    0  0.71227700148E+02  0.25972675640E+03 -0.91714345098E+03  0.13006349165E+04  0.88202477466E+03 0.  0.
         23    2    4    4    0    0  0.18516870286E+03 -0.28556822375E+03 -0.43828685669E+03  0.56052704947E+03  0.79110969560E+02 0.  0.
         23    2    4    4    0    0 -0.11394100271E+03  0.54529498015E+03 -0.47885659430E+03  0.74010786705E+03  0.90149040476E+02 0.  0.
          2    1    3    3  502    0  0.14243851943E+02 -0.50345789249E+02 -0.21963757883E+02  0.56744977518E+02  0.00000000000E+00 0. -1.
         -1    1    3    3    0  502 -0.85471552091E+02 -0.20938096715E+03 -0.47650129550E+02  0.23111968862E+03  0.00000000000E+00 0.  1.
         11    1    5    5    0    0  0.14371177818E+03 -0.16211458940E+03 -0.24019863076E+03  0.32346498652E+03  0.00000000000E+00 0.  1.
        -11    1    5    5    0    0  0.41456924675E+02 -0.12345363435E+03 -0.19808822593E+03  0.23706206295E+03  0.00000000000E+00 0. -1.
          4    1    6    6  503    0  0.38190383272E+01  0.11618506982E+03 -0.69256412159E+02  0.13531447124E+03  0.00000000000E+00 0. -1.
         -4    1    6    6    0  503 -0.11776004104E+03  0.42910991033E+03 -0.40960018214E+03  0.60479339581E+03  0.00000000000E+00 0.  1.
<mgrwt>
<rscale>  0 0.12448457E+04</rscale>
<asrwt>0</asrwt>
<pdfrwt beam="1">  1        2 0.19809669E+00 0.12448457E+04</pdfrwt>
<pdfrwt beam="2">  1       -1 0.46287865E-01 0.12448457E+04</pdfrwt>
<totfact> 0.87525866E+01</totfact>
</mgrwt>
</event>
<event>
12    6  0.1510140E-007  0.1525900E+04  0.7818608E-02  0.8867410E-01
          2   -1    0    0  501    0  0.00000000000E+00  0.00000000000E+00  0.14038212565E+04  0.14038212565E+04  0.00000000000E+00 0. -1.
         -1   -1    0    0    0  501 -0.00000000000E+00 -0.00000000000E+00 -0.41464875080E+03  0.41464875080E+03  0.00000000000E+00 0.  1.
         24    2    1    2    0    0  0.22914546696E+03 -0.82539045982E+02  0.83186640242E+03  0.87063747378E+03  0.81777503860E+02 0.  0.
        254    2    1    2    0    0 -0.22914546696E+03  0.82539045982E+02  0.15730610330E+03  0.94783253355E+03  0.90239734173E+03 0.  0.
         23    2    4    4    0    0  0.11235412807E+03  0.66452029625E+02 -0.31787726589E+03  0.35544666198E+03  0.90868316829E+02 0.  0.
         23    2    4    4    0    0 -0.34149959504E+03  0.16087016357E+02  0.47518336919E+03  0.59238587157E+03  0.90780069235E+02 0.  0.
          2    1    3    3  502    0  0.20444551966E+03 -0.99072531198E+02  0.73295391016E+03  0.76735570068E+03  0.00000000000E+00 0. -1.
         -3    1    3    3    0  502  0.24699947307E+02  0.16533485216E+02  0.98912492256E+02  0.10328177310E+03  0.00000000000E+00 0.  1.
         11    1    5    5    0    0  0.48716199615E+02  0.12910931774E+02 -0.22586601476E+03  0.23142043317E+03  0.00000000000E+00 0.  1.
        -11    1    5    5    0    0  0.63637928458E+02  0.53541097851E+02 -0.92011251130E+02  0.12402622881E+03  0.00000000000E+00 0. -1.
          1    1    6    6  503    0 -0.24308530352E+03 -0.27683065590E+02  0.30529693571E+03  0.39123271318E+03  0.00000000000E+00 0. -1.
         -1    1    6    6    0  503 -0.98414291521E+02  0.43770081947E+02  0.16988643348E+03  0.20115315839E+03  0.00000000000E+00 0.  1.
<mgrwt>
<rscale>  0 0.15259000E+04</rscale>
<asrwt>0</asrwt>
<pdfrwt beam="1">  1        2 0.21597250E+00 0.15259000E+04</pdfrwt>
<pdfrwt beam="2">  1       -1 0.63792116E-01 0.15259000E+04</pdfrwt>
<totfact> 0.39434168E+01</totfact>
</mgrwt>
</event>
<event>
12    6  0.1510140E-007  0.3279887E+04  0.7818608E-02  0.8168032E-01
         -1   -1    0    0    0  501 -0.00000000000E+00  0.00000000000E+00  0.14310067225E+04  0.14310067225E+04  0.00000000000E+00 0.  1.
          2   -1    0    0  501    0  0.00000000000E+00 -0.00000000000E+00 -0.18793859733E+04  0.18793859733E+04  0.00000000000E+00 0. -1.
         24    2    1    2    0    0 -0.92560928912E+03  0.11079403525E+04  0.28523875074E+03  0.14739355993E+04  0.82708072306E+02 0.  0.
        254    2    1    2    0    0  0.92560928912E+03 -0.11079403525E+04 -0.73361800156E+03  0.18364570965E+04  0.86608020093E+03 0.  0.
         23    2    4    4    0    0  0.17693227002E+03 -0.46650279653E+03  0.12860614053E+03  0.52369005774E+03  0.93711524651E+02 0.  0.
         23    2    4    4    0    0  0.74867701910E+03 -0.64143755595E+03 -0.86222414209E+03  0.13127670388E+04  0.89260348572E+02 0.  0.
          2    1    3    3  502    0 -0.38385199210E+02  0.72929053823E+02  0.80770808118E+01  0.82808874188E+02  0.00000000000E+00 0. -1.
         -1    1    3    3    0  502 -0.88722408991E+03  0.10350112987E+04  0.27716166993E+03  0.13911267251E+04  0.00000000000E+00 0.  1.
         11    1    5    5    0    0  0.16126848390E+03 -0.32210666608E+03  0.69419681899E+02  0.36685054241E+03  0.00000000000E+00 0.  1.
        -11    1    5    5    0    0  0.15663786123E+02 -0.14439613045E+03  0.59186458630E+02  0.15683951533E+03  0.00000000000E+00 0. -1.
          4    1    6    6  503    0  0.32893831026E+03 -0.33396599192E+03 -0.38155580119E+03  0.60441585447E+03  0.00000000000E+00 0. -1.
         -4    1    6    6    0  503  0.41973870884E+03 -0.30747156403E+03 -0.48066834090E+03  0.70835118432E+03  0.00000000000E+00 0.  1.
<mgrwt>
<rscale>  0 0.32798866E+04</rscale>
<asrwt>0</asrwt>
<pdfrwt beam="1">  1        2 0.28913630E+00 0.32798866E+04</pdfrwt>
<pdfrwt beam="2">  1       -1 0.22015488E+00 0.32798866E+04</pdfrwt>
<totfact> 0.81468508E-01</totfact>
</mgrwt>
</event>
<event>
12    6  0.1510140E-007  0.1183121E+04  0.7818608E-02  0.9127760E-01
         -1   -1    0    0    0  501 -0.00000000000E+00  0.00000000000E+00  0.39784656585E+03  0.39784656585E+03  0.00000000000E+00 0.  1.
          2   -1    0    0  501    0  0.00000000000E+00 -0.00000000000E+00 -0.87959525716E+03  0.87959525716E+03  0.00000000000E+00 0. -1.
         24    2    1    2    0    0  0.68834195972E+02 -0.12246225944E+03  0.10332489029E+03  0.19190605375E+03  0.80104612785E+02 0.  0.
        254    2    1    2    0    0 -0.68834195972E+02  0.12246225944E+03 -0.58507358160E+03  0.10855357693E+04  0.90351627487E+03 0.  0.
         23    2    4    4    0    0  0.15472922145E+03  0.45052714129E+03 -0.20058860576E+03  0.52527092628E+03  0.93583760498E+02 0.  0.
         23    2    4    4    0    0 -0.22356341742E+03 -0.32806488185E+03 -0.38448497584E+03  0.56026484298E+03  0.91982766424E+02 0.  0.
          4    1    3    3  502    0  0.24036906603E+02 -0.97206344362E+02  0.34333190931E+02  0.10585657402E+03  0.00000000000E+00 0. -1.
         -1    1    3    3    0  502  0.44797289369E+02 -0.25255915075E+02  0.68991699358E+02  0.86049479728E+02  0.00000000000E+00 0.  1.
         11    1    5    5    0    0  0.98306410370E+02  0.20990005468E+03 -0.14006596449E+03  0.27081480330E+03  0.00000000000E+00 0. -1.
        -11    1    5    5    0    0  0.56422811082E+02  0.24062708661E+03 -0.60522641266E+02  0.25445612299E+03  0.00000000000E+00 0.  1.
          3    1    6    6  503    0 -0.12346329125E+03 -0.20493582375E+03 -0.17017360458E+03  0.29359995203E+03  0.00000000000E+00 0. -1.
         -3    1    6    6    0  503 -0.10010012618E+03 -0.12312905811E+03 -0.21431137126E+03  0.26666489095E+03  0.00000000000E+00 0.  1.
<mgrwt>
<rscale>  0 0.11831212E+04</rscale>
<asrwt>0</asrwt>
<pdfrwt beam="1">  1        2 0.13532235E+00 0.11831212E+04</pdfrwt>
<pdfrwt beam="2">  1       -1 0.61207165E-01 0.11831212E+04</pdfrwt>
<totfact> 0.92405161E+01</totfact>
</mgrwt>
</event>
<event>
12    6  0.1510140E-007  0.2883464E+04  0.7818608E-02  0.8277814E-01
         -1   -1    0    0    0  501 -0.00000000000E+00  0.00000000000E+00  0.10315576931E+04  0.10315576931E+04  0.00000000000E+00 0.  1.
          2   -1    0    0  501    0  0.00000000000E+00 -0.00000000000E+00 -0.20150028347E+04  0.20150028347E+04  0.00000000000E+00 0. -1.
         24    2    1    2    0    0  0.91654183004E+03 -0.92041889939E+03 -0.37937026645E+03  0.13560911129E+04  0.88551854493E+02 0.  0.
        254    2    1    2    0    0 -0.91654183004E+03  0.92041889939E+03 -0.60407487519E+03  0.16904694148E+04  0.89753022853E+03 0.  0.
         23    2    4    4    0    0  0.57864820532E+02  0.49469958615E+03 -0.25131557437E+03  0.56645239016E+03  0.98146698401E+02 0.  0.
         23    2    4    4    0    0 -0.97440665057E+03  0.42571931324E+03 -0.35275930082E+03  0.11240170247E+04  0.90938952736E+02 0.  0.
          2    1    3    3  502    0  0.65370258808E+03 -0.67364619395E+03 -0.23439934700E+03  0.96750675562E+03  0.00000000000E+00 0. -1.
         -1    1    3    3    0  502  0.26283924196E+03 -0.24677270544E+03 -0.14497091945E+03  0.38858435731E+03  0.00000000000E+00 0.  1.
         11    1    5    5    0    0 -0.11444522696E+02  0.45220201068E+02 -0.52134519761E+02  0.69956070752E+02  0.00000000000E+00 0. -1.
        -11    1    5    5    0    0  0.69309343228E+02  0.44947938508E+03 -0.19918105461E+03  0.49649631941E+03  0.00000000000E+00 0.  1.
          2    1    6    6  503    0 -0.76950565027E+03  0.36610283762E+03 -0.25657415549E+03  0.88994411666E+03  0.00000000000E+00 0.  1.
         -2    1    6    6    0  503 -0.20490100030E+03  0.59616475621E+02 -0.96185145330E+02  0.23407290803E+03  0.00000000000E+00 0. -1.
<mgrwt>
<rscale>  0 0.28834644E+04</rscale>
<asrwt>0</asrwt>
<pdfrwt beam="1">  1        2 0.31000043E+00 0.28834644E+04</pdfrwt>
<pdfrwt beam="2">  1       -1 0.15870119E+00 0.28834644E+04</pdfrwt>
<totfact> 0.19262436E+00</totfact>
</mgrwt>
</event>
<event>
12    6  0.1510140E-007  0.1377954E+04  0.7818608E-02  0.8969933E-01
          2   -1    0    0  501    0  0.00000000000E+00  0.00000000000E+00  0.17618897607E+04  0.17618897607E+04  0.00000000000E+00 0. -1.
         -1   -1    0    0    0  501 -0.00000000000E+00 -0.00000000000E+00 -0.26942036191E+03  0.26942036191E+03  0.00000000000E+00 0.  1.
         24    2    1    2    0    0 -0.45626973160E+02  0.41926731434E+02  0.97968747723E+03  0.98510543263E+03  0.82495386977E+02 0.  0.
        254    2    1    2    0    0  0.45626973160E+02 -0.41926731434E+02  0.51278192160E+03  0.10462046900E+04  0.90981277348E+03 0.  0.
         23    2    4    4    0    0  0.89381562786E+02 -0.13177335577E+03 -0.22845364101E+03  0.29265529338E+03  0.90015407546E+02 0.  0.
         23    2    4    4    0    0 -0.43754589626E+02  0.89846624336E+02  0.74123556261E+03  0.75354939663E+03  0.91758671904E+02 0.  0.
          2    1    3    3  502    0 -0.39376871970E+02  0.61417067823E+02  0.89544454547E+03  0.89841166972E+03  0.00000000000E+00 0. -1.
         -1    1    3    3    0  502 -0.62501011903E+01 -0.19490336389E+02  0.84242931756E+02  0.86693762915E+02  0.00000000000E+00 0.  1.
         11    1    5    5    0    0  0.49962709342E+02 -0.13435872092E+03 -0.18211058552E+03  0.23176022862E+03  0.00000000000E+00 0. -1.
        -11    1    5    5    0    0  0.39418853445E+02  0.25853651500E+01 -0.46343055485E+02  0.60895064755E+02  0.00000000000E+00 0.  1.
          4    1    6    6  503    0 -0.12550375732E+02  0.18042872857E+02  0.48783846308E+03  0.48833331163E+03  0.00000000000E+00 0. -1.
         -4    1    6    6    0  503 -0.31204213894E+02  0.71803751479E+02  0.25339709953E+03  0.26521608499E+03  0.00000000000E+00 0.  1.
<mgrwt>
<rscale>  0 0.13779535E+04</rscale>
<asrwt>0</asrwt>
<pdfrwt beam="1">  1        2 0.27105996E+00 0.13779535E+04</pdfrwt>
<pdfrwt beam="2">  1       -1 0.41449288E-01 0.13779535E+04</pdfrwt>
<totfact> 0.57403051E+01</totfact>
</mgrwt>
</event>
<event>
12    6  0.1510140E-007  0.1341584E+04  0.7818608E-02  0.8997223E-01
         -1   -1    0    0    0  501 -0.00000000000E+00  0.00000000000E+00  0.14787631476E+04  0.14787631476E+04  0.00000000000E+00 0.  1.
          2   -1    0    0  501    0  0.00000000000E+00 -0.00000000000E+00 -0.30428283462E+03  0.30428283462E+03  0.00000000000E+00 0. -1.
         24    2    1    2    0    0 -0.31054913914E+03 -0.64902351770E+02  0.55660328615E+03  0.64579999141E+03  0.81223935363E+02 0.  0.
        254    2    1    2    0    0  0.31054913914E+03  0.64902351770E+02  0.61787702682E+03  0.11372459908E+04  0.90050171584E+03 0.  0.
         23    2    4    4    0    0 -0.67521604331E+02 -0.34932856303E+03  0.35507065710E+03  0.51106731885E+03  0.92331039571E+02 0.  0.
         23    2    4    4    0    0  0.37807074347E+03  0.41423091480E+03  0.26280636972E+03  0.62617867194E+03  0.92237754692E+02 0.  0.
          4    1    3    3  502    0 -0.12272636112E+03 -0.71378220111E+01  0.14797285911E+03  0.19237638954E+03  0.00000000000E+00 0. -1.
         -3    1    3    3    0  502 -0.18782277801E+03 -0.57764529758E+02  0.40863042704E+03  0.45342360188E+03  0.00000000000E+00 0.  1.
         11    1    5    5    0    0 -0.21689511577E+02 -0.28132624323E+03  0.24417149398E+03  0.37314153952E+03  0.00000000000E+00 0. -1.
        -11    1    5    5    0    0 -0.45832092754E+02 -0.68002319794E+02  0.11089916312E+03  0.13792577933E+03  0.00000000000E+00 0.  1.
          2    1    6    6  503    0  0.30244046892E+03  0.37903076991E+03  0.22657971126E+03  0.53523165763E+03  0.00000000000E+00 0. -1.
         -2    1    6    6    0  503  0.75630274551E+02  0.35200144886E+02  0.36226658465E+02  0.90947014311E+02  0.00000000000E+00 0.  1.
<mgrwt>
<rscale>  0 0.13415845E+04</rscale>
<asrwt>0</asrwt>
<pdfrwt beam="1">  1        2 0.46812745E-01 0.13415845E+04</pdfrwt>
<pdfrwt beam="2">  1       -1 0.22750202E+00 0.13415845E+04</pdfrwt>
<totfact> 0.11870376E+01</totfact>
</mgrwt>
</event>
<event>
12    6  0.1510140E-007  0.2335501E+04  0.7818608E-02  0.8464054E-01
         -1   -1    0    0    0  501 -0.00000000000E+00  0.00000000000E+00  0.16790827778E+04  0.16790827778E+04  0.00000000000E+00 0.  1.
          2   -1    0    0  501    0  0.00000000000E+00 -0.00000000000E+00 -0.81213443439E+03  0.81213443439E+03  0.00000000000E+00 0. -1.
         24    2    1    2    0    0  0.82245409262E+03  0.59496798205E+03  0.34259843653E+03  0.10743923346E+04  0.80793351994E+02 0.  0.
        254    2    1    2    0    0 -0.82245409262E+03 -0.59496798205E+03  0.52434990688E+03  0.14168248776E+04  0.83787366282E+03 0.  0.
         23    2    4    4    0    0 -0.32165827871E+03 -0.34919495222E+03 -0.17797825172E+03  0.51532774599E+03  0.92115496977E+02 0.  0.
         23    2    4    4    0    0 -0.50079581392E+03 -0.24577302983E+03  0.70232815860E+03  0.90149713163E+03  0.90727099236E+02 0.  0.
          2    1    3    3  502    0  0.81800954216E+03  0.59091593602E+03  0.33222317876E+03  0.10623998753E+04  0.00000000000E+00 0. -1.
         -1    1    3    3    0  502  0.44445504635E+01  0.40520460259E+01  0.10375257762E+02  0.11992459274E+02  0.00000000000E+00 0.  1.
         11    1    5    5    0    0 -0.18755791468E+03 -0.25379312906E+03 -0.87315876333E+02  0.32743394139E+03  0.00000000000E+00 0. -1.
        -11    1    5    5    0    0 -0.13410036403E+03 -0.95401823167E+02 -0.90662375389E+02  0.18789380460E+03  0.00000000000E+00 0.  1.
          3    1    6    6  503    0 -0.43009318570E+03 -0.23732920828E+03  0.64058211724E+03  0.80724887762E+03  0.00000000000E+00 0. -1.
         -3    1    6    6    0  503 -0.70702628222E+02 -0.84438215432E+01  0.61746041362E+02  0.94248254008E+02  0.00000000000E+00 0.  1.
<mgrwt>
<rscale>  0 0.23355008E+04</rscale>
<asrwt>0</asrwt>
<pdfrwt beam="1">  1        2 0.12494376E+00 0.23355008E+04</pdfrwt>
<pdfrwt beam="2">  1       -1 0.25832043E+00 0.23355008E+04</pdfrwt>
<totfact> 0.21420453E+00</totfact>
</mgrwt>
</event>
<event>
12    6  0.1510140E-007  0.1422187E+04  0.7818608E-02  0.8937913E-01
          2   -1    0    0  501    0  0.00000000000E+00  0.00000000000E+00  0.64958021549E+03  0.64958021549E+03  0.00000000000E+00 0. -1.
         -1   -1    0    0    0  501 -0.00000000000E+00 -0.00000000000E+00 -0.77843239633E+03  0.77843239633E+03  0.00000000000E+00 0.  1.
         24    2    1    2    0    0 -0.27467117674E+03 -0.26440190198E+03  0.15454854499E+03  0.41895402231E+03  0.79275462504E+02 0.  0.
        254    2    1    2    0    0  0.27467117674E+03  0.26440190198E+03 -0.28340072583E+03  0.10090585895E+04  0.89024190227E+03 0.  0.
         23    2    4    4    0    0  0.13304182889E+03  0.40374237695E+03 -0.52589565543E+03  0.68232604839E+03  0.91074479029E+02 0.  0.
         23    2    4    4    0    0  0.14162934785E+03 -0.13934047498E+03  0.24249492960E+03  0.32673254112E+03  0.92063686676E+02 0.  0.
          4    1    3    3  502    0 -0.25655984205E+03 -0.24098091034E+03  0.16338239582E+03  0.38805741710E+03  0.00000000000E+00 0. -1.
         -3    1    3    3    0  502 -0.18111334685E+02 -0.23420991632E+02 -0.88338508297E+01  0.30896605212E+02  0.00000000000E+00 0.  1.
         11    1    5    5    0    0  0.75128020723E+02  0.99349313516E+02 -0.13887207262E+03  0.18654746889E+03  0.00000000000E+00 0.  1.
        -11    1    5    5    0    0  0.57913808163E+02  0.30439306343E+03 -0.38702358281E+03  0.49577857950E+03  0.00000000000E+00 0. -1.
          4    1    6    6  503    0  0.14052495272E+03 -0.93694622229E+02  0.16111096219E+03  0.23341526665E+03  0.00000000000E+00 0. -1.
         -4    1    6    6    0  503  0.11043951371E+01 -0.45645852747E+02  0.81383967412E+02  0.93317274463E+02  0.00000000000E+00 0.  1.
<mgrwt>
<rscale>  0 0.14221874E+04</rscale>
<asrwt>0</asrwt>
<pdfrwt beam="1">  1        2 0.99935419E-01 0.14221874E+04</pdfrwt>
<pdfrwt beam="2">  1       -1 0.11975883E+00 0.14221874E+04</pdfrwt>
<totfact> 0.31091305E+01</totfact>
</mgrwt>
</event>
<event>
12    6  0.1510140E-007  0.1976170E+04  0.7818608E-02  0.8617844E-01
          2   -1    0    0  501    0  0.00000000000E+00  0.00000000000E+00  0.12860089141E+04  0.12860089141E+04  0.00000000000E+00 0. -1.
         -1   -1    0    0    0  501 -0.00000000000E+00 -0.00000000000E+00 -0.75918004103E+03  0.75918004103E+03  0.00000000000E+00 0.  1.
         24    2    1    2    0    0  0.62860934938E+03 -0.30248241578E+02  0.68360564403E+03  0.93254356728E+03  0.79095878919E+02 0.  0.
        254    2    1    2    0    0 -0.62860934938E+03  0.30248241578E+02 -0.15677677098E+03  0.11126453878E+04  0.90406644274E+03 0.  0.
         23    2    4    4    0    0 -0.34486262856E+03 -0.14935087890E+03  0.33364935887E+03  0.51131123206E+03  0.94240987620E+02 0.  0.
         23    2    4    4    0    0 -0.28374672082E+03  0.17959912048E+03 -0.49042612985E+03  0.60133415577E+03  0.91197217095E+02 0.  0.
          2    1    3    3  502    0  0.41045256380E+03 -0.16603122056E+02  0.38935786899E+03  0.56599162621E+03  0.00000000000E+00 0. -1.
         -1    1    3    3    0  502  0.21815678558E+03 -0.13645119522E+02  0.29424777505E+03  0.36655194107E+03  0.00000000000E+00 0.  1.
         11    1    5    5    0    0 -0.20201840579E+03 -0.12540209064E+03  0.24543435274E+03  0.34172378044E+03  0.00000000000E+00 0.  1.
        -11    1    5    5    0    0 -0.14284422278E+03 -0.23948788259E+02  0.88215006127E+02  0.16958745162E+03  0.00000000000E+00 0. -1.
          3    1    6    6  503    0 -0.14862735860E+03  0.75861783508E+02 -0.16866459540E+03  0.23726113812E+03  0.00000000000E+00 0. -1.
         -3    1    6    6    0  503 -0.13511936221E+03  0.10373733697E+03 -0.32176153445E+03  0.36407301765E+03  0.00000000000E+00 0.  1.
<mgrwt>
<rscale>  0 0.19761703E+04</rscale>
<asrwt>0</asrwt>
<pdfrwt beam="1">  1        2 0.19784753E+00 0.19761703E+04</pdfrwt>
<pdfrwt beam="2">  1       -1 0.11679693E+00 0.19761703E+04</pdfrwt>
<totfact> 0.11820700E+01</totfact>
</mgrwt>
</event>
<event>
12    6  0.1510140E-007  0.1337793E+04  0.7818608E-02  0.9000120E-01
         -1   -1    0    0    0  501 -0.00000000000E+00  0.00000000000E+00  0.92243006427E+03  0.92243006427E+03  0.00000000000E+00 0.  1.
          2   -1    0    0  501    0  0.00000000000E+00 -0.00000000000E+00 -0.48504781689E+03  0.48504781689E+03  0.00000000000E+00 0. -1.
         24    2    1    2    0    0  0.26296317382E+03  0.89906167747E+02  0.36071314407E+03  0.46190487420E+03  0.77520260046E+02 0.  0.
        254    2    1    2    0    0 -0.26296317382E+03 -0.89906167747E+02  0.76669103300E+02  0.94557300696E+03  0.90055394636E+03 0.  0.
         23    2    4    4    0    0  0.29515058384E+03 -0.15824315004E+03  0.13701193105E+03  0.37280801233E+03  0.89770725359E+02 0.  0.
         23    2    4    4    0    0 -0.55811375765E+03  0.68336982292E+02 -0.60342827749E+02  0.57276499464E+03  0.90871186797E+02 0.  0.
          2    1    3    3  502    0  0.19733809208E+02  0.96799284409E+01  0.75215401919E+02  0.78361220807E+02  0.00000000000E+00 0. -1.
         -1    1    3    3    0  502  0.24322936461E+03  0.80226239306E+02  0.28549774215E+03  0.38354365339E+03  0.00000000000E+00 0.  1.
         11    1    5    5    0    0  0.92245280701E+02 -0.67376164465E+02  0.52037008126E+01  0.11434954242E+03  0.00000000000E+00 0.  1.
        -11    1    5    5    0    0  0.20290530313E+03 -0.90866985574E+02  0.13180823024E+03  0.25845846990E+03  0.00000000000E+00 0. -1.
          2    1    6    6  503    0 -0.22956900394E+03 -0.14135353201E+02 -0.39643768962E+02  0.23339529601E+03  0.00000000000E+00 0. -1.
         -2    1    6    6    0  503 -0.32854475371E+03  0.82472335493E+02 -0.20699058787E+02  0.33936969863E+03  0.00000000000E+00 0.  1.
<mgrwt>
<rscale>  0 0.13377932E+04</rscale>
<asrwt>0</asrwt>
<pdfrwt beam="1">  1        2 0.74622741E-01 0.13377932E+04</pdfrwt>
<pdfrwt beam="2">  1       -1 0.14191232E+00 0.13377932E+04</pdfrwt>
<totfact> 0.28851867E+01</totfact>
</mgrwt>
</event>
<event>
12    6  0.1510140E-007  0.2555212E+04  0.7818608E-02  0.8383576E-01
          2   -1    0    0  501    0  0.00000000000E+00  0.00000000000E+00  0.27786961929E+04  0.27786961929E+04  0.00000000000E+00 0. -1.
         -1   -1    0    0    0  501 -0.00000000000E+00 -0.00000000000E+00 -0.58742541081E+03  0.58742541081E+03  0.00000000000E+00 0.  1.
         24    2    1    2    0    0 -0.20618596396E+03 -0.45068352193E+03  0.22600066417E+04  0.23150671783E+04  0.79232133459E+02 0.  0.
        254    2    1    2    0    0  0.20618596396E+03  0.45068352193E+03 -0.68735859527E+02  0.10510544255E+04  0.92431731468E+03 0.  0.
         23    2    4    4    0    0  0.21457230835E+03  0.55421462082E+03  0.28887939061E+03  0.66685096394E+03  0.89687147027E+02 0.  0.
         23    2    4    4    0    0 -0.83863443932E+01 -0.10353109889E+03 -0.35761525014E+03  0.38420346152E+03  0.94523084502E+02 0.  0.
          4    1    3    3  502    0 -0.13337444931E+03 -0.21806077768E+03  0.12727470827E+04  0.12981619248E+04  0.00000000000E+00 0. -1.
         -3    1    3    3    0  502 -0.72811514646E+02 -0.23262274425E+03  0.98725955900E+03  0.10169052535E+04  0.00000000000E+00 0.  1.
         11    1    5    5    0    0  0.21913906847E+03  0.49355905242E+03  0.25459152251E+03  0.59702538714E+03  0.00000000000E+00 0.  1.
        -11    1    5    5    0    0 -0.45667601219E+01  0.60655568406E+02  0.34287868099E+02  0.69825576800E+02  0.00000000000E+00 0. -1.
          2    1    6    6  503    0 -0.29030145324E+02 -0.70453195336E+02 -0.32363096852E+03  0.33248068493E+03  0.00000000000E+00 0.  1.
         -2    1    6    6    0  503  0.20643800931E+02 -0.33077903559E+02 -0.33984281620E+02  0.51722776588E+02  0.00000000000E+00 0. -1.
<mgrwt>
<rscale>  0 0.25552117E+04</rscale>
<asrwt>0</asrwt>
<pdfrwt beam="1">  1        2 0.42749171E+00 0.25552117E+04</pdfrwt>
<pdfrwt beam="2">  1       -1 0.90373142E-01 0.25552117E+04</pdfrwt>
<totfact> 0.28780702E+00</totfact>
</mgrwt>
</event>
<event>
12    6  0.1510140E-007  0.1617683E+04  0.7818608E-02  0.8809758E-01
          2   -1    0    0  501    0  0.00000000000E+00  0.00000000000E+00  0.15638185939E+04  0.15638185939E+04  0.00000000000E+00 0. -1.
         -1   -1    0    0    0  501 -0.00000000000E+00 -0.00000000000E+00 -0.41835063518E+03  0.41835063518E+03  0.00000000000E+00 0.  1.
         24    2    1    2    0    0  0.20274360102E+03 -0.25226437513E+03  0.93529300541E+03  0.99294370597E+03  0.80136848783E+02 0.  0.
        254    2    1    2    0    0 -0.20274360102E+03  0.25226437513E+03  0.21017495333E+03  0.98922552314E+03  0.91085198683E+03 0.  0.
         23    2    4    4    0    0 -0.44967029713E+03  0.20981760144E+03 -0.16320471239E+03  0.53059578871E+03  0.93109134135E+02 0.  0.
         23    2    4    4    0    0  0.24692669610E+03  0.42446773690E+02  0.37337966572E+03  0.45862973443E+03  0.90301365918E+02 0.  0.
          4    1    3    3  502    0  0.65256867028E+02 -0.10185142976E+03  0.24555813329E+03  0.27373521744E+03  0.00000000000E+00 0. -1.
         -1    1    3    3    0  502  0.13748673400E+03 -0.15041294537E+03  0.68973487212E+03  0.71920848853E+03  0.00000000000E+00 0.  1.
         11    1    5    5    0    0 -0.29164649819E+03  0.11053278391E+03 -0.60937364205E+02  0.31778693898E+03  0.00000000000E+00 0. -1.
        -11    1    5    5    0    0 -0.15802379893E+03  0.99284817524E+02 -0.10226734818E+03  0.21280884973E+03  0.00000000000E+00 0.  1.
          2    1    6    6  503    0  0.14490114602E+03  0.62549202878E+02  0.26495663358E+03  0.30840032843E+03  0.00000000000E+00 0. -1.
         -2    1    6    6    0  503  0.10202555008E+03 -0.20102429188E+02  0.10842303214E+03  0.15022940600E+03  0.00000000000E+00 0.  1.
<mgrwt>
<rscale>  0 0.16176829E+04</rscale>
<asrwt>0</asrwt>
<pdfrwt beam="1">  1        2 0.24058747E+00 0.16176829E+04</pdfrwt>
<pdfrwt beam="2">  1       -1 0.64361637E-01 0.16176829E+04</pdfrwt>
<totfact> 0.31210436E+01</totfact>
</mgrwt>
</event>
<event>
12    6  0.1510140E-007  0.1647437E+04  0.7818608E-02  0.8791924E-01
          2   -1    0    0  501    0  0.00000000000E+00  0.00000000000E+00  0.10516183094E+04  0.10516183094E+04  0.00000000000E+00 0. -1.
         -1   -1    0    0    0  501 -0.00000000000E+00 -0.00000000000E+00 -0.64520801183E+03  0.64520801183E+03  0.00000000000E+00 0.  1.
         24    2    1    2    0    0 -0.73899159400E+02  0.33970288298E+03  0.61030877654E+03  0.70697546464E+03  0.80488324695E+02 0.  0.
        254    2    1    2    0    0  0.73899159400E+02 -0.33970288298E+03 -0.20389847901E+03  0.98985085655E+03  0.90408572270E+03 0.  0.
         23    2    4    4    0    0  0.36185502559E+03 -0.61393213913E+02 -0.38608809197E+03  0.54042766379E+03  0.91048661533E+02 0.  0.
         23    2    4    4    0    0 -0.28795586619E+03 -0.27830966907E+03  0.18218961296E+03  0.44942319276E+03  0.91724033653E+02 0.  0.
          4    1    3    3  502    0 -0.84501082017E+02  0.25079637747E+03  0.49130965170E+03  0.55805414582E+03  0.00000000000E+00 0. -1.
         -3    1    3    3    0  502  0.10601922617E+02  0.88906505514E+02  0.11899912484E+03  0.14892131882E+03  0.00000000000E+00 0.  1.
         11    1    5    5    0    0  0.30386155467E+03 -0.81658259433E+02 -0.34259810699E+03  0.46515951958E+03  0.00000000000E+00 0. -1.
        -11    1    5    5    0    0  0.57993470923E+02  0.20265045519E+02 -0.43489984976E+02  0.75268144210E+02  0.00000000000E+00 0.  1.
          1    1    6    6  503    0 -0.26775148235E+03 -0.21298500984E+03  0.15845692347E+03  0.37704385331E+03  0.00000000000E+00 0. -1.
         -1    1    6    6    0  503 -0.20204383835E+02 -0.65324659226E+02  0.23732689487E+02  0.72379339452E+02  0.00000000000E+00 0.  1.
<mgrwt>
<rscale>  0 0.16474375E+04</rscale>
<asrwt>0</asrwt>
<pdfrwt beam="1">  1        2 0.16178743E+00 0.16474375E+04</pdfrwt>
<pdfrwt beam="2">  1       -1 0.99262771E-01 0.16474375E+04</pdfrwt>
<totfact> 0.24678958E+01</totfact>
</mgrwt>
</event>
<event>
12    6  0.1510140E-007  0.1611151E+04  0.7818608E-02  0.8813727E-01
         -1   -1    0    0    0  501 -0.00000000000E+00  0.00000000000E+00  0.13371057809E+04  0.13371057809E+04  0.00000000000E+00 0.  1.
          2   -1    0    0  501    0  0.00000000000E+00 -0.00000000000E+00 -0.48534081870E+03  0.48534081870E+03  0.00000000000E+00 0. -1.
         24    2    1    2    0    0 -0.24467047603E+03  0.24508177068E+03  0.77636498891E+03  0.85400552756E+03  0.81572844378E+02 0.  0.
        254    2    1    2    0    0  0.24467047603E+03 -0.24508177068E+03  0.75399973257E+02  0.96844107199E+03  0.90125703204E+03 0.  0.
         23    2    4    4    0    0  0.24701846895E+03 -0.11311565055E+03  0.46536726959E+03  0.54655929265E+03  0.91362412283E+02 0.  0.
         23    2    4    4    0    0 -0.23479929188E+01 -0.13196612013E+03 -0.38996729633E+03  0.42188177935E+03  0.92136711493E+02 0.  0.
          4    1    3    3  502    0 -0.73867870317E+02  0.53150007320E+02  0.13220823236E+03  0.16050047429E+03  0.00000000000E+00 0. -1.
         -3    1    3    3    0  502 -0.17080260571E+03  0.19193176336E+03  0.64415675655E+03  0.69350505327E+03  0.00000000000E+00 0.  1.
         11    1    5    5    0    0  0.11265706754E+03 -0.27104232806E+01  0.18765024317E+03  0.21888712850E+03  0.00000000000E+00 0. -1.
        -11    1    5    5    0    0  0.13436140141E+03 -0.11040522727E+03  0.27771702642E+03  0.32767216415E+03  0.00000000000E+00 0.  1.
          3    1    6    6  503    0 -0.28039104631E+02 -0.72048064623E+02 -0.11017368537E+03  0.13459329832E+03  0.00000000000E+00 0. -1.
         -3    1    6    6    0  503  0.25691111712E+02 -0.59918055507E+02 -0.27979361096E+03  0.28728848103E+03  0.00000000000E+00 0.  1.
<mgrwt>
<rscale>  0 0.16111512E+04</rscale>
<asrwt>0</asrwt>
<pdfrwt beam="1">  1        2 0.74667819E-01 0.16111512E+04</pdfrwt>
<pdfrwt beam="2">  1       -1 0.20570858E+00 0.16111512E+04</pdfrwt>
<totfact> 0.95996594E+00</totfact>
</mgrwt>
</event>
<event>
12    6  0.1510140E-007  0.1150771E+04  0.7818608E-02  0.9157073E-01
         -1   -1    0    0    0  501 -0.00000000000E+00  0.00000000000E+00  0.84065127572E+03  0.84065127572E+03  0.00000000000E+00 0.  1.
          2   -1    0    0  501    0  0.00000000000E+00 -0.00000000000E+00 -0.39382360925E+03  0.39382360925E+03  0.00000000000E+00 0. -1.
         24    2    1    2    0    0  0.12500464883E+03 -0.66170445176E+02 -0.72910406946E+02  0.17811039538E+03  0.80016844832E+02 0.  0.
        254    2    1    2    0    0 -0.12500464883E+03  0.66170445176E+02  0.51973807342E+03  0.10563644896E+04  0.90872084816E+03 0.  0.
         23    2    4    4    0    0 -0.14460003614E+03 -0.46352780088E+02  0.75698500963E+03  0.77733914979E+03  0.90399658852E+02 0.  0.
         23    2    4    4    0    0  0.19595387314E+02  0.11252322526E+03 -0.23724693621E+03  0.27902533981E+03  0.92323215299E+02 0.  0.
          2    1    3    3  502    0  0.12695420767E+03 -0.44413034392E+02 -0.78273723677E+02  0.15561704369E+03  0.00000000000E+00 0. -1.
         -1    1    3    3    0  502 -0.19495588411E+01 -0.21757410785E+02  0.53633167307E+01  0.22493351686E+02  0.00000000000E+00 0.  1.
         11    1    5    5    0    0 -0.12757217988E+03 -0.60471185451E+02  0.50432790440E+03  0.52371562942E+03  0.00000000000E+00 0. -1.
        -11    1    5    5    0    0 -0.17027856259E+02  0.14118405363E+02  0.25265710524E+03  0.25362352037E+03  0.00000000000E+00 0.  1.
          2    1    6    6  503    0  0.10556248241E+02  0.15420397844E+02  0.37358976474E+01  0.19057281491E+02  0.00000000000E+00 0. -1.
         -2    1    6    6    0  503  0.90391390729E+01  0.97102827420E+02 -0.24098283386E+03  0.25996805832E+03  0.00000000000E+00 0.  1.
<mgrwt>
<rscale>  0 0.11507707E+04</rscale>
<asrwt>0</asrwt>
<pdfrwt beam="1">  1        2 0.60588248E-01 0.11507707E+04</pdfrwt>
<pdfrwt beam="2">  1       -1 0.12933096E+00 0.11507707E+04</pdfrwt>
<totfact> 0.47126066E+01</totfact>
</mgrwt>
</event>
<event>
12    6  0.1510140E-007  0.2609087E+04  0.7818608E-02  0.8365121E-01
         -1   -1    0    0    0  501 -0.00000000000E+00  0.00000000000E+00  0.63426320758E+03  0.63426320758E+03  0.00000000000E+00 0.  1.
          2   -1    0    0  501    0  0.00000000000E+00 -0.00000000000E+00 -0.26831669277E+04  0.26831669277E+04  0.00000000000E+00 0. -1.
         24    2    1    2    0    0  0.11144412844E+04 -0.25170904578E+03 -0.84077451347E+03  0.14208637910E+04  0.81334555890E+02 0.  0.
        254    2    1    2    0    0 -0.11144412844E+04  0.25170904578E+03 -0.12081292066E+04  0.18965663442E+04  0.91216824000E+03 0.  0.
         23    2    4    4    0    0 -0.22350461783E+03  0.41462328464E+03 -0.15429985886E+03  0.50401591688E+03  0.91415620464E+02 0.  0.
         23    2    4    4    0    0 -0.89093666658E+03 -0.16291423886E+03 -0.10538293478E+04  0.13925504274E+04  0.91275437224E+02 0.  0.
          2    1    3    3  502    0  0.93783098254E+03 -0.21766088527E+03 -0.74316356155E+03  0.12162217281E+04  0.00000000000E+00 0. -1.
         -1    1    3    3    0  502  0.17661030187E+03 -0.34048160517E+02 -0.97610951919E+02  0.20464206287E+03  0.00000000000E+00 0.  1.
         11    1    5    5    0    0 -0.28146687285E+02  0.36579574089E+02  0.11089400081E+02  0.47468684834E+02  0.00000000000E+00 0.  1.
        -11    1    5    5    0    0 -0.19535793054E+03  0.37804371055E+03 -0.16538925894E+03  0.45654723205E+03  0.00000000000E+00 0. -1.
          2    1    6    6  503    0 -0.79485821551E+03 -0.11566787229E+03 -0.92988832687E+03  0.12287680578E+04  0.00000000000E+00 0. -1.
         -2    1    6    6    0  503 -0.96078451076E+02 -0.47246366571E+02 -0.12394102089E+03  0.16378236955E+03  0.00000000000E+00 0.  1.
<mgrwt>
<rscale>  0 0.26090872E+04</rscale>
<asrwt>0</asrwt>
<pdfrwt beam="1">  1        2 0.41279491E+00 0.26090872E+04</pdfrwt>
<pdfrwt beam="2">  1       -1 0.97578956E-01 0.26090872E+04</pdfrwt>
<totfact> 0.27521076E+00</totfact>
</mgrwt>
</event>
<event>
12    6  0.1510140E-007  0.2621568E+04  0.7818608E-02  0.8360912E-01
         -1   -1    0    0    0  501 -0.00000000000E+00  0.00000000000E+00  0.11505881739E+04  0.11505881739E+04  0.00000000000E+00 0.  1.
          2   -1    0    0  501    0  0.00000000000E+00 -0.00000000000E+00 -0.14932837419E+04  0.14932837419E+04  0.00000000000E+00 0. -1.
         24    2    1    2    0    0  0.59810795357E+02  0.89699035094E+03 -0.89123947950E+03  0.12685935246E+04  0.82781035561E+02 0.  0.
        254    2    1    2    0    0 -0.59810795357E+02 -0.89699035094E+03  0.54854391153E+03  0.13752783913E+04  0.88448923662E+03 0.  0.
         23    2    4    4    0    0 -0.14735337456E+03 -0.31943190573E+03  0.67743919013E+03  0.76872309869E+03  0.90893271155E+02 0.  0.
         23    2    4    4    0    0  0.87542579201E+02 -0.57755844521E+03 -0.12889527860E+03  0.60655529258E+03  0.10028892913E+03 0.  0.
          2    1    3    3  502    0  0.12971232138E+02  0.70426172218E+03 -0.68905477355E+03  0.98536760001E+03  0.00000000000E+00 0. -1.
         -1    1    3    3    0  502  0.46839563219E+02  0.19272862876E+03 -0.20218470595E+03  0.28322592456E+03  0.00000000000E+00 0.  1.
         11    1    5    5    0    0  0.12119935158E+02 -0.31099942016E+02  0.74221246318E+02  0.81381156459E+02  0.00000000000E+00 0.  1.
        -11    1    5    5    0    0 -0.15947330972E+03 -0.28833196371E+03  0.60321794381E+03  0.68734194223E+03  0.00000000000E+00 0. -1.
          1    1    6    6  503    0  0.10362861108E+03 -0.52024351627E+03 -0.13300407057E+03  0.54688416328E+03  0.00000000000E+00 0. -1.
         -1    1    6    6    0  503 -0.16086031878E+02 -0.57314928942E+02  0.41087919676E+01  0.59671129305E+02  0.00000000000E+00 0.  1.
<mgrwt>
<rscale>  0 0.26215679E+04</rscale>
<asrwt>0</asrwt>
<pdfrwt beam="1">  1        2 0.22973596E+00 0.26215679E+04</pdfrwt>
<pdfrwt beam="2">  1       -1 0.17701357E+00 0.26215679E+04</pdfrwt>
<totfact> 0.28164479E+00</totfact>
</mgrwt>
</event>
<event>
12    6  0.1510140E-007  0.1051390E+04  0.7818608E-02  0.9253910E-01
         -1   -1    0    0    0  501 -0.00000000000E+00  0.00000000000E+00  0.25986135257E+03  0.25986135257E+03  0.00000000000E+00 0.  1.
          2   -1    0    0  501    0  0.00000000000E+00 -0.00000000000E+00 -0.10634724235E+04  0.10634724235E+04  0.00000000000E+00 0. -1.
         24    2    1    2    0    0 -0.79090784391E+02  0.75396265445E+02 -0.71701864192E+02  0.15399938261E+03  0.81453689271E+02 0.  0.
        254    2    1    2    0    0  0.79090784391E+02 -0.75396265445E+02 -0.73190920677E+03  0.11693343935E+04  0.90537941651E+03 0.  0.
         23    2    4    4    0    0 -0.46665817764E+02 -0.45645798867E+03 -0.23149949939E+03  0.52195590310E+03  0.91183071895E+02 0.  0.
         23    2    4    4    0    0  0.12575660216E+03  0.38106172322E+03 -0.50040970738E+03  0.64737849039E+03  0.87557265182E+02 0.  0.
          4    1    3    3  502    0 -0.89867613257E+02  0.71562970826E+02 -0.79893781043E+02  0.13993020744E+03  0.00000000000E+00 0. -1.
         -3    1    3    3    0  502  0.10776828866E+02  0.38332946186E+01  0.81919168511E+01  0.14069175162E+02  0.00000000000E+00 0.  1.
         11    1    5    5    0    0 -0.24987332545E+02 -0.43328756242E+03 -0.22736712836E+03  0.48995743651E+03  0.00000000000E+00 0. -1.
        -11    1    5    5    0    0 -0.21678485219E+02 -0.23170426251E+02 -0.41323710333E+01  0.31998466595E+02  0.00000000000E+00 0.  1.
          3    1    6    6  503    0  0.11489946459E+03  0.26888784456E+03 -0.31023837963E+03  0.42632195828E+03  0.00000000000E+00 0. -1.
         -3    1    6    6    0  503  0.10857137569E+02  0.11217387866E+03 -0.19017132775E+03  0.22105653211E+03  0.00000000000E+00 0.  1.
<mgrwt>
<rscale>  0 0.10513903E+04</rscale>
<asrwt>0</asrwt>
<pdfrwt beam="1">  1        2 0.16361114E+00 0.10513903E+04</pdfrwt>
<pdfrwt beam="2">  1       -1 0.39978670E-01 0.10513903E+04</pdfrwt>
<totfact> 0.15873827E+02</totfact>
</mgrwt>
</event>
<event>
12    6  0.1510140E-007  0.1758826E+04  0.7818608E-02  0.8728507E-01
          2   -1    0    0  501    0  0.00000000000E+00  0.00000000000E+00  0.54606015721E+03  0.54606015721E+03  0.00000000000E+00 0. -1.
         -1   -1    0    0    0  501 -0.00000000000E+00 -0.00000000000E+00 -0.14162678845E+04  0.14162678845E+04  0.00000000000E+00 0.  1.
         24    2    1    2    0    0 -0.22023777950E+03 -0.66308024538E+02 -0.10098505866E+04  0.10388022480E+04  0.80065408415E+02 0.  0.
        254    2    1    2    0    0  0.22023777950E+03  0.66308024538E+02  0.13964285931E+03  0.92352579368E+03  0.88345816527E+03 0.  0.
         23    2    4    4    0    0  0.60863670940E+02  0.46153123450E+03  0.33984259246E+02  0.47427734107E+03  0.84074963657E+02 0.  0.
         23    2    4    4    0    0  0.15937410856E+03 -0.39522320996E+03  0.10565860007E+03  0.44924845261E+03  0.95178465155E+02 0.  0.
          4    1    3    3  502    0 -0.86805123824E+02 -0.62413303431E+02 -0.36793376408E+03  0.38315245624E+03  0.00000000000E+00 0. -1.
         -3    1    3    3    0  502 -0.13343265568E+03 -0.38947211068E+01 -0.64191682252E+03  0.65564979180E+03  0.00000000000E+00 0.  1.
         11    1    5    5    0    0  0.80343927549E+01  0.34515971427E+03  0.24011652334E+02  0.34608718449E+03  0.00000000000E+00 0.  1.
        -11    1    5    5    0    0  0.52829278185E+02  0.11637152023E+03  0.99726069118E+01  0.12819015658E+03  0.00000000000E+00 0. -1.
          4    1    6    6  503    0  0.12437831642E+03 -0.32843100372E+03  0.12257409993E+03  0.37196948769E+03  0.00000000000E+00 0. -1.
         -4    1    6    6    0  503  0.34995792148E+02 -0.66792206242E+02 -0.16915499867E+02  0.77278964916E+02  0.00000000000E+00 0.  1.
<mgrwt>
<rscale>  0 0.17588263E+04</rscale>
<asrwt>0</asrwt>
<pdfrwt beam="1">  1        2 0.84009255E-01 0.17588263E+04</pdfrwt>
<pdfrwt beam="2">  1       -1 0.21788737E+00 0.17588263E+04</pdfrwt>
<totfact> 0.68312805E+00</totfact>
</mgrwt>
</event>
<event>
12    6  0.1510140E-007  0.2553102E+04  0.7818608E-02  0.8384308E-01
          2   -1    0    0  501    0  0.00000000000E+00  0.00000000000E+00  0.41062684421E+04  0.41062684421E+04  0.00000000000E+00 0. -1.
         -1   -1    0    0    0  501 -0.00000000000E+00 -0.00000000000E+00 -0.39685225889E+03  0.39685225889E+03  0.00000000000E+00 0.  1.
         24    2    1    2    0    0  0.23966989297E+03  0.10798098360E+04  0.13224654176E+04  0.17258929089E+04  0.79753448681E+02 0.  0.
        254    2    1    2    0    0 -0.23966989297E+03 -0.10798098360E+04  0.23869507655E+04  0.27772277921E+04  0.88996028716E+03 0.  0.
         23    2    4    4    0    0 -0.27018527214E+03 -0.38683040760E+03  0.18032963338E+04  0.18661379789E+04  0.89193290701E+02 0.  0.
         23    2    4    4    0    0  0.30515379171E+02 -0.69297942835E+03  0.58365443172E+03  0.91108981324E+03  0.90997118802E+02 0.  0.
          2    1    3    3  502    0  0.21015642110E+03  0.94404404705E+03  0.11125304140E+04  0.14741468062E+04  0.00000000000E+00 0. -1.
         -1    1    3    3    0  502  0.29513471869E+02  0.13576578890E+03  0.20993500367E+03  0.25174610270E+03  0.00000000000E+00 0.  1.
         11    1    5    5    0    0 -0.19722520969E+03 -0.21687185009E+03  0.10188789236E+04  0.10602100941E+04  0.00000000000E+00 0. -1.
        -11    1    5    5    0    0 -0.72960062448E+02 -0.16995855751E+03  0.78441741022E+03  0.80592788476E+03  0.00000000000E+00 0.  1.
          4    1    6    6  503    0  0.28964602426E+01 -0.20467483216E+03  0.12063680455E+03  0.23759927402E+03  0.00000000000E+00 0.  1.
         -4    1    6    6    0  503  0.27618918929E+02 -0.48830459619E+03  0.46301762717E+03  0.67349053921E+03  0.00000000000E+00 0. -1.
<mgrwt>
<rscale>  0 0.25531016E+04</rscale>
<asrwt>0</asrwt>
<pdfrwt beam="1">  1        2 0.63173358E+00 0.25531016E+04</pdfrwt>
<pdfrwt beam="2">  1       -1 0.61054196E-01 0.25531016E+04</pdfrwt>
<totfact> 0.77072073E-01</totfact>
</mgrwt>
</event>
<event>
12    6  0.1510140E-007  0.2085356E+04  0.7818608E-02  0.8567722E-01
         -1   -1    0    0    0  501 -0.00000000000E+00  0.00000000000E+00  0.79139691132E+03  0.79139691132E+03  0.00000000000E+00 0.  1.
          2   -1    0    0  501    0  0.00000000000E+00 -0.00000000000E+00 -0.13737444837E+04  0.13737444837E+04  0.00000000000E+00 0. -1.
         24    2    1    2    0    0  0.51220661894E+03  0.40462634615E+03  0.40892258200E+03  0.77451913636E+03  0.81142553705E+02 0.  0.
        254    2    1    2    0    0 -0.51220661894E+03 -0.40462634615E+03 -0.99127015441E+03  0.13906222587E+04  0.72466243649E+03 0.  0.
         23    2    4    4    0    0 -0.31510294477E+03 -0.33505223799E+03 -0.10548642808E+04  0.11543126559E+04  0.90272857015E+02 0.  0.
         23    2    4    4    0    0 -0.19710367417E+03 -0.69574108163E+02  0.63594126380E+02  0.23630960279E+03  0.90042215440E+02 0.  0.
          2    1    3    3  502    0  0.17878649649E+03  0.93656312707E+02  0.12741315362E+03  0.23868436889E+03  0.00000000000E+00 0. -1.
         -1    1    3    3    0  502  0.33342012245E+03  0.31097003345E+03  0.28150942839E+03  0.53583476747E+03  0.00000000000E+00 0.  1.
         11    1    5    5    0    0 -0.59150784791E+02 -0.20784436060E+02 -0.12074417797E+03  0.13605133089E+03  0.00000000000E+00 0.  1.
        -11    1    5    5    0    0 -0.25595215998E+03 -0.31426780193E+03 -0.93412010283E+03  0.10182613250E+04  0.00000000000E+00 0. -1.
          1    1    6    6  503    0 -0.15164190281E+03 -0.89605721959E+02  0.37082390910E+02  0.17999876614E+03  0.00000000000E+00 0. -1.
         -1    1    6    6    0  503 -0.45461771354E+02  0.20031613796E+02  0.26511735470E+02  0.56310836644E+02  0.00000000000E+00 0.  1.
<mgrwt>
<rscale>  0 0.20853557E+04</rscale>
<asrwt>0</asrwt>
<pdfrwt beam="1">  1        2 0.21134530E+00 0.20853557E+04</pdfrwt>
<pdfrwt beam="2">  1       -1 0.12175337E+00 0.20853557E+04</pdfrwt>
<totfact> 0.94110451E+00</totfact>
</mgrwt>
</event>
<event>
12    6  0.1510140E-007  0.1162152E+04  0.7818608E-02  0.9146646E-01
         -1   -1    0    0    0  501 -0.00000000000E+00  0.00000000000E+00  0.11080748660E+04  0.11080748660E+04  0.00000000000E+00 0.  1.
          2   -1    0    0  501    0  0.00000000000E+00 -0.00000000000E+00 -0.30471692261E+03  0.30471692261E+03  0.00000000000E+00 0. -1.
         24    2    1    2    0    0  0.14178963424E+03  0.91352577112E+02 -0.45474933016E+01  0.18432910503E+03  0.74208796924E+02 0.  0.
        254    2    1    2    0    0 -0.14178963424E+03 -0.91352577112E+02  0.80790543667E+03  0.12284626836E+04  0.90992295090E+03 0.  0.
         23    2    4    4    0    0 -0.78984354667E+02 -0.64327487702E+02  0.99711511541E+03  0.10064337972E+04  0.91070746383E+02 0.  0.
         23    2    4    4    0    0 -0.62805279577E+02 -0.27025089410E+02 -0.18920967874E+03  0.22202888634E+03  0.93923720316E+02 0.  0.
          4    1    3    3  502    0  0.88899731451E+02  0.28877892347E+02  0.25898890076E+02  0.96994058714E+02  0.00000000000E+00 0. -1.
         -3    1    3    3    0  502  0.52889902793E+02  0.62474684765E+02 -0.30446383378E+02  0.87335046315E+02  0.00000000000E+00 0.  1.
         11    1    5    5    0    0  0.93763232865E+01 -0.36906856589E+02  0.17296965560E+03  0.17711164066E+03  0.00000000000E+00 0. -1.
        -11    1    5    5    0    0 -0.88360677954E+02 -0.27420631113E+02  0.82414545981E+03  0.82932215655E+03  0.00000000000E+00 0.  1.
          1    1    6    6  503    0  0.13346390572E+02  0.18997683516E+02 -0.19141440848E+02  0.30090411729E+02  0.00000000000E+00 0. -1.
         -1    1    6    6    0  503 -0.76151670150E+02 -0.46022772927E+02 -0.17006823790E+03  0.19193847461E+03  0.00000000000E+00 0.  1.
<mgrwt>
<rscale>  0 0.11621517E+04</rscale>
<asrwt>0</asrwt>
<pdfrwt beam="1">  1        2 0.46879527E-01 0.11621517E+04</pdfrwt>
<pdfrwt beam="2">  1       -1 0.17047305E+00 0.11621517E+04</pdfrwt>
<totfact> 0.29850590E+01</totfact>
</mgrwt>
</event>
<event>
12    6  0.1510140E-007  0.2007289E+04  0.7818608E-02  0.8603221E-01
         -1   -1    0    0    0  501 -0.00000000000E+00  0.00000000000E+00  0.63262116817E+03  0.63262116817E+03  0.00000000000E+00 0.  1.
          2   -1    0    0  501    0  0.00000000000E+00 -0.00000000000E+00 -0.15922670968E+04  0.15922670968E+04  0.00000000000E+00 0. -1.
         24    2    1    2    0    0 -0.26823653122E+03 -0.70656488582E+03 -0.69212911080E+03  0.10280863097E+04  0.82060829057E+02 0.  0.
        254    2    1    2    0    0  0.26823653122E+03  0.70656488582E+03 -0.26751681784E+03  0.11968019553E+04  0.88858589778E+03 0.  0.
         23    2    4    4    0    0  0.41341752106E+03  0.48571374115E+03  0.17958030377E+03  0.66928782254E+03  0.94155291042E+02 0.  0.
         23    2    4    4    0    0 -0.14518098984E+03  0.22085114468E+03 -0.44709712161E+03  0.52751413272E+03  0.92317799781E+02 0.  0.
          2    1    3    3  502    0 -0.82687371034E+01 -0.66379666843E+02 -0.85975781121E+02  0.10893331503E+03  0.00000000000E+00 0. -1.
         -1    1    3    3    0  502 -0.25996779412E+03 -0.64018521898E+03 -0.60615332968E+03  0.91915299470E+03  0.00000000000E+00 0.  1.
         11    1    5    5    0    0  0.33752543753E+03  0.34872926124E+03  0.10845712371E+03  0.49729112832E+03  0.00000000000E+00 0.  1.
        -11    1    5    5    0    0  0.75892083534E+02  0.13698447991E+03  0.71123180060E+02  0.17199669421E+03  0.00000000000E+00 0. -1.
          3    1    6    6  503    0  0.82356275135E+01  0.13957465149E+02 -0.71461004536E+01  0.17711666935E+02  0.00000000000E+00 0. -1.
         -3    1    6    6    0  503 -0.15341661735E+03  0.20689367953E+03 -0.43995102116E+03  0.50980246579E+03  0.00000000000E+00 0.  1.
<mgrwt>
<rscale>  0 0.20072886E+04</rscale>
<asrwt>0</asrwt>
<pdfrwt beam="1">  1        2 0.24496417E+00 0.20072886E+04</pdfrwt>
<pdfrwt beam="2">  1       -1 0.97326335E-01 0.20072886E+04</pdfrwt>
<totfact> 0.12078528E+01</totfact>
</mgrwt>
</event>
<event>
12    6  0.1510140E-007  0.1352827E+04  0.7818608E-02  0.8988691E-01
          2   -1    0    0  501    0  0.00000000000E+00  0.00000000000E+00  0.17387921717E+04  0.17387921717E+04  0.00000000000E+00 0. -1.
         -1   -1    0    0    0  501 -0.00000000000E+00 -0.00000000000E+00 -0.26313391248E+03  0.26313391248E+03  0.00000000000E+00 0.  1.
         24    2    1    2    0    0  0.36031992824E+03 -0.13285304922E+02  0.49270165725E+03  0.61568749740E+03  0.79430607366E+02 0.  0.
        254    2    1    2    0    0 -0.36031992824E+03  0.13285304922E+02  0.98295660195E+03  0.13862385868E+04  0.90854102168E+03 0.  0.
         23    2    4    4    0    0  0.26209328851E+03 -0.13706545401E+03  0.45386288088E+03  0.55068639738E+03  0.98914928359E+02 0.  0.
         23    2    4    4    0    0 -0.62241321675E+03  0.15035075893E+03  0.52909372107E+03  0.83555218938E+03  0.90574457800E+02 0.  0.
          4    1    3    3  502    0  0.24880900800E+03  0.36249665132E+01  0.39298779628E+03  0.46514349493E+03  0.00000000000E+00 0. -1.
         -3    1    3    3    0  502  0.11151092024E+03 -0.16910271435E+02  0.99713860966E+02  0.15054400247E+03  0.00000000000E+00 0.  1.
         11    1    5    5    0    0  0.14409032952E+03 -0.12864239083E+03  0.26765643595E+03  0.33007704477E+03  0.00000000000E+00 0. -1.
        -11    1    5    5    0    0  0.11800295899E+03 -0.84230631762E+01  0.18620644493E+03  0.22060935260E+03  0.00000000000E+00 0.  1.
          1    1    6    6  503    0 -0.28669332689E+03  0.96148064433E+02  0.29689052050E+03  0.42377056899E+03  0.00000000000E+00 0. -1.
         -1    1    6    6    0  503 -0.33571988986E+03  0.54202694500E+02  0.23220320057E+03  0.41178162039E+03  0.00000000000E+00 0.  1.
<mgrwt>
<rscale>  0 0.13528269E+04</rscale>
<asrwt>0</asrwt>
<pdfrwt beam="1">  1        2 0.26750648E+00 0.13528269E+04</pdfrwt>
<pdfrwt beam="2">  1       -1 0.40482142E-01 0.13528269E+04</pdfrwt>
<totfact> 0.61859673E+01</totfact>
</mgrwt>
</event>
<event>
12    6  0.1510140E-007  0.1653295E+04  0.7818608E-02  0.8788460E-01
         -1   -1    0    0    0  501 -0.00000000000E+00  0.00000000000E+00  0.47120850814E+03  0.47120850814E+03  0.00000000000E+00 0.  1.
          2   -1    0    0  501    0  0.00000000000E+00 -0.00000000000E+00 -0.14501983977E+04  0.14501983977E+04  0.00000000000E+00 0. -1.
         24    2    1    2    0    0  0.28772871165E+03 -0.32527291709E+03  0.96316635162E+02  0.45194816075E+03  0.79937248504E+02 0.  0.
        254    2    1    2    0    0 -0.28772871165E+03  0.32527291709E+03 -0.10753065248E+04  0.14694587451E+04  0.90246030347E+03 0.  0.
         23    2    4    4    0    0  0.22669335174E+03  0.40306401159E+03 -0.56173461340E+03  0.73321364929E+03  0.90587010362E+02 0.  0.
         23    2    4    4    0    0 -0.51442206339E+03 -0.77791094500E+02 -0.51357191136E+03  0.73624509584E+03  0.87288139644E+02 0.  0.
          4    1    3    3  502    0  0.20303252122E+03 -0.22924303002E+03  0.29840893510E+02  0.30767686038E+03  0.00000000000E+00 0. -1.
         -3    1    3    3    0  502  0.84696190429E+02 -0.96029887075E+02  0.66475741651E+02  0.14427130038E+03  0.00000000000E+00 0.  1.
         11    1    5    5    0    0  0.20138276299E+03  0.31926807647E+03 -0.40460308262E+03  0.55334507891E+03  0.00000000000E+00 0. -1.
        -11    1    5    5    0    0  0.25310588745E+02  0.83795935123E+02 -0.15713153078E+03  0.17986857039E+03  0.00000000000E+00 0.  1.
          4    1    6    6  503    0 -0.39433482775E+03 -0.21628117630E+02 -0.38039828143E+03  0.54833437277E+03  0.00000000000E+00 0. -1.
         -4    1    6    6    0  503 -0.12008723564E+03 -0.56162976870E+02 -0.13317362993E+03  0.18791072307E+03  0.00000000000E+00 0.  1.
<mgrwt>
<rscale>  0 0.16532947E+04</rscale>
<asrwt>0</asrwt>
<pdfrwt beam="1">  1        2 0.22310745E+00 0.16532947E+04</pdfrwt>
<pdfrwt beam="2">  1       -1 0.72493616E-01 0.16532947E+04</pdfrwt>
<totfact> 0.28296154E+01</totfact>
</mgrwt>
</event>
<event>
12    6  0.1510140E-007  0.1762956E+04  0.7818608E-02  0.8726251E-01
          2   -1    0    0  501    0  0.00000000000E+00  0.00000000000E+00  0.34517702636E+03  0.34517702636E+03  0.00000000000E+00 0. -1.
         -1   -1    0    0    0  501 -0.00000000000E+00 -0.00000000000E+00 -0.22510285833E+04  0.22510285833E+04  0.00000000000E+00 0.  1.
         24    2    1    2    0    0 -0.56887815917E+03 -0.43694760467E+02 -0.11690390828E+04  0.13031485759E+04  0.77538646595E+02 0.  0.
        254    2    1    2    0    0  0.56887815917E+03  0.43694760467E+02 -0.73681247417E+03  0.12930570338E+04  0.89642193102E+03 0.  0.
         23    2    4    4    0    0  0.58180340695E+03  0.12631143274E+02 -0.91596687904E+03  0.10891163955E+04  0.92327944491E+02 0.  0.
         23    2    4    4    0    0 -0.12925247784E+02  0.31063617193E+02  0.17915440487E+03  0.20394063827E+03  0.91452024628E+02 0.  0.
          4    1    3    3  502    0 -0.80896164996E+02 -0.93169824588E+01 -0.23584996747E+03  0.24951192923E+03  0.00000000000E+00 0. -1.
         -3    1    3    3    0  502 -0.48798199417E+03 -0.34377778008E+02 -0.93318911533E+03  0.10536366467E+04  0.00000000000E+00 0.  1.
         11    1    5    5    0    0  0.48413071410E+03  0.24983493028E+02 -0.81370549474E+03  0.94716595982E+03  0.00000000000E+00 0. -1.
        -11    1    5    5    0    0  0.97672692851E+02 -0.12352349754E+02 -0.10226138429E+03  0.14195043568E+03  0.00000000000E+00 0.  1.
          3    1    6    6  503    0  0.19409574140E+02 -0.17587846278E+02  0.16118127405E+02  0.30754803462E+02  0.00000000000E+00 0. -1.
         -3    1    6    6    0  503 -0.32334821924E+02  0.48651463471E+02  0.16303627747E+03  0.17318583480E+03  0.00000000000E+00 0.  1.
<mgrwt>
<rscale>  0 0.17629559E+04</rscale>
<asrwt>0</asrwt>
<pdfrwt beam="1">  1        2 0.53104160E-01 0.17629559E+04</pdfrwt>
<pdfrwt beam="2">  1       -1 0.34631208E+00 0.17629559E+04</pdfrwt>
<totfact> 0.16753573E+00</totfact>
</mgrwt>
</event>
<event>
12    6  0.1510140E-007  0.1414201E+04  0.7818608E-02  0.8943603E-01
          2   -1    0    0  501    0  0.00000000000E+00  0.00000000000E+00  0.42217898520E+03  0.42217898520E+03  0.00000000000E+00 0. -1.
         -1   -1    0    0    0  501 -0.00000000000E+00 -0.00000000000E+00 -0.11843111658E+04  0.11843111658E+04  0.00000000000E+00 0.  1.
         24    2    1    2    0    0  0.67230752812E+02 -0.92995241967E+02  0.22598534803E+03  0.26486177920E+03  0.76904456329E+02 0.  0.
        254    2    1    2    0    0 -0.67230752812E+02  0.92995241967E+02 -0.98811752865E+03  0.13416283718E+04  0.90023460746E+03 0.  0.
         23    2    4    4    0    0 -0.27421125246E+03  0.41654838276E+03 -0.63246461265E+03  0.81071812416E+03  0.92455526791E+02 0.  0.
         23    2    4    4    0    0  0.20698049965E+03 -0.32355314079E+03 -0.35565291600E+03  0.53091024765E+03  0.88595328584E+02 0.  0.
          2    1    3    3  502    0  0.24661493140E+02 -0.84155516623E+02  0.18667813387E+03  0.20625000821E+03  0.00000000000E+00 0. -1.
         -1    1    3    3    0  502  0.42569259672E+02 -0.88397253448E+01  0.39307214162E+02  0.58611770988E+02  0.00000000000E+00 0.  1.
         11    1    5    5    0    0 -0.21736308581E+03  0.38442576137E+03 -0.55980622023E+03  0.71303077163E+03  0.00000000000E+00 0. -1.
        -11    1    5    5    0    0 -0.56848166648E+02  0.32122621391E+02 -0.72658392413E+02  0.97687352530E+02  0.00000000000E+00 0.  1.
          2    1    6    6  503    0  0.83600401616E+02 -0.18949531032E+03 -0.23044193836E+03  0.30984026004E+03  0.00000000000E+00 0. -1.
         -2    1    6    6    0  503  0.12338009803E+03 -0.13405783047E+03 -0.12521097764E+03  0.22106998761E+03  0.00000000000E+00 0.  1.
<mgrwt>
<rscale>  0 0.14142012E+04</rscale>
<asrwt>0</asrwt>
<pdfrwt beam="1">  1        2 0.64950613E-01 0.14142012E+04</pdfrwt>
<pdfrwt beam="2">  1       -1 0.18220172E+00 0.14142012E+04</pdfrwt>
<totfact> 0.16695533E+01</totfact>
</mgrwt>
</event>
<event>
12    6  0.1510140E-007  0.2150028E+04  0.7818608E-02  0.8539520E-01
          2   -1    0    0  501    0  0.00000000000E+00  0.00000000000E+00  0.52366129131E+04  0.52366129131E+04  0.00000000000E+00 0. -1.
         -1   -1    0    0    0  501 -0.00000000000E+00 -0.00000000000E+00 -0.22068747028E+03  0.22068747028E+03  0.00000000000E+00 0.  1.
         24    2    1    2    0    0  0.53773303621E+03  0.10657801576E+02  0.33348662873E+03  0.63782717198E+03  0.79622627519E+02 0.  0.
        254    2    1    2    0    0 -0.53773303621E+03 -0.10657801576E+02  0.46824388141E+04  0.48194732114E+04  0.10063887821E+04 0.  0.
         23    2    4    4    0    0 -0.80016285394E+03 -0.16247533070E+03  0.35196128939E+04  0.36141842770E+04  0.89410512494E+02 0.  0.
         23    2    4    4    0    0  0.26242981773E+03  0.15181752912E+03  0.11628259202E+04  0.12052889343E+04  0.92947959485E+02 0.  0.
          2    1    3    3  502    0  0.23107682115E+03  0.27974961007E+02  0.10684684061E+03  0.25611587819E+03  0.00000000000E+00 0. -1.
         -1    1    3    3    0  502  0.30665621506E+03 -0.17317159431E+02  0.22663978812E+03  0.38171129379E+03  0.00000000000E+00 0.  1.
         11    1    5    5    0    0 -0.76043445627E+03 -0.14837613786E+03  0.32361095133E+04  0.33275637969E+04  0.00000000000E+00 0.  1.
        -11    1    5    5    0    0 -0.39728397672E+02 -0.14099192836E+02  0.28350338054E+03  0.28662048008E+03  0.00000000000E+00 0. -1.
          4    1    6    6  503    0  0.32654972589E+02  0.62255809783E+02  0.27589915318E+03  0.28471472707E+03  0.00000000000E+00 0. -1.
         -4    1    6    6    0  503  0.22977484514E+03  0.89561719340E+02  0.88692676703E+03  0.92057420728E+03  0.00000000000E+00 0.  1.
<mgrwt>
<rscale>  0 0.21500278E+04</rscale>
<asrwt>0</asrwt>
<pdfrwt beam="1">  1        2 0.80563267E+00 0.21500278E+04</pdfrwt>
<pdfrwt beam="2">  1       -1 0.33951922E-01 0.21500278E+04</pdfrwt>
<totfact> 0.14287369E-01</totfact>
</mgrwt>
</event>
<event>
12    6  0.1510140E-007  0.1367572E+04  0.7818608E-02  0.8977632E-01
         -1   -1    0    0    0  501 -0.00000000000E+00  0.00000000000E+00  0.28467343844E+04  0.28467343844E+04  0.00000000000E+00 0.  1.
          2   -1    0    0  501    0  0.00000000000E+00 -0.00000000000E+00 -0.16424544520E+03  0.16424544520E+03  0.00000000000E+00 0. -1.
         24    2    1    2    0    0  0.17456284558E+03  0.30444640312E+03  0.39945504795E+03  0.53776917463E+03  0.80445947135E+02 0.  0.
        254    2    1    2    0    0 -0.17456284558E+03 -0.30444640312E+03  0.22830338912E+04  0.24732106550E+04  0.88394988314E+03 0.  0.
         23    2    4    4    0    0 -0.44798818983E+03 -0.43424926732E+03  0.13986021296E+04  0.15340311260E+04  0.88869198024E+02 0.  0.
         23    2    4    4    0    0  0.27342534425E+03  0.12980286419E+03  0.88443176162E+03  0.93917952891E+03  0.90710771860E+02 0.  0.
          2    1    3    3  502    0  0.13639452082E+03  0.28591707680E+03  0.36339585427E+03  0.48208773788E+03  0.00000000000E+00 0. -1.
         -1    1    3    3    0  502  0.38168324758E+02  0.18529326326E+02  0.36059193688E+02  0.55681436748E+02  0.00000000000E+00 0.  1.
         11    1    5    5    0    0 -0.44424348451E+03 -0.43374000887E+03  0.13986378547E+04  0.15302517824E+04  0.00000000000E+00 0.  1.
        -11    1    5    5    0    0 -0.37447053191E+01 -0.50925844177E+00 -0.35725139840E-01  0.37793436432E+01  0.00000000000E+00 0. -1.
          2    1    6    6  503    0  0.16968147328E+03  0.58882993184E+02  0.63452412785E+03  0.65945422744E+03  0.00000000000E+00 0. -1.
         -2    1    6    6    0  503  0.10374387097E+03  0.70919871010E+02  0.24990763377E+03  0.27972530148E+03  0.00000000000E+00 0.  1.
<mgrwt>
<rscale>  0 0.13675718E+04</rscale>
<asrwt>0</asrwt>
<pdfrwt beam="1">  1        2 0.25268532E-01 0.13675718E+04</pdfrwt>
<pdfrwt beam="2">  1       -1 0.43795910E+00 0.13675718E+04</pdfrwt>
<totfact> 0.96020389E-01</totfact>
</mgrwt>
</event>
<event>
12    6  0.1510140E-007  0.2035981E+04  0.7818608E-02  0.8589981E-01
          2   -1    0    0  501    0  0.00000000000E+00  0.00000000000E+00  0.25037040149E+04  0.25037040149E+04  0.00000000000E+00 0. -1.
         -1   -1    0    0    0  501 -0.00000000000E+00 -0.00000000000E+00 -0.41390861156E+03  0.41390861156E+03  0.00000000000E+00 0.  1.
         24    2    1    2    0    0 -0.71073862465E+03 -0.59074795382E+02  0.27836939812E+03  0.77121415704E+03  0.92965209581E+02 0.  0.
        254    2    1    2    0    0  0.71073862465E+03  0.59074795382E+02  0.18114260052E+04  0.21463984694E+04  0.90394855669E+03 0.  0.
         23    2    4    4    0    0 -0.37070479148E+02 -0.25298033791E+01 -0.67823922613E+02  0.12084905531E+03  0.92864360019E+02 0.  0.
         23    2    4    4    0    0  0.74780910380E+03  0.61604598761E+02  0.18792499279E+04  0.20255494141E+04  0.90865589930E+02 0.  0.
          2    1    3    3  502    0 -0.46464667628E+03 -0.36290824165E+02  0.13378305485E+03  0.48488293789E+03  0.00000000000E+00 0. -1.
         -1    1    3    3    0  502 -0.24609194837E+03 -0.22783971217E+02  0.14458634328E+03  0.28633121915E+03  0.00000000000E+00 0.  1.
         11    1    5    5    0    0 -0.55139433507E+02 -0.11048448341E+02 -0.79750204088E+02  0.97583402228E+02  0.00000000000E+00 0.  1.
        -11    1    5    5    0    0  0.18068954359E+02  0.85186449618E+01  0.11926281475E+02  0.23265653084E+02  0.00000000000E+00 0. -1.
          3    1    6    6  503    0  0.12454227670E+03 -0.23570258923E+02  0.31104882043E+03  0.33588346860E+03  0.00000000000E+00 0. -1.
         -3    1    6    6    0  503  0.62326682710E+03  0.85174857683E+02  0.15682011074E+04  0.16896659455E+04  0.00000000000E+00 0.  1.
<mgrwt>
<rscale>  0 0.20359810E+04</rscale>
<asrwt>0</asrwt>
<pdfrwt beam="1">  1        2 0.38518522E+00 0.20359810E+04</pdfrwt>
<pdfrwt beam="2">  1       -1 0.63678249E-01 0.20359810E+04</pdfrwt>
<totfact> 0.91396264E+00</totfact>
</mgrwt>
</event>
<event>
12    6  0.1510140E-007  0.1336567E+04  0.7818608E-02  0.9001059E-01
          2   -1    0    0  501    0  0.00000000000E+00  0.00000000000E+00  0.55397599349E+03  0.55397599349E+03  0.00000000000E+00 0. -1.
         -1   -1    0    0    0  501 -0.00000000000E+00 -0.00000000000E+00 -0.80617754113E+03  0.80617754113E+03  0.00000000000E+00 0.  1.
         24    2    1    2    0    0 -0.31788166352E+03 -0.14252415104E+03 -0.67621913322E+02  0.36404618554E+03  0.81209706438E+02 0.  0.
        254    2    1    2    0    0  0.31788166352E+03  0.14252415104E+03 -0.18457963432E+03  0.99610734908E+03  0.91476681393E+03 0.  0.
         23    2    4    4    0    0  0.46658363943E+03 -0.12226243942E+03 -0.38213859664E+03  0.62167764948E+03  0.88344757278E+02 0.  0.
         23    2    4    4    0    0 -0.14870197592E+03  0.26478659046E+03  0.19755896232E+03  0.37442969961E+03  0.94571878626E+02 0.  0.
          4    1    3    3  502    0  0.39327068637E+01  0.23655318469E+01 -0.22678401705E+01  0.51190842182E+01  0.00000000000E+00 0. -1.
         -1    1    3    3    0  502 -0.32181437038E+03 -0.14488968289E+03 -0.65354073151E+02  0.35892710133E+03  0.00000000000E+00 0.  1.
         11    1    5    5    0    0  0.73345588374E+02 -0.50040122552E+02 -0.49995877254E+02  0.10189787506E+03  0.00000000000E+00 0.  1.
        -11    1    5    5    0    0  0.39323805106E+03 -0.72222316866E+02 -0.33214271939E+03  0.51977977442E+03  0.00000000000E+00 0. -1.
          4    1    6    6  503    0 -0.15568611994E+03  0.25072660212E+03  0.20255680350E+03  0.35795426467E+03  0.00000000000E+00 0. -1.
         -4    1    6    6    0  503  0.69841440262E+01  0.14059988336E+02 -0.49978411788E+01  0.16475434933E+02  0.00000000000E+00 0.  1.
<mgrwt>
<rscale>  0 0.13365673E+04</rscale>
<asrwt>0</asrwt>
<pdfrwt beam="1">  1        2 0.85227076E-01 0.13365673E+04</pdfrwt>
<pdfrwt beam="2">  1       -1 0.12402731E+00 0.13365673E+04</pdfrwt>
<totfact> 0.34820775E+01</totfact>
</mgrwt>
</event>
<event>
12    6  0.1510140E-007  0.1501171E+04  0.7818608E-02  0.8883674E-01
          2   -1    0    0  501    0  0.00000000000E+00  0.00000000000E+00  0.17829832203E+04  0.17829832203E+04  0.00000000000E+00 0. -1.
         -1   -1    0    0    0  501 -0.00000000000E+00 -0.00000000000E+00 -0.31597546062E+03  0.31597546062E+03  0.00000000000E+00 0.  1.
         24    2    1    2    0    0  0.93836060027E+02  0.86260919314E+02  0.11242251942E+04  0.11339325522E+04  0.75329896972E+02 0.  0.
        254    2    1    2    0    0 -0.93836060027E+02 -0.86260919314E+02  0.34278256552E+03  0.96502612873E+03  0.89304500981E+03 0.  0.
         23    2    4    4    0    0  0.79640138862E+02  0.36856736379E+03  0.24835414333E+03  0.46065970283E+03  0.91340724407E+02 0.  0.
         23    2    4    4    0    0 -0.17347619889E+03 -0.45482828310E+03  0.94428422191E+02  0.50436642590E+03  0.92228010773E+02 0.  0.
          4    1    3    3  502    0  0.91555389888E+02  0.60288643994E+02  0.10400709407E+04  0.10458320476E+04  0.00000000000E+00 0. -1.
         -3    1    3    3    0  502  0.22806701387E+01  0.25972275320E+02  0.84154253473E+02  0.88100504647E+02  0.00000000000E+00 0.  1.
         11    1    5    5    0    0  0.55294334684E+02  0.26169040171E+03  0.12376783519E+03  0.29471648549E+03  0.00000000000E+00 0. -1.
        -11    1    5    5    0    0  0.24345804178E+02  0.10687696208E+03  0.12458630814E+03  0.16594321733E+03  0.00000000000E+00 0.  1.
          2    1    6    6  503    0 -0.14850045549E+03 -0.36618370143E+03  0.39462437624E+02  0.39711481017E+03  0.00000000000E+00 0. -1.
         -2    1    6    6    0  503 -0.24975743399E+02 -0.88644581676E+02  0.54965984566E+02  0.10725161574E+03  0.00000000000E+00 0.  1.
<mgrwt>
<rscale>  0 0.15011715E+04</rscale>
<asrwt>0</asrwt>
<pdfrwt beam="1">  1        2 0.27430510E+00 0.15011715E+04</pdfrwt>
<pdfrwt beam="2">  1       -1 0.48611610E-01 0.15011715E+04</pdfrwt>
<totfact> 0.41100698E+01</totfact>
</mgrwt>
</event>
<event>
12    6  0.1510140E-007  0.1270209E+04  0.7818608E-02  0.9053529E-01
          2   -1    0    0  501    0  0.00000000000E+00  0.00000000000E+00  0.54288290134E+03  0.54288290134E+03  0.00000000000E+00 0. -1.
         -1   -1    0    0    0  501 -0.00000000000E+00 -0.00000000000E+00 -0.74299218099E+03  0.74299218099E+03  0.00000000000E+00 0.  1.
         24    2    1    2    0    0  0.16806715760E+03 -0.28100328207E+03 -0.46649316558E+02  0.33848926551E+03  0.72037560563E+02 0.  0.
        254    2    1    2    0    0 -0.16806715760E+03  0.28100328207E+03 -0.15345996310E+03  0.94738581682E+03  0.87566004342E+03 0.  0.
         23    2    4    4    0    0 -0.14874523346E+03  0.35776141688E+03  0.28744259714E+03  0.49169799543E+03  0.95001558809E+02 0.  0.
         23    2    4    4    0    0 -0.19321924144E+02 -0.76758134811E+02 -0.44090256024E+03  0.45568782139E+03  0.83613246117E+02 0.  0.
          2    1    3    3  502    0  0.11455490475E+03 -0.16415173125E+03  0.43496736464E+01  0.20021872224E+03  0.00000000000E+00 0. -1.
         -1    1    3    3    0  502  0.53512252851E+02 -0.11685155082E+03 -0.50998990204E+02  0.13827054327E+03  0.00000000000E+00 0.  1.
         11    1    5    5    0    0 -0.14944822723E+03  0.27966715476E+03  0.25589770313E+03  0.40747039713E+03  0.00000000000E+00 0.  1.
        -11    1    5    5    0    0  0.70299377130E+00  0.78094262126E+02  0.31544894004E+02  0.84227598297E+02  0.00000000000E+00 0. -1.
          4    1    6    6  503    0 -0.29437551810E+02  0.74088323847E+01 -0.11861502511E+03  0.12243767572E+03  0.00000000000E+00 0. -1.
         -4    1    6    6    0  503  0.10115627667E+02 -0.84166967195E+02 -0.32228753513E+03  0.33325014567E+03  0.00000000000E+00 0.  1.
<mgrwt>
<rscale>  0 0.12702090E+04</rscale>
<asrwt>0</asrwt>
<pdfrwt beam="1">  1        2 0.83520446E-01 0.12702090E+04</pdfrwt>
<pdfrwt beam="2">  1       -1 0.11430649E+00 0.12702090E+04</pdfrwt>
<totfact> 0.43739367E+01</totfact>
</mgrwt>
</event>
<event>
12    6  0.1510140E-007  0.1736596E+04  0.7818608E-02  0.8740763E-01
          2   -1    0    0  501    0  0.00000000000E+00  0.00000000000E+00  0.54958610400E+03  0.54958610400E+03  0.00000000000E+00 0. -1.
         -1   -1    0    0    0  501 -0.00000000000E+00 -0.00000000000E+00 -0.13718355076E+04  0.13718355076E+04  0.00000000000E+00 0.  1.
         24    2    1    2    0    0 -0.33577354542E+03 -0.31602637088E+03  0.15995756042E+03  0.49444518118E+03  0.79202747243E+02 0.  0.
        254    2    1    2    0    0  0.33577354542E+03  0.31602637088E+03 -0.98220696402E+03  0.14269764304E+04  0.92677649513E+03 0.  0.
         23    2    4    4    0    0  0.39124988888E+03  0.58808296346E+03 -0.84120949939E+03  0.11022496044E+04  0.91666356892E+02 0.  0.
         23    2    4    4    0    0 -0.55476343466E+02 -0.27205659258E+03 -0.14099746462E+03  0.32472682606E+03  0.92058743656E+02 0.  0.
          4    1    3    3  502    0 -0.14737406379E+03 -0.12680582228E+03  0.10805549877E+03  0.22242936420E+03  0.00000000000E+00 0. -1.
         -3    1    3    3    0  502 -0.18839948163E+03 -0.18922054859E+03  0.51902061642E+02  0.27201581698E+03  0.00000000000E+00 0.  1.
         11    1    5    5    0    0  0.28007294016E+03  0.37747399340E+03 -0.61246482018E+03  0.77203667235E+03  0.00000000000E+00 0.  1.
        -11    1    5    5    0    0  0.11117694872E+03  0.21060897006E+03 -0.22874467922E+03  0.33021293201E+03  0.00000000000E+00 0. -1.
          3    1    6    6  503    0  0.59743006878E+01 -0.16546993124E+03 -0.10678859292E+03  0.19702739401E+03  0.00000000000E+00 0. -1.
         -3    1    6    6    0  503 -0.61450644154E+02 -0.10658666134E+03 -0.34208871700E+02  0.12769943205E+03  0.00000000000E+00 0.  1.
<mgrwt>
<rscale>  0 0.17365964E+04</rscale>
<asrwt>0</asrwt>
<pdfrwt beam="1">  1        2 0.84551710E-01 0.17365964E+04</pdfrwt>
<pdfrwt beam="2">  1       -1 0.21105161E+00 0.17365964E+04</pdfrwt>
<totfact> 0.75532084E+00</totfact>
</mgrwt>
</event>
<event>
12    6  0.1510140E-007  0.1726187E+04  0.7818608E-02  0.8746568E-01
         -1   -1    0    0    0  501 -0.00000000000E+00  0.00000000000E+00  0.25334947419E+03  0.25334947419E+03  0.00000000000E+00 0.  1.
          2   -1    0    0  501    0  0.00000000000E+00 -0.00000000000E+00 -0.29403267803E+04  0.29403267803E+04  0.00000000000E+00 0. -1.
         24    2    1    2    0    0  0.68031473391E+02  0.38286002704E+03 -0.73217906213E+02  0.40358783934E+03  0.79449358713E+02 0.  0.
        254    2    1    2    0    0 -0.68031473391E+02 -0.38286002704E+03 -0.26137593999E+04  0.27900884152E+04  0.89534634758E+03 0.  0.
         23    2    4    4    0    0  0.15030755081E+03  0.24675752424E+03 -0.84586069489E+03  0.89862470240E+03  0.92544070562E+02 0.  0.
         23    2    4    4    0    0 -0.21833902420E+03 -0.62961755128E+03 -0.17678987050E+04  0.18914637128E+04  0.89883008023E+02 0.  0.
          2    1    3    3  502    0  0.79477753271E+02  0.24189779803E+03 -0.59640032096E+02  0.26151135996E+03  0.00000000000E+00 0. -1.
         -1    1    3    3    0  502 -0.11446279880E+02  0.14096222900E+03 -0.13577874116E+02  0.14207647938E+03  0.00000000000E+00 0.  1.
         11    1    5    5    0    0  0.16074884196E+03  0.22076823857E+03 -0.79448706886E+03  0.84011219961E+03  0.00000000000E+00 0.  1.
        -11    1    5    5    0    0 -0.10441291146E+02  0.25989285676E+02 -0.51373626036E+02  0.58512502790E+02  0.00000000000E+00 0. -1.
          3    1    6    6  503    0 -0.55062486565E+02 -0.25058180963E+03 -0.76883682727E+03  0.81051415022E+03  0.00000000000E+00 0. -1.
         -3    1    6    6    0  503 -0.16327653764E+03 -0.37903574165E+03 -0.99906187776E+03  0.10809495626E+04  0.00000000000E+00 0.  1.
<mgrwt>
<rscale>  0 0.17261868E+04</rscale>
<asrwt>0</asrwt>
<pdfrwt beam="1">  1        2 0.45235797E+00 0.17261868E+04</pdfrwt>
<pdfrwt beam="2">  1       -1 0.38976842E-01 0.17261868E+04</pdfrwt>
<totfact> 0.13152957E+01</totfact>
</mgrwt>
</event>
<event>
12    6  0.1510140E-007  0.2072867E+04  0.7818608E-02  0.8573291E-01
         -1   -1    0    0    0  501 -0.00000000000E+00  0.00000000000E+00  0.34097010597E+03  0.34097010597E+03  0.00000000000E+00 0.  1.
          2   -1    0    0  501    0  0.00000000000E+00 -0.00000000000E+00 -0.31504065069E+04  0.31504065069E+04  0.00000000000E+00 0. -1.
         24    2    1    2    0    0  0.41536956871E+03 -0.67148823738E+03 -0.69984063911E+03  0.10580901280E+04  0.79683544860E+02 0.  0.
        254    2    1    2    0    0 -0.41536956871E+03  0.67148823738E+03 -0.21095957618E+04  0.24332864848E+04  0.92035890144E+03 0.  0.
         23    2    4    4    0    0 -0.91093214153E+01  0.58461138877E+03 -0.18336633557E+04  0.19266630451E+04  0.88632564090E+02 0.  0.
         23    2    4    4    0    0 -0.40626024730E+03  0.86876848613E+02 -0.27593240605E+03  0.50662343975E+03  0.89070992115E+02 0.  0.
          2    1    3    3  502    0  0.10998381799E+02 -0.55576528775E+02 -0.55167597607E+02  0.79077043309E+02  0.00000000000E+00 0. -1.
         -1    1    3    3    0  502  0.40437118691E+03 -0.61591170861E+03 -0.64467304150E+03  0.97901308472E+03  0.00000000000E+00 0.  1.
         11    1    5    5    0    0  0.27243918827E+02  0.24286290877E+03 -0.86392931224E+03  0.89782987259E+03  0.00000000000E+00 0. -1.
        -11    1    5    5    0    0 -0.36353240242E+02  0.34174848000E+03 -0.96973404350E+03  0.10288331725E+04  0.00000000000E+00 0.  1.
          1    1    6    6  503    0 -0.11353993959E+03  0.65939848489E+02 -0.79766458281E+02  0.15362965003E+03  0.00000000000E+00 0. -1.
         -1    1    6    6    0  503 -0.29272030770E+03  0.20937000124E+02 -0.19616594777E+03  0.35299378972E+03  0.00000000000E+00 0.  1.
<mgrwt>
<rscale>  0 0.20728670E+04</rscale>
<asrwt>0</asrwt>
<pdfrwt beam="1">  1        2 0.48467795E+00 0.20728670E+04</pdfrwt>
<pdfrwt beam="2">  1       -1 0.52456937E-01 0.20728670E+04</pdfrwt>
<totfact> 0.53894651E+00</totfact>
</mgrwt>
</event>
<event>
12    6  0.1510140E-007  0.1332068E+04  0.7818608E-02  0.9004514E-01
          2   -1    0    0  501    0  0.00000000000E+00  0.00000000000E+00  0.76986659102E+03  0.76986659102E+03  0.00000000000E+00 0. -1.
         -1   -1    0    0    0  501 -0.00000000000E+00 -0.00000000000E+00 -0.57620578230E+03  0.57620578230E+03  0.00000000000E+00 0.  1.
         24    2    1    2    0    0  0.20784708188E+03  0.19520233170E+03  0.26600966539E+03  0.39826516621E+03  0.80929851022E+02 0.  0.
        254    2    1    2    0    0 -0.20784708188E+03 -0.19520233170E+03 -0.72348856672E+02  0.94780720711E+03  0.90099932577E+03 0.  0.
         23    2    4    4    0    0 -0.28012063745E+03  0.18292028788E+03 -0.32729728711E+03  0.47694875392E+03  0.91810655567E+02 0.  0.
         23    2    4    4    0    0  0.72273555569E+02 -0.37812261959E+03  0.25494843043E+03  0.47085845319E+03  0.92243148679E+02 0.  0.
          4    1    3    3  502    0  0.18954367466E+03  0.13544117505E+03  0.19629754968E+03  0.30463723429E+03  0.00000000000E+00 0. -1.
         -3    1    3    3    0  502  0.18303407228E+02  0.59761156648E+02  0.69712115711E+02  0.93627931927E+02  0.00000000000E+00 0.  1.
         11    1    5    5    0    0 -0.28933740579E+02  0.19594309704E+02 -0.24564753084E+01  0.35030452290E+02  0.00000000000E+00 0.  1.
        -11    1    5    5    0    0 -0.25118689687E+03  0.16332597818E+03 -0.32484081180E+03  0.44191830163E+03  0.00000000000E+00 0. -1.
          2    1    6    6  503    0  0.33569969417E+01 -0.18710965571E+03  0.16205617461E+03  0.24755503715E+03  0.00000000000E+00 0. -1.
         -2    1    6    6    0  503  0.68916558627E+02 -0.19101296387E+03  0.92892255823E+02  0.22330341603E+03  0.00000000000E+00 0.  1.
<mgrwt>
<rscale>  0 0.13320684E+04</rscale>
<asrwt>0</asrwt>
<pdfrwt beam="1">  1        2 0.11844101E+00 0.13320684E+04</pdfrwt>
<pdfrwt beam="2">  1       -1 0.88647043E-01 0.13320684E+04</pdfrwt>
<totfact> 0.50571122E+01</totfact>
</mgrwt>
</event>
<event>
12    6  0.1510140E-007  0.1953915E+04  0.7818608E-02  0.8628475E-01
         -1   -1    0    0    0  501 -0.00000000000E+00  0.00000000000E+00  0.49275743326E+03  0.49275743326E+03  0.00000000000E+00 0.  1.
          2   -1    0    0  501    0  0.00000000000E+00 -0.00000000000E+00 -0.19369494983E+04  0.19369494983E+04  0.00000000000E+00 0. -1.
         24    2    1    2    0    0 -0.59223508125E+03  0.13776745372E+03  0.11675467568E+02  0.61350963421E+03  0.80842389554E+02 0.  0.
        254    2    1    2    0    0  0.59223508125E+03 -0.13776745372E+03 -0.14558675326E+04  0.18161972974E+04  0.89961107577E+03 0.  0.
         23    2    4    4    0    0  0.16410482186E+02  0.32475346190E+03 -0.51689670107E+03  0.61784386904E+03  0.93886804192E+02 0.  0.
         23    2    4    4    0    0  0.57582459907E+03 -0.46252091562E+03 -0.93897083154E+03  0.11983534283E+04  0.94261075658E+02 0.  0.
          4    1    3    3  502    0 -0.74697806840E+02  0.15278744575E+01  0.23149010174E+02  0.78217475152E+02  0.00000000000E+00 0. -1.
         -3    1    3    3    0  502 -0.51753727441E+03  0.13623957926E+03 -0.11473542606E+02  0.53529215905E+03  0.00000000000E+00 0.  1.
         11    1    5    5    0    0 -0.24389382885E+01  0.31207154475E+03 -0.45355582928E+03  0.55055198459E+03  0.00000000000E+00 0.  1.
        -11    1    5    5    0    0  0.18849420474E+02  0.12681917149E+02 -0.63340871782E+02  0.67291884451E+02  0.00000000000E+00 0. -1.
          2    1    6    6  503    0  0.23577480594E+03 -0.24821571637E+03 -0.41559552701E+03  0.53844260886E+03  0.00000000000E+00 0. -1.
         -2    1    6    6    0  503  0.34004979313E+03 -0.21430519925E+03 -0.52337530453E+03  0.65991081945E+03  0.00000000000E+00 0.  1.
<mgrwt>
<rscale>  0 0.19539153E+04</rscale>
<asrwt>0</asrwt>
<pdfrwt beam="1">  1        2 0.29799223E+00 0.19539153E+04</pdfrwt>
<pdfrwt beam="2">  1       -1 0.75808836E-01 0.19539153E+04</pdfrwt>
<totfact> 0.13443841E+01</totfact>
</mgrwt>
</event>
<event>
12    6  0.1510140E-007  0.2097735E+04  0.7818608E-02  0.8562242E-01
         -1   -1    0    0    0  501 -0.00000000000E+00  0.00000000000E+00  0.45482155382E+03  0.45482155382E+03  0.00000000000E+00 0.  1.
          2   -1    0    0  501    0  0.00000000000E+00 -0.00000000000E+00 -0.24188005509E+04  0.24188005509E+04  0.00000000000E+00 0. -1.
         24    2    1    2    0    0  0.47396801070E+02 -0.81603092846E+03 -0.49068510162E+03  0.95663717102E+03  0.78929557654E+02 0.  0.
        254    2    1    2    0    0 -0.47396801070E+02  0.81603092846E+03 -0.14732938954E+04  0.19169849337E+04  0.91437596243E+03 0.  0.
         23    2    4    4    0    0 -0.51102507338E+02  0.97152144186E+03 -0.14213106172E+04  0.17245094584E+04  0.85694944283E+02 0.  0.
         23    2    4    4    0    0  0.37057062685E+01 -0.15549051340E+03 -0.51983278266E+02  0.19247547525E+03  0.10076465322E+03 0.  0.
          2    1    3    3  502    0  0.42870059703E+01 -0.19319269153E+03 -0.15540871088E+03  0.24797915618E+03  0.00000000000E+00 0. -1.
         -1    1    3    3    0  502  0.43109795099E+02 -0.62283823692E+03 -0.33527639074E+03  0.70865801484E+03  0.00000000000E+00 0.  1.
         11    1    5    5    0    0 -0.33361879472E+02  0.91983910797E+03 -0.13172342972E+04  0.16069608562E+04  0.00000000000E+00 0. -1.
        -11    1    5    5    0    0 -0.17740627866E+02  0.51682333882E+02 -0.10407631996E+03  0.11754860224E+03  0.00000000000E+00 0.  1.
          1    1    6    6  503    0 -0.37453949031E+02 -0.12929961270E+03 -0.50156039048E+02  0.14365519968E+03  0.00000000000E+00 0. -1.
         -1    1    6    6    0  503  0.41159655300E+02 -0.26190900696E+02 -0.18272392172E+01  0.48820275571E+02  0.00000000000E+00 0.  1.
<mgrwt>
<rscale>  0 0.20977346E+04</rscale>
<asrwt>0</asrwt>
<pdfrwt beam="1">  1        2 0.37212316E+00 0.20977346E+04</pdfrwt>
<pdfrwt beam="2">  1       -1 0.69972547E-01 0.20977346E+04</pdfrwt>
<totfact> 0.84020817E+00</totfact>
</mgrwt>
</event>
<event>
12    6  0.1510140E-007  0.1930500E+04  0.7818608E-02  0.8639822E-01
          2   -1    0    0  501    0  0.00000000000E+00  0.00000000000E+00  0.72781070493E+03  0.72781070493E+03  0.00000000000E+00 0. -1.
         -1   -1    0    0    0  501 -0.00000000000E+00 -0.00000000000E+00 -0.12801513976E+04  0.12801513976E+04  0.00000000000E+00 0.  1.
         24    2    1    2    0    0  0.17359620019E+03 -0.16705456713E+03  0.52143742245E+03  0.57989274609E+03  0.79597376326E+02 0.  0.
        254    2    1    2    0    0 -0.17359620019E+03  0.16705456713E+03 -0.10737781151E+04  0.14280693564E+04  0.91013173616E+03 0.  0.
         23    2    4    4    0    0 -0.26018185922E+03  0.41179980204E+02 -0.11855264545E+04  0.12176761782E+04  0.88723784939E+02 0.  0.
         23    2    4    4    0    0  0.86585659032E+02  0.12587458692E+03  0.11174833941E+03  0.21039317821E+03  0.91848299342E+02 0.  0.
          4    1    3    3  502    0  0.13742211002E+03 -0.10513815949E+03  0.29099947432E+03  0.33855511066E+03  0.00000000000E+00 0. -1.
         -3    1    3    3    0  502  0.36174090175E+02 -0.61916407643E+02  0.23043794813E+03  0.24133763543E+03  0.00000000000E+00 0.  1.
         11    1    5    5    0    0 -0.99301747771E+02 -0.74745827736E+01 -0.29295637295E+03  0.30941904103E+03  0.00000000000E+00 0.  1.
        -11    1    5    5    0    0 -0.16088011145E+03  0.48654562977E+02 -0.89257008156E+03  0.90825713719E+03  0.00000000000E+00 0. -1.
          1    1    6    6  503    0  0.84967748349E+02  0.10840119799E+03  0.12684627249E+03  0.18724399811E+03  0.00000000000E+00 0. -1.
         -1    1    6    6    0  503  0.16179106836E+01  0.17473388934E+02 -0.15097933078E+02  0.23149180095E+02  0.00000000000E+00 0.  1.
<mgrwt>
<rscale>  0 0.19305003E+04</rscale>
<asrwt>0</asrwt>
<pdfrwt beam="1">  1        2 0.11197088E+00 0.19305003E+04</pdfrwt>
<pdfrwt beam="2">  1       -1 0.19694637E+00 0.19305003E+04</pdfrwt>
<totfact> 0.65691653E+00</totfact>
</mgrwt>
</event>
<event>
12    6  0.1510140E-007  0.2943549E+04  0.7818608E-02  0.8260037E-01
          2   -1    0    0  501    0  0.00000000000E+00  0.00000000000E+00  0.31539348257E+04  0.31539348257E+04  0.00000000000E+00 0. -1.
         -1   -1    0    0    0  501 -0.00000000000E+00 -0.00000000000E+00 -0.68679939655E+03  0.68679939655E+03  0.00000000000E+00 0.  1.
         24    2    1    2    0    0 -0.10802252913E+04 -0.51168864361E+03  0.35026460973E+03  0.12481196791E+04  0.80034296540E+02 0.  0.
        254    2    1    2    0    0  0.10802252913E+04  0.51168864361E+03  0.21168708194E+04  0.25926145431E+04  0.90099731151E+03 0.  0.
         23    2    4    4    0    0  0.54313705719E+03  0.69796017416E+03  0.10212889556E+04  0.13541429611E+04  0.92335044711E+02 0.  0.
         23    2    4    4    0    0  0.53708823407E+03 -0.18627153055E+03  0.10955818637E+04  0.12384715821E+04  0.10174175701E+03 0.  0.
          2    1    3    3  502    0 -0.65560624306E+03 -0.27533632076E+03  0.18399036607E+03  0.73449444537E+03  0.00000000000E+00 0. -1.
         -1    1    3    3    0  502 -0.42461904820E+03 -0.23635232285E+03  0.16627424366E+03  0.51362523373E+03  0.00000000000E+00 0.  1.
         11    1    5    5    0    0  0.12678481123E+03  0.10482414994E+03  0.19165020259E+03  0.25257135808E+03  0.00000000000E+00 0. -1.
        -11    1    5    5    0    0  0.41635224597E+03  0.59313602421E+03  0.82963875305E+03  0.11015716030E+04  0.00000000000E+00 0.  1.
          3    1    6    6  503    0  0.29329152028E+03 -0.15201557690E+03  0.59203852176E+03  0.67796626961E+03  0.00000000000E+00 0. -1.
         -3    1    6    6    0  503  0.24379671379E+03 -0.34255953650E+02  0.50354334198E+03  0.56050531244E+03  0.00000000000E+00 0.  1.
<mgrwt>
<rscale>  0 0.29435492E+04</rscale>
<asrwt>0</asrwt>
<pdfrwt beam="1">  1        2 0.48522073E+00 0.29435492E+04</pdfrwt>
<pdfrwt beam="2">  1       -1 0.10566145E+00 0.29435492E+04</pdfrwt>
<totfact> 0.11382289E+00</totfact>
</mgrwt>
</event>
<event>
12    6  0.1510140E-007  0.3012834E+04  0.7818608E-02  0.8240076E-01
         -1   -1    0    0    0  501 -0.00000000000E+00  0.00000000000E+00  0.25035528204E+04  0.25035528204E+04  0.00000000000E+00 0.  1.
          2   -1    0    0  501    0  0.00000000000E+00 -0.00000000000E+00 -0.90642850876E+03  0.90642850876E+03  0.00000000000E+00 0. -1.
         24    2    1    2    0    0  0.56319667242E+03 -0.12175949263E+04  0.10453859225E+04  0.17026274519E+04  0.79878761594E+02 0.  0.
        254    2    1    2    0    0 -0.56319667242E+03  0.12175949263E+04  0.55173838915E+03  0.17073538773E+04  0.90050769903E+03 0.  0.
         23    2    4    4    0    0 -0.61805893996E+03  0.13084687576E+04  0.58615483582E+03  0.15639268702E+04  0.90567218212E+02 0.  0.
         23    2    4    4    0    0  0.54862267534E+02 -0.90873831283E+02 -0.34416446673E+02  0.14342700712E+03  0.90104899743E+02 0.  0.
          2    1    3    3  502    0  0.55378896978E+03 -0.11988430436E+04  0.10143983093E+04  0.16652059321E+04  0.00000000000E+00 0. -1.
         -1    1    3    3    0  502  0.94077026407E+01 -0.18751882668E+02  0.30987613193E+02  0.37421519797E+02  0.00000000000E+00 0.  1.
         11    1    5    5    0    0 -0.60471825142E+03  0.12884418282E+04  0.56320822897E+03  0.15306763268E+04  0.00000000000E+00 0.  1.
        -11    1    5    5    0    0 -0.13340688535E+02  0.20026929356E+02  0.22946606857E+02  0.33250543398E+02  0.00000000000E+00 0. -1.
          4    1    6    6  503    0 -0.23535377059E+02 -0.84066129013E+01 -0.17849700588E+01  0.25055363336E+02  0.00000000000E+00 0. -1.
         -4    1    6    6    0  503  0.78397644592E+02 -0.82467218382E+02 -0.32631476614E+02  0.11837164378E+03  0.00000000000E+00 0.  1.
<mgrwt>
<rscale>  0 0.30128336E+04</rscale>
<asrwt>0</asrwt>
<pdfrwt beam="1">  1        2 0.13945054E+00 0.30128336E+04</pdfrwt>
<pdfrwt beam="2">  1       -1 0.38516197E+00 0.30128336E+04</pdfrwt>
<totfact> 0.25528281E-01</totfact>
</mgrwt>
</event>
<event>
12    6  0.1510140E-007  0.1429647E+04  0.7818608E-02  0.8932634E-01
          2   -1    0    0  501    0  0.00000000000E+00  0.00000000000E+00  0.13916464290E+04  0.13916464290E+04  0.00000000000E+00 0. -1.
         -1   -1    0    0    0  501 -0.00000000000E+00 -0.00000000000E+00 -0.36717118068E+03  0.36717118068E+03  0.00000000000E+00 0.  1.
         24    2    1    2    0    0 -0.72188001291E+02  0.38847832999E+03  0.48882946005E+03  0.63380221897E+03  0.81390978299E+02 0.  0.
        254    2    1    2    0    0  0.72188001291E+02 -0.38847832999E+03  0.53564578822E+03  0.11250153907E+04  0.90698219298E+03 0.  0.
         23    2    4    4    0    0 -0.21151873898E+03 -0.26399481678E+03  0.68477154955E+03  0.76949577073E+03  0.93692186806E+02 0.  0.
         23    2    4    4    0    0  0.28370674027E+03 -0.12448351322E+03 -0.14912576133E+03  0.35551961994E+03  0.90388317439E+02 0.  0.
          2    1    3    3  502    0 -0.66428209300E+02  0.39135947884E+03  0.48007745007E+03  0.62293603743E+03  0.00000000000E+00 0. -1.
         -3    1    3    3    0  502 -0.57597919913E+01 -0.28811488426E+01  0.87520099876E+01  0.10866181540E+02  0.00000000000E+00 0.  1.
         11    1    5    5    0    0 -0.28985523639E+02 -0.29571694469E+02  0.32139276890E+02  0.52417352216E+02  0.00000000000E+00 0. -1.
        -11    1    5    5    0    0 -0.18253321534E+03 -0.23442312231E+03  0.65263227266E+03  0.71707841851E+03  0.00000000000E+00 0.  1.
          3    1    6    6  503    0  0.85502334395E+02 -0.18450471221E+00 -0.18189065639E+02  0.87415818578E+02  0.00000000000E+00 0. -1.
         -3    1    6    6    0  503  0.19820440588E+03 -0.12429900850E+03 -0.13093669569E+03  0.26810380136E+03  0.00000000000E+00 0.  1.
<mgrwt>
<rscale>  0 0.14296468E+04</rscale>
<asrwt>0</asrwt>
<pdfrwt beam="1">  1        2 0.21409945E+00 0.14296468E+04</pdfrwt>
<pdfrwt beam="2">  1       -1 0.56487875E-01 0.14296468E+04</pdfrwt>
<totfact> 0.51362709E+01</totfact>
</mgrwt>
</event>
<event>
12    6  0.1510140E-007  0.1471189E+04  0.7818608E-02  0.8903841E-01
          2   -1    0    0  501    0  0.00000000000E+00  0.00000000000E+00  0.61040391893E+03  0.61040391893E+03  0.00000000000E+00 0. -1.
         -1   -1    0    0    0  501 -0.00000000000E+00 -0.00000000000E+00 -0.88646129303E+03  0.88646129303E+03  0.00000000000E+00 0.  1.
         24    2    1    2    0    0  0.21954310714E+03  0.42266380662E+03 -0.13684714062E+03  0.50188337122E+03  0.79472693973E+02 0.  0.
        254    2    1    2    0    0 -0.21954310714E+03 -0.42266380662E+03 -0.13921023348E+03  0.99498184074E+03  0.86241840482E+03 0.  0.
         23    2    4    4    0    0 -0.15084801340E+03  0.32283980594E+01 -0.43141028661E+03  0.46610282275E+03  0.91495684472E+02 0.  0.
         23    2    4    4    0    0 -0.68695093740E+02 -0.42589220468E+03  0.29220005313E+03  0.52887901799E+03  0.90713608177E+02 0.  0.
          2    1    3    3  502    0  0.80272926806E+02  0.14747630501E+03 -0.88150045460E+02  0.18964027481E+03  0.00000000000E+00 0. -1.
         -1    1    3    3    0  502  0.13927018034E+03  0.27518750161E+03 -0.48697095164E+02  0.31224309641E+03  0.00000000000E+00 0.  1.
         11    1    5    5    0    0 -0.14370733628E+03 -0.35128312565E+01 -0.28345570226E+03  0.31782270785E+03  0.00000000000E+00 0. -1.
        -11    1    5    5    0    0 -0.71406771269E+01  0.67412293160E+01 -0.14795458435E+03  0.14828011489E+03  0.00000000000E+00 0.  1.
          2    1    6    6  503    0 -0.62231836786E+02 -0.23264812979E+03  0.11609971277E+03  0.26735200973E+03  0.00000000000E+00 0.  1.
         -2    1    6    6    0  503 -0.64632569541E+01 -0.19324407489E+03  0.17610034036E+03  0.26152700826E+03  0.00000000000E+00 0. -1.
<mgrwt>
<rscale>  0 0.14711892E+04</rscale>
<asrwt>0</asrwt>
<pdfrwt beam="1">  1        2 0.93908295E-01 0.14711892E+04</pdfrwt>
<pdfrwt beam="2">  1       -1 0.13637866E+00 0.14711892E+04</pdfrwt>
<totfact> 0.24120084E+01</totfact>
</mgrwt>
</event>
<event>
12    6  0.1510140E-007  0.1945028E+04  0.7818608E-02  0.8632762E-01
         -1   -1    0    0    0  501 -0.00000000000E+00  0.00000000000E+00  0.82290156665E+03  0.82290156665E+03  0.00000000000E+00 0.  1.
          2   -1    0    0  501    0  0.00000000000E+00 -0.00000000000E+00 -0.11493272319E+04  0.11493272319E+04  0.00000000000E+00 0. -1.
         24    2    1    2    0    0  0.28226555536E+03 -0.68400233191E+03  0.52625040226E+02  0.74611539812E+03  0.79910941949E+02 0.  0.
        254    2    1    2    0    0 -0.28226555536E+03  0.68400233191E+03 -0.37905070548E+03  0.12261134004E+04  0.90118899217E+03 0.  0.
         23    2    4    4    0    0 -0.19585834655E+03  0.61492502652E+03  0.15677795989E+03  0.67057293777E+03  0.92711682120E+02 0.  0.
         23    2    4    4    0    0 -0.86407208808E+02  0.69077305394E+02 -0.53582866537E+03  0.55554046267E+03  0.96306631008E+02 0.  0.
          4    1    3    3  502    0  0.10809532323E+02 -0.85388981898E+02  0.17897286738E+02  0.87911529910E+02  0.00000000000E+00 0. -1.
         -3    1    3    3    0  502  0.27145602304E+03 -0.59861335001E+03  0.34727753488E+02  0.65820386821E+03  0.00000000000E+00 0.  1.
         11    1    5    5    0    0 -0.31621920712E+02  0.13555619201E+03  0.72313278348E+02  0.15685865385E+03  0.00000000000E+00 0. -1.
        -11    1    5    5    0    0 -0.16423642584E+03  0.47936883451E+03  0.84464681545E+02  0.51371428392E+03  0.00000000000E+00 0.  1.
          2    1    6    6  503    0 -0.77490295112E+02  0.45504830614E+02 -0.51518117273E+03  0.52295991833E+03  0.00000000000E+00 0.  1.
         -2    1    6    6    0  503 -0.89169136961E+01  0.23572474781E+02 -0.20647492645E+02  0.32580544343E+02  0.00000000000E+00 0. -1.
<mgrwt>
<rscale>  0 0.19450277E+04</rscale>
<asrwt>0</asrwt>
<pdfrwt beam="1">  1        2 0.17681957E+00 0.19450277E+04</pdfrwt>
<pdfrwt beam="2">  1       -1 0.12660024E+00 0.19450277E+04</pdfrwt>
<totfact> 0.11724578E+01</totfact>
</mgrwt>
</event>
<event>
12    6  0.1510140E-007  0.1313110E+04  0.7818608E-02  0.9019233E-01
          2   -1    0    0  501    0  0.00000000000E+00  0.00000000000E+00  0.99525469601E+03  0.99525469601E+03  0.00000000000E+00 0. -1.
         -1   -1    0    0    0  501 -0.00000000000E+00 -0.00000000000E+00 -0.43311968283E+03  0.43311968283E+03  0.00000000000E+00 0.  1.
         24    2    1    2    0    0 -0.14502026873E+03  0.15293928026E+03 -0.14713566853E+03  0.26938397681E+03  0.80607197054E+02 0.  0.
        254    2    1    2    0    0  0.14502026873E+03 -0.15293928026E+03  0.70927068172E+03  0.11589904020E+04  0.89206084448E+03 0.  0.
         23    2    4    4    0    0 -0.76404002774E+02  0.33168285051E+03  0.15406167542E+03  0.38405386111E+03  0.88945395841E+02 0.  0.
         23    2    4    4    0    0  0.22142427151E+03 -0.48462213077E+03  0.55520900630E+03  0.77493654091E+03  0.91554814880E+02 0.  0.
          4    1    3    3  502    0 -0.15154272519E+02  0.68015109081E+02 -0.56286736283E+02  0.89576245290E+02  0.00000000000E+00 0. -1.
         -3    1    3    3    0  502 -0.12986599621E+03  0.84924171178E+02 -0.90848932251E+02  0.17980773152E+03  0.00000000000E+00 0.  1.
         11    1    5    5    0    0 -0.42376991764E+02  0.26874103773E+03  0.15375379039E+03  0.31250245255E+03  0.00000000000E+00 0.  1.
        -11    1    5    5    0    0 -0.34027011011E+02  0.62941812779E+02  0.30788503155E+00  0.71551408564E+02  0.00000000000E+00 0. -1.
          3    1    6    6  503    0  0.59960660353E+02 -0.68487898185E+02  0.12811584154E+03  0.15716087885E+03  0.00000000000E+00 0. -1.
         -3    1    6    6    0  503  0.16146361115E+03 -0.41613423258E+03  0.42709316476E+03  0.61777566206E+03  0.00000000000E+00 0.  1.
<mgrwt>
<rscale>  0 0.13131099E+04</rscale>
<asrwt>0</asrwt>
<pdfrwt beam="1">  1        2 0.15311611E+00 0.13131099E+04</pdfrwt>
<pdfrwt beam="2">  1       -1 0.66633798E-01 0.13131099E+04</pdfrwt>
<totfact> 0.64679769E+01</totfact>
</mgrwt>
</event>
<event>
12    6  0.1510140E-007  0.1418310E+04  0.7818608E-02  0.8940671E-01
         -1   -1    0    0    0  501 -0.00000000000E+00  0.00000000000E+00  0.65478147423E+03  0.65478147423E+03  0.00000000000E+00 0.  1.
          2   -1    0    0  501    0  0.00000000000E+00 -0.00000000000E+00 -0.76804345816E+03  0.76804345816E+03  0.00000000000E+00 0. -1.
         24    2    1    2    0    0  0.34384507373E+03  0.33638047172E+02  0.20609493368E+03  0.41052438444E+03  0.81818063967E+02 0.  0.
        254    2    1    2    0    0 -0.34384507373E+03 -0.33638047172E+02 -0.31935691761E+03  0.10123005479E+04  0.89632728710E+03 0.  0.
         23    2    4    4    0    0 -0.61135440889E+03 -0.15595960020E+03 -0.29704602315E+03  0.70352047744E+03  0.92882248827E+02 0.  0.
         23    2    4    4    0    0  0.26750933516E+03  0.12232155303E+03 -0.22310894465E+02  0.30878007050E+03  0.91233487232E+02 0.  0.
          2    1    3    3  502    0  0.35821331223E+02 -0.12324080163E+02  0.15264984447E+01  0.37912806807E+02  0.00000000000E+00 0. -1.
         -1    1    3    3    0  502  0.30802374250E+03  0.45962127335E+02  0.20456843524E+03  0.37261157764E+03  0.00000000000E+00 0.  1.
         11    1    5    5    0    0 -0.43764314382E+03 -0.13097118476E+03 -0.17243607763E+03  0.48828185860E+03  0.00000000000E+00 0.  1.
        -11    1    5    5    0    0 -0.17371126507E+03 -0.24988415441E+02 -0.12460994552E+03  0.21523861884E+03  0.00000000000E+00 0. -1.
          3    1    6    6  503    0  0.25736073161E+02  0.27770742130E+02  0.24349563451E+02  0.45016228412E+02  0.00000000000E+00 0. -1.
         -3    1    6    6    0  503  0.24177326200E+03  0.94550810899E+02 -0.46660457917E+02  0.26376384209E+03  0.00000000000E+00 0.  1.
<mgrwt>
<rscale>  0 0.14183097E+04</rscale>
<asrwt>0</asrwt>
<pdfrwt beam="1">  1        2 0.11816053E+00 0.14183097E+04</pdfrwt>
<pdfrwt beam="2">  1       -1 0.10073561E+00 0.14183097E+04</pdfrwt>
<totfact> 0.37832150E+01</totfact>
</mgrwt>
</event>
<event>
12    6  0.1510140E-007  0.1868865E+04  0.7818608E-02  0.8670511E-01
          2   -1    0    0  501    0  0.00000000000E+00  0.00000000000E+00  0.38225305313E+04  0.38225305313E+04  0.00000000000E+00 0. -1.
         -1   -1    0    0    0  501 -0.00000000000E+00 -0.00000000000E+00 -0.22842573055E+03  0.22842573055E+03  0.00000000000E+00 0.  1.
         24    2    1    2    0    0  0.14646773708E+02  0.33514691378E+03  0.27617866610E+04  0.27832134200E+04  0.79204788412E+02 0.  0.
        254    2    1    2    0    0 -0.14646773708E+02 -0.33514691378E+03  0.83231813972E+03  0.12677428418E+04  0.89547777500E+03 0.  0.
         23    2    4    4    0    0  0.17150053246E+03 -0.48990684785E+03  0.16679092421E+03  0.55280983403E+03  0.91424001243E+02 0.  0.
         23    2    4    4    0    0 -0.18614730617E+03  0.15475993407E+03  0.66552721552E+03  0.71493300780E+03  0.97986092193E+02 0.  0.
          4    1    3    3  502    0 -0.23347990230E+02  0.21421704837E+03  0.18937571156E+04  0.19059774619E+04  0.00000000000E+00 0. -1.
         -3    1    3    3    0  502  0.37994763938E+02  0.12092986541E+03  0.86802954545E+03  0.87723595811E+03  0.00000000000E+00 0.  1.
         11    1    5    5    0    0  0.15210494822E+03 -0.31209598506E+03  0.93900896845E+02  0.35966261634E+03  0.00000000000E+00 0.  1.
        -11    1    5    5    0    0  0.19395584233E+02 -0.17781086278E+03  0.72890027361E+02  0.19314721769E+03  0.00000000000E+00 0. -1.
          4    1    6    6  503    0 -0.86059685508E+02  0.12466038091E+03  0.32186915883E+03  0.35573337690E+03  0.00000000000E+00 0. -1.
         -4    1    6    6    0  503 -0.10008762066E+03  0.30099553158E+02  0.34365805669E+03  0.35919963090E+03  0.00000000000E+00 0.  1.
<mgrwt>
<rscale>  0 0.18688652E+04</rscale>
<asrwt>0</asrwt>
<pdfrwt beam="1">  1        2 0.58808157E+00 0.18688652E+04</pdfrwt>
<pdfrwt beam="2">  1       -1 0.35142423E-01 0.18688652E+04</pdfrwt>
<totfact> 0.39286352E+00</totfact>
</mgrwt>
</event>
<event>
12    6  0.1510140E-007  0.1399462E+04  0.7818608E-02  0.8954208E-01
          2   -1    0    0  501    0  0.00000000000E+00  0.00000000000E+00  0.54091893941E+03  0.54091893941E+03  0.00000000000E+00 0. -1.
         -1   -1    0    0    0  501 -0.00000000000E+00 -0.00000000000E+00 -0.90517027783E+03  0.90517027783E+03  0.00000000000E+00 0.  1.
         24    2    1    2    0    0 -0.30336984351E+03  0.24170202292E+03  0.34769267538E+02  0.39741899102E+03  0.79245331887E+02 0.  0.
        254    2    1    2    0    0  0.30336984351E+03 -0.24170202292E+03 -0.39902060595E+03  0.10486702262E+04  0.88884119478E+03 0.  0.
         23    2    4    4    0    0  0.32351924846E+03  0.19812272804E+03  0.73292035678E+02  0.39674920173E+03  0.90115964705E+02 0.  0.
         23    2    4    4    0    0 -0.20149404948E+02 -0.43982475096E+03 -0.47231264163E+03  0.65192102448E+03  0.89833070970E+02 0.  0.
          4    1    3    3  502    0 -0.28875801179E+03  0.23456653989E+03  0.15697621387E+02  0.37235610150E+03  0.00000000000E+00 0. -1.
         -3    1    3    3    0  502 -0.14611831722E+02  0.71354830334E+01  0.19071646151E+02  0.25062889525E+02  0.00000000000E+00 0.  1.
         11    1    5    5    0    0  0.28163907947E+03  0.15794993345E+03  0.92031896356E+02  0.33576572564E+03  0.00000000000E+00 0.  1.
        -11    1    5    5    0    0  0.41880168985E+02  0.40172794582E+02 -0.18739860678E+02  0.60983476098E+02  0.00000000000E+00 0. -1.
          2    1    6    6  503    0 -0.18921130061E+02 -0.27092019796E+03 -0.22631601477E+03  0.35351761111E+03  0.00000000000E+00 0. -1.
         -2    1    6    6    0  503 -0.12282748868E+01 -0.16890455300E+03 -0.24599662686E+03  0.29840341337E+03  0.00000000000E+00 0.  1.
<mgrwt>
<rscale>  0 0.13994624E+04</rscale>
<asrwt>0</asrwt>
<pdfrwt beam="1">  1        2 0.83218298E-01 0.13994624E+04</pdfrwt>
<pdfrwt beam="2">  1       -1 0.13925697E+00 0.13994624E+04</pdfrwt>
<totfact> 0.26558975E+01</totfact>
</mgrwt>
</event>
<event>
12    6  0.1510140E-007  0.1127237E+04  0.7818608E-02  0.9179045E-01
          2   -1    0    0  501    0  0.00000000000E+00  0.00000000000E+00  0.23193204509E+04  0.23193204509E+04  0.00000000000E+00 0. -1.
         -1   -1    0    0    0  501 -0.00000000000E+00 -0.00000000000E+00 -0.13696492020E+03  0.13696492020E+03  0.00000000000E+00 0.  1.
         24    2    1    2    0    0  0.14184328438E+03 -0.23000952933E+02  0.66771577393E+03  0.68833930781E+03  0.85545816718E+02 0.  0.
        254    2    1    2    0    0 -0.14184328438E+03  0.23000952933E+02  0.15146397568E+04  0.17679460633E+04  0.90047272517E+03 0.  0.
         23    2    4    4    0    0 -0.46410760274E+03 -0.97014707367E+02  0.11950408893E+04  0.12889042835E+04  0.91344427109E+02 0.  0.
         23    2    4    4    0    0  0.32226431836E+03  0.12001566030E+03  0.31959886743E+03  0.47904177984E+03  0.95286626329E+02 0.  0.
          4    1    3    3  502    0  0.12237478065E+03  0.14740635763E+02  0.53404571015E+03  0.54808548039E+03  0.00000000000E+00 0. -1.
         -3    1    3    3    0  502  0.19468503723E+02 -0.37741588697E+02  0.13367006379E+03  0.14025382742E+03  0.00000000000E+00 0.  1.
         11    1    5    5    0    0 -0.31861376249E+03 -0.98334426269E+02  0.90364560109E+03  0.96320286617E+03  0.00000000000E+00 0.  1.
        -11    1    5    5    0    0 -0.14549384025E+03  0.13197189019E+01  0.29139528826E+03  0.32570141729E+03  0.00000000000E+00 0. -1.
          4    1    6    6  503    0  0.26521909204E+03  0.90227670084E+02  0.30282965379E+03  0.41253848117E+03  0.00000000000E+00 0. -1.
         -4    1    6    6    0  503  0.57045226326E+02  0.29787990216E+02  0.16769213645E+02  0.66503298670E+02  0.00000000000E+00 0.  1.
<mgrwt>
<rscale>  0 0.11272365E+04</rscale>
<asrwt>0</asrwt>
<pdfrwt beam="1">  1        2 0.35681850E+00 0.11272365E+04</pdfrwt>
<pdfrwt beam="2">  1       -1 0.21071528E-01 0.11272365E+04</pdfrwt>
<totfact> 0.94026814E+01</totfact>
</mgrwt>
</event>
<event>
12    6  0.1510140E-007  0.1377298E+04  0.7818608E-02  0.8970417E-01
          2   -1    0    0  501    0  0.00000000000E+00  0.00000000000E+00  0.19772117374E+04  0.19772117374E+04  0.00000000000E+00 0. -1.
         -1   -1    0    0    0  501 -0.00000000000E+00 -0.00000000000E+00 -0.23985157634E+03  0.23985157634E+03  0.00000000000E+00 0.  1.
         24    2    1    2    0    0  0.17672294074E+03 -0.16323934241E+03  0.52328004064E+01  0.25299741395E+03  0.78116762422E+02 0.  0.
        254    2    1    2    0    0 -0.17672294074E+03  0.16323934241E+03  0.17321273606E+04  0.19640658998E+04  0.89409819624E+03 0.  0.
         23    2    4    4    0    0 -0.42639707402E+02  0.21203850472E+03  0.11601025075E+02  0.23516989513E+03  0.91606897459E+02 0.  0.
         23    2    4    4    0    0 -0.13408323334E+03 -0.48799162306E+02  0.17205263356E+04  0.17288960047E+04  0.92254278100E+02 0.  0.
          4    1    3    3  502    0 -0.85357129114E+00 -0.11264465523E+02  0.15337706048E+02  0.19048936828E+02  0.00000000000E+00 0. -1.
         -3    1    3    3    0  502  0.17757651203E+03 -0.15197487689E+03 -0.10104905641E+02  0.23394847712E+03  0.00000000000E+00 0.  1.
         11    1    5    5    0    0 -0.67045397586E+02  0.19169836884E+03  0.11285577641E+02  0.20339792088E+03  0.00000000000E+00 0. -1.
        -11    1    5    5    0    0  0.24405690184E+02  0.20340135873E+02  0.31544743365E+00  0.31771974251E+02  0.00000000000E+00 0.  1.
          3    1    6    6  503    0 -0.13131095235E+03 -0.14271008330E+02  0.14809350626E+04  0.14868136694E+04  0.00000000000E+00 0. -1.
         -3    1    6    6    0  503 -0.27722809840E+01 -0.34528153976E+02  0.23959127297E+03  0.24208233525E+03  0.00000000000E+00 0.  1.
<mgrwt>
<rscale>  0 0.13772979E+04</rscale>
<asrwt>0</asrwt>
<pdfrwt beam="1">  1        2 0.30418641E+00 0.13772979E+04</pdfrwt>
<pdfrwt beam="2">  1       -1 0.36900244E-01 0.13772979E+04</pdfrwt>
<totfact> 0.53924598E+01</totfact>
</mgrwt>
</event>
<event>
12    6  0.1510140E-007  0.1292252E+04  0.7818608E-02  0.9035732E-01
         -1   -1    0    0    0  501 -0.00000000000E+00  0.00000000000E+00  0.19304188048E+03  0.19304188048E+03  0.00000000000E+00 0.  1.
          2   -1    0    0  501    0  0.00000000000E+00 -0.00000000000E+00 -0.21626337490E+04  0.21626337490E+04  0.00000000000E+00 0. -1.
         24    2    1    2    0    0 -0.32890339700E+02 -0.31523449714E+03 -0.31913632584E+03  0.45648306367E+03  0.77937348678E+02 0.  0.
        254    2    1    2    0    0  0.32890339700E+02  0.31523449714E+03 -0.16504555427E+04  0.18991925658E+04  0.88457579722E+03 0.  0.
         23    2    4    4    0    0 -0.15118860966E+03  0.30761228087E+03 -0.16563700131E+04  0.16938828562E+04  0.90521815138E+02 0.  0.
         23    2    4    4    0    0  0.18407894936E+03  0.76222162614E+01  0.59144704253E+01  0.20530970965E+03  0.90409834290E+02 0.  0.
          2    1    3    3  502    0 -0.63252089413E+01 -0.34888816625E+01 -0.28655595355E+02  0.29552050835E+02  0.00000000000E+00 0. -1.
         -1    1    3    3    0  502 -0.26565130759E+02 -0.31174561547E+03 -0.29048073049E+03  0.42693101284E+03  0.00000000000E+00 0.  1.
         11    1    5    5    0    0  0.10123543669E+02  0.21495129789E+02 -0.17012454302E+03  0.17177568769E+03  0.00000000000E+00 0. -1.
        -11    1    5    5    0    0 -0.16131215333E+03  0.28611715109E+03 -0.14862454701E+04  0.15221071685E+04  0.00000000000E+00 0.  1.
          1    1    6    6  503    0  0.32187500815E+01 -0.21742061182E+02 -0.18356888775E+00  0.21979792403E+02  0.00000000000E+00 0. -1.
         -1    1    6    6    0  503  0.18086019928E+03  0.29364277443E+02  0.60980393130E+01  0.18332991725E+03  0.00000000000E+00 0.  1.
<mgrwt>
<rscale>  0 0.12922521E+04</rscale>
<asrwt>0</asrwt>
<pdfrwt beam="1">  1        2 0.33271289E+00 0.12922521E+04</pdfrwt>
<pdfrwt beam="2">  1       -1 0.29698751E-01 0.12922521E+04</pdfrwt>
<totfact> 0.63001021E+01</totfact>
</mgrwt>
</event>
<event>
12    6  0.1510140E-007  0.2859682E+04  0.7818608E-02  0.8284975E-01
         -1   -1    0    0    0  501 -0.00000000000E+00  0.00000000000E+00  0.14311818626E+04  0.14311818626E+04  0.00000000000E+00 0.  1.
          2   -1    0    0  501    0  0.00000000000E+00 -0.00000000000E+00 -0.14285014433E+04  0.14285014433E+04  0.00000000000E+00 0. -1.
         24    2    1    2    0    0 -0.84962338265E+03  0.80552430684E+03 -0.54657423412E+03  0.12946741833E+04  0.81905714735E+02 0.  0.
        254    2    1    2    0    0  0.84962338265E+03 -0.80552430684E+03  0.54925465337E+03  0.15650091227E+04  0.88138730337E+03 0.  0.
         23    2    4    4    0    0 -0.69224042402E+02 -0.43983949971E+03  0.28704563685E+03  0.53779971435E+03  0.92642223471E+02 0.  0.
         23    2    4    4    0    0  0.91884742506E+03 -0.36568480714E+03  0.26220901652E+03  0.10272094083E+04  0.91649503575E+02 0.  0.
          2    1    3    3  502    0 -0.52670912699E+03  0.44866523382E+03 -0.34040265191E+03  0.77110113599E+03  0.00000000000E+00 0. -1.
         -1    1    3    3    0  502 -0.32291425566E+03  0.35685907302E+03 -0.20617158221E+03  0.52357304726E+03  0.00000000000E+00 0.  1.
         11    1    5    5    0    0 -0.19758499670E+01 -0.28253032937E+03  0.15990411808E+03  0.32464845291E+03  0.00000000000E+00 0.  1.
        -11    1    5    5    0    0 -0.67248192435E+02 -0.15730917033E+03  0.12714151877E+03  0.21315126144E+03  0.00000000000E+00 0. -1.
          3    1    6    6  503    0  0.53206388306E+03 -0.25222187585E+03  0.18118050513E+03  0.61606349166E+03  0.00000000000E+00 0. -1.
         -3    1    6    6    0  503  0.38678354200E+03 -0.11346293129E+03  0.81028511392E+02  0.41114591667E+03  0.00000000000E+00 0.  1.
<mgrwt>
<rscale>  0 0.28596820E+04</rscale>
<asrwt>0</asrwt>
<pdfrwt beam="1">  1        2 0.21976945E+00 0.28596820E+04</pdfrwt>
<pdfrwt beam="2">  1       -1 0.22018183E+00 0.28596820E+04</pdfrwt>
<totfact> 0.15084371E+00</totfact>
</mgrwt>
</event>
<event>
12    6  0.1510140E-007  0.2377297E+04  0.7818608E-02  0.8448053E-01
         -1   -1    0    0    0  501 -0.00000000000E+00  0.00000000000E+00  0.10057054052E+04  0.10057054052E+04  0.00000000000E+00 0.  1.
          2   -1    0    0  501    0  0.00000000000E+00 -0.00000000000E+00 -0.14048693986E+04  0.14048693986E+04  0.00000000000E+00 0. -1.
         24    2    1    2    0    0  0.10046645954E+04  0.17586014005E+03 -0.42247836226E+02  0.10239367885E+04  0.79899494578E+02 0.  0.
        254    2    1    2    0    0 -0.10046645954E+04 -0.17586014005E+03 -0.35691615722E+03  0.13866380152E+04  0.86896381053E+03 0.  0.
         23    2    4    4    0    0  0.60512367177E+02  0.14453997503E+03  0.66014463639E+02  0.19324909878E+03  0.91835471405E+02 0.  0.
         23    2    4    4    0    0 -0.10651769625E+04 -0.32040011508E+03 -0.42293062086E+03  0.11933889165E+04  0.89713993361E+02 0.  0.
          4    1    3    3  502    0  0.43955897167E+03  0.11575146390E+03 -0.80548146052E+01  0.45461562997E+03  0.00000000000E+00 0. -1.
         -3    1    3    3    0  502  0.56510562369E+03  0.60108676151E+02 -0.34193021621E+02  0.56932115858E+03  0.00000000000E+00 0.  1.
         11    1    5    5    0    0  0.59461176521E+01  0.12270852057E+03  0.44566244983E+02  0.13068621782E+03  0.00000000000E+00 0. -1.
        -11    1    5    5    0    0  0.54566249525E+02  0.21831454457E+02  0.21448218657E+02  0.62562880963E+02  0.00000000000E+00 0.  1.
          2    1    6    6  503    0 -0.39284101041E+03 -0.16347546611E+03 -0.15708353944E+03  0.45356755378E+03  0.00000000000E+00 0. -1.
         -2    1    6    6    0  503 -0.67233595212E+03 -0.15692464897E+03 -0.26584708142E+03  0.73982136268E+03  0.00000000000E+00 0.  1.
<mgrwt>
<rscale>  0 0.23772966E+04</rscale>
<asrwt>0</asrwt>
<pdfrwt beam="1">  1        2 0.21613375E+00 0.23772966E+04</pdfrwt>
<pdfrwt beam="2">  1       -1 0.15472391E+00 0.23772966E+04</pdfrwt>
<totfact> 0.47329321E+00</totfact>
</mgrwt>
</event>
<event>
12    6  0.1510140E-007  0.1523770E+04  0.7818608E-02  0.8868798E-01
          2   -1    0    0  501    0  0.00000000000E+00  0.00000000000E+00  0.22332204702E+04  0.22332204702E+04  0.00000000000E+00 0. -1.
         -1   -1    0    0    0  501 -0.00000000000E+00 -0.00000000000E+00 -0.25992439612E+03  0.25992439612E+03  0.00000000000E+00 0.  1.
         24    2    1    2    0    0  0.37874430892E+03  0.24709281886E+03  0.99322279514E+03  0.10941478945E+04  0.78523764330E+02 0.  0.
        254    2    1    2    0    0 -0.37874430892E+03 -0.24709281886E+03  0.98007327895E+03  0.13989969718E+04  0.89002628188E+03 0.  0.
         23    2    4    4    0    0 -0.57249235131E+03 -0.42594632767E+03  0.71494286251E+03  0.10144043306E+04  0.93247427988E+02 0.  0.
         23    2    4    4    0    0  0.19374804239E+03  0.17885350881E+03  0.26513041644E+03  0.38459264128E+03  0.89947098148E+02 0.  0.
          4    1    3    3  502    0  0.62301839011E+02  0.24603997330E+02  0.21318477861E+03  0.22346056847E+03  0.00000000000E+00 0. -1.
         -3    1    3    3    0  502  0.31644246991E+03  0.22248882153E+03  0.78003801653E+03  0.87068732603E+03  0.00000000000E+00 0.  1.
         11    1    5    5    0    0 -0.56479424159E+03 -0.39982113869E+03  0.69403959779E+03  0.98007165125E+03  0.00000000000E+00 0. -1.
        -11    1    5    5    0    0 -0.76981097251E+01 -0.26125188980E+02  0.20903264719E+02  0.34332679308E+02  0.00000000000E+00 0.  1.
          2    1    6    6  503    0  0.18233489856E+03  0.13116327027E+03  0.18659879323E+03  0.29200843881E+03  0.00000000000E+00 0. -1.
         -2    1    6    6    0  503  0.11413143829E+02  0.47690238540E+02  0.78531623206E+02  0.92584202473E+02  0.00000000000E+00 0.  1.
<mgrwt>
<rscale>  0 0.15237696E+04</rscale>
<asrwt>0</asrwt>
<pdfrwt beam="1">  1        2 0.34357237E+00 0.15237696E+04</pdfrwt>
<pdfrwt beam="2">  1       -1 0.39988370E-01 0.15237696E+04</pdfrwt>
<totfact> 0.33146991E+01</totfact>
</mgrwt>
</event>
<event>
12    6  0.1510140E-007  0.1862358E+04  0.7818608E-02  0.8673824E-01
          2   -1    0    0  501    0  0.00000000000E+00  0.00000000000E+00  0.21065328013E+04  0.21065328013E+04  0.00000000000E+00 0. -1.
         -1   -1    0    0    0  501 -0.00000000000E+00 -0.00000000000E+00 -0.41162139150E+03  0.41162139150E+03  0.00000000000E+00 0.  1.
         24    2    1    2    0    0 -0.24103420242E+03  0.28192007977E+03  0.14927192222E+04  0.15399825012E+04  0.75888139924E+02 0.  0.
        254    2    1    2    0    0  0.24103420242E+03 -0.28192007977E+03  0.20219218768E+03  0.97817169161E+03  0.88224812803E+03 0.  0.
         23    2    4    4    0    0  0.38177247279E+03  0.13847721403E+03 -0.10721747152E+03  0.42933353284E+03  0.88913083632E+02 0.  0.
         23    2    4    4    0    0 -0.14073827037E+03 -0.42039729379E+03  0.30940965919E+03  0.54883815877E+03  0.94593033291E+02 0.  0.
          4    1    3    3  502    0 -0.14571808836E+03  0.12679348185E+03  0.87045924152E+03  0.89163313054E+03  0.00000000000E+00 0. -1.
         -3    1    3    3    0  502 -0.95316114061E+02  0.15512659791E+03  0.62225998064E+03  0.64834937070E+03  0.00000000000E+00 0.  1.
         11    1    5    5    0    0  0.35769463456E+03  0.14479763448E+03 -0.83232195016E+02  0.39476499950E+03  0.00000000000E+00 0. -1.
        -11    1    5    5    0    0  0.24077838223E+02 -0.63204204514E+01 -0.23985276504E+02  0.34568533338E+02  0.00000000000E+00 0.  1.
          3    1    6    6  503    0 -0.45494019551E+02 -0.22732036708E+03  0.20543630400E+03  0.30975527454E+03  0.00000000000E+00 0. -1.
         -3    1    6    6    0  503 -0.95244250818E+02 -0.19307692671E+03  0.10397335520E+03  0.23908288423E+03  0.00000000000E+00 0.  1.
<mgrwt>
<rscale>  0 0.18623576E+04</rscale>
<asrwt>0</asrwt>
<pdfrwt beam="1">  1        2 0.32408196E+00 0.18623576E+04</pdfrwt>
<pdfrwt beam="2">  1       -1 0.63326369E-01 0.18623576E+04</pdfrwt>
<totfact> 0.15763809E+01</totfact>
</mgrwt>
</event>
<event>
12    6  0.1617371E-007  0.2801033E+04  0.7818608E-02  0.8302948E-01
          2   -1    0    0  501    0  0.00000000000E+00  0.00000000000E+00  0.27243855564E+04  0.27243855564E+04  0.00000000000E+00 0. -1.
         -1   -1    0    0    0  501 -0.00000000000E+00 -0.00000000000E+00 -0.71995897968E+03  0.71995897968E+03  0.00000000000E+00 0.  1.
         24    2    1    2    0    0  0.64469037870E+03  0.74132876142E+03 -0.59193443048E+02  0.98741876721E+03  0.79359569292E+02 0.  0.
        254    2    1    2    0    0 -0.64469037870E+03 -0.74132876142E+03  0.20636200198E+04  0.24569257689E+04  0.90153348845E+03 0.  0.
         23    2    4    4    0    0  0.17502510624E+03 -0.17552173635E+03  0.16950542763E+03  0.31486465427E+03  0.94688926320E+02 0.  0.
         23    2    4    4    0    0 -0.81971548494E+03 -0.56580702507E+03  0.18941145921E+04  0.21420611146E+04  0.93191548013E+02 0.  0.
          4    1    3    3  502    0  0.89962810412E+02  0.85911775564E+02 -0.31465042363E+02  0.12831285722E+03  0.00000000000E+00 0. -1.
         -3    1    3    3    0  502  0.55472756829E+03  0.65541698586E+03 -0.27728400685E+02  0.85910590999E+03  0.00000000000E+00 0.  1.
         11    1    5    5    0    0  0.82629641325E+02 -0.14624528205E+03  0.98604303660E+02  0.19477717743E+03  0.00000000000E+00 0. -1.
        -11    1    5    5    0    0  0.92395464912E+02 -0.29276454294E+02  0.70901123972E+02  0.12008747684E+03  0.00000000000E+00 0.  1.
          2    1    6    6  503    0 -0.58107783925E+03 -0.34918252928E+03  0.13015536154E+04  0.14675223024E+04  0.00000000000E+00 0. -1.
         -2    1    6    6    0  503 -0.23863764569E+03 -0.21662449579E+03  0.59256097669E+03  0.67453881223E+03  0.00000000000E+00 0.  1.
<mgrwt>
<rscale>  0 0.28010326E+04</rscale>
<asrwt>0</asrwt>
<pdfrwt beam="1">  1        2 0.41913623E+00 0.28010326E+04</pdfrwt>
<pdfrwt beam="2">  1       -1 0.11076292E+00 0.28010326E+04</pdfrwt>
<totfact> 0.19060634E+00</totfact>
</mgrwt>
</event>
<event>
12    6  0.1510140E-007  0.1839346E+04  0.7818608E-02  0.8685651E-01
         -1   -1    0    0    0  501 -0.00000000000E+00  0.00000000000E+00  0.64632951087E+03  0.64632951087E+03  0.00000000000E+00 0.  1.
          2   -1    0    0  501    0  0.00000000000E+00 -0.00000000000E+00 -0.13086181842E+04  0.13086181842E+04  0.00000000000E+00 0. -1.
         24    2    1    2    0    0 -0.37771161819E+03 -0.44814613209E+03  0.14858258995E+03  0.61006433511E+03  0.81244598029E+02 0.  0.
        254    2    1    2    0    0  0.37771161819E+03  0.44814613209E+03 -0.81087126328E+03  0.13448833600E+04  0.89872021456E+03 0.  0.
         23    2    4    4    0    0  0.30812518691E+03  0.58245773567E+03 -0.92174444693E+03  0.11366486931E+04  0.90328740513E+02 0.  0.
         23    2    4    4    0    0  0.69586431280E+02 -0.13431160358E+03  0.11087318366E+03  0.20823466689E+03  0.90481685240E+02 0.  0.
          4    1    3    3  502    0 -0.26028577829E+02 -0.72111010447E+02  0.14422940323E+02  0.78009652602E+02  0.00000000000E+00 0. -1.
         -3    1    3    3    0  502 -0.35168304036E+03 -0.37603512165E+03  0.13415964962E+03  0.53205468251E+03  0.00000000000E+00 0.  1.
         11    1    5    5    0    0  0.14398508879E+03  0.30824526778E+03 -0.54661654931E+03  0.64384509230E+03  0.00000000000E+00 0.  1.
        -11    1    5    5    0    0  0.16414009812E+03  0.27421246789E+03 -0.37512789763E+03  0.49280360078E+03  0.00000000000E+00 0. -1.
          4    1    6    6  503    0 -0.16364900147E+02 -0.52838893349E+02  0.19492733470E+02  0.58649171054E+02  0.00000000000E+00 0. -1.
         -4    1    6    6    0  503  0.85951331428E+02 -0.81472710231E+02  0.91380450187E+02  0.14958549583E+03  0.00000000000E+00 0.  1.
<mgrwt>
<rscale>  0 0.18393461E+04</rscale>
<asrwt>0</asrwt>
<pdfrwt beam="1">  1        2 0.20132587E+00 0.18393461E+04</pdfrwt>
<pdfrwt beam="2">  1       -1 0.99435309E-01 0.18393461E+04</pdfrwt>
<totfact> 0.16927965E+01</totfact>
</mgrwt>
</event>
<event>
12    6  0.1510140E-007  0.3168993E+04  0.7818608E-02  0.8197054E-01
          2   -1    0    0  501    0  0.00000000000E+00  0.00000000000E+00  0.22755181806E+04  0.22755181806E+04  0.00000000000E+00 0. -1.
         -1   -1    0    0    0  501 -0.00000000000E+00 -0.00000000000E+00 -0.11033217765E+04  0.11033217765E+04  0.00000000000E+00 0.  1.
         24    2    1    2    0    0  0.91686795055E+03 -0.97958192364E+03  0.11405259871E+04  0.17629676401E+04  0.83831908738E+02 0.  0.
        254    2    1    2    0    0 -0.91686795055E+03  0.97958192364E+03  0.31670416986E+02  0.16158723169E+04  0.89989596367E+03 0.  0.
         23    2    4    4    0    0 -0.10863152588E+04  0.80778260030E+03  0.43641506602E+02  0.13575338470E+04  0.91651480156E+02 0.  0.
         23    2    4    4    0    0  0.16944730825E+03  0.17179932335E+03 -0.11971089616E+02  0.25833846993E+03  0.91477102516E+02 0.  0.
          4    1    3    3  502    0  0.30642395149E+03 -0.36319172544E+03  0.44568647167E+03  0.65149082765E+03  0.00000000000E+00 0. -1.
         -3    1    3    3    0  502  0.61044399905E+03 -0.61639019820E+03  0.69483951543E+03  0.11114768125E+04  0.00000000000E+00 0.  1.
         11    1    5    5    0    0 -0.18996769116E+03  0.15641993510E+03 -0.25257974851E+02  0.24737195693E+03  0.00000000000E+00 0.  1.
        -11    1    5    5    0    0 -0.89634756763E+03  0.65136266520E+03  0.68899481453E+02  0.11101618901E+04  0.00000000000E+00 0. -1.
          3    1    6    6  503    0  0.15754672864E+03  0.16541998753E+03  0.14209166240E+02  0.22888128885E+03  0.00000000000E+00 0. -1.
         -3    1    6    6    0  503  0.11900579603E+02  0.63793358132E+01 -0.26180255856E+02  0.29457181077E+02  0.00000000000E+00 0.  1.
<mgrwt>
<rscale>  0 0.31689927E+04</rscale>
<asrwt>0</asrwt>
<pdfrwt beam="1">  1        2 0.35007972E+00 0.31689927E+04</pdfrwt>
<pdfrwt beam="2">  1       -1 0.16974181E+00 0.31689927E+04</pdfrwt>
<totfact> 0.11102220E+00</totfact>
</mgrwt>
</event>
<event>
12    6  0.1510140E-007  0.3122523E+04  0.7818608E-02  0.8209584E-01
          2   -1    0    0  501    0  0.00000000000E+00  0.00000000000E+00  0.31970560327E+04  0.31970560327E+04  0.00000000000E+00 0. -1.
         -1   -1    0    0    0  501 -0.00000000000E+00 -0.00000000000E+00 -0.76243182470E+03  0.76243182470E+03  0.00000000000E+00 0.  1.
         24    2    1    2    0    0 -0.35597875507E+03  0.28272234335E+03 -0.60280998672E+03  0.75925426219E+03  0.80214444309E+02 0.  0.
        254    2    1    2    0    0  0.35597875507E+03 -0.28272234335E+03  0.30374341947E+04  0.32002335952E+04  0.89935297810E+03 0.  0.
         23    2    4    4    0    0  0.51731522562E+03 -0.47368230863E+03  0.25295197405E+04  0.26267140681E+04  0.95742914072E+02 0.  0.
         23    2    4    4    0    0 -0.16133647055E+03  0.19095996528E+03  0.50791445420E+03  0.57351952714E+03  0.91936881357E+02 0.  0.
          2    1    3    3  502    0 -0.25050229295E+03  0.23200037504E+03 -0.40827088564E+03  0.53222240544E+03  0.00000000000E+00 0. -1.
         -1    1    3    3    0  502 -0.10547646212E+03  0.50721968310E+02 -0.19453910108E+03  0.22703185675E+03  0.00000000000E+00 0.  1.
         11    1    5    5    0    0  0.38607587137E+03 -0.39357079228E+03  0.20695359476E+04  0.21417123022E+04  0.00000000000E+00 0. -1.
        -11    1    5    5    0    0  0.13123935425E+03 -0.80111516355E+02  0.45998379296E+03  0.48500176592E+03  0.00000000000E+00 0.  1.
          2    1    6    6  503    0 -0.90404997996E+02  0.86285581077E+02  0.34733036256E+03  0.36912957877E+03  0.00000000000E+00 0.  1.
         -2    1    6    6    0  503 -0.70931472558E+02  0.10467438420E+03  0.16058409164E+03  0.20438994837E+03  0.00000000000E+00 0. -1.
<mgrwt>
<rscale>  0 0.31225229E+04</rscale>
<asrwt>0</asrwt>
<pdfrwt beam="1">  1        2 0.49185477E+00 0.31225229E+04</pdfrwt>
<pdfrwt beam="2">  1       -1 0.11729721E+00 0.31225229E+04</pdfrwt>
<totfact> 0.81982169E-01</totfact>
</mgrwt>
</event>
<event>
12    6  0.1510140E-007  0.2128936E+04  0.7818608E-02  0.8548603E-01
          2   -1    0    0  501    0  0.00000000000E+00  0.00000000000E+00  0.15418224799E+04  0.15418224799E+04  0.00000000000E+00 0. -1.
         -1   -1    0    0    0  501 -0.00000000000E+00 -0.00000000000E+00 -0.73490437916E+03  0.73490437916E+03  0.00000000000E+00 0.  1.
         24    2    1    2    0    0  0.11331449608E+03  0.32674524872E+03 -0.52799659396E+03  0.63870607239E+03  0.97787581474E+02 0.  0.
        254    2    1    2    0    0 -0.11331449608E+03 -0.32674524872E+03  0.13349146947E+04  0.16380207866E+04  0.88403179969E+03 0.  0.
         23    2    4    4    0    0  0.82583112459E+02 -0.53199446385E+03  0.11838037050E+04  0.13036493571E+04  0.90952482613E+02 0.  0.
         23    2    4    4    0    0 -0.19589760854E+03  0.20524921512E+03  0.15111098964E+03  0.33437142959E+03  0.92014174962E+02 0.  0.
          2    1    3    3  502    0  0.33969986182E+02  0.18544180461E+02 -0.36687327762E+02  0.53327353286E+02  0.00000000000E+00 0. -1.
         -1    1    3    3    0  502  0.79344509902E+02  0.30820106826E+03 -0.49130926620E+03  0.58537871910E+03  0.00000000000E+00 0.  1.
         11    1    5    5    0    0 -0.17667149408E+02 -0.54988797811E+02  0.14871482039E+03  0.15953681035E+03  0.00000000000E+00 0.  1.
        -11    1    5    5    0    0  0.10025026187E+03 -0.47700566604E+03  0.10350888846E+04  0.11441125467E+04  0.00000000000E+00 0. -1.
          4    1    6    6  503    0 -0.48164585238E+02  0.93063202271E+01  0.46557695840E+02  0.67631752227E+02  0.00000000000E+00 0. -1.
         -4    1    6    6    0  503 -0.14773302331E+03  0.19594289490E+03  0.10455329380E+03  0.26673967737E+03  0.00000000000E+00 0.  1.
<mgrwt>
<rscale>  0 0.21289360E+04</rscale>
<asrwt>0</asrwt>
<pdfrwt beam="1">  1        2 0.23720346E+00 0.21289360E+04</pdfrwt>
<pdfrwt beam="2">  1       -1 0.11306221E+00 0.21289360E+04</pdfrwt>
<totfact> 0.90024467E+00</totfact>
</mgrwt>
</event>
<event>
12    6  0.1510140E-007  0.2426178E+04  0.7818608E-02  0.8429767E-01
          2   -1    0    0  501    0  0.00000000000E+00  0.00000000000E+00  0.85409612714E+03  0.85409612714E+03  0.00000000000E+00 0. -1.
         -1   -1    0    0    0  501 -0.00000000000E+00 -0.00000000000E+00 -0.17229737275E+04  0.17229737275E+04  0.00000000000E+00 0.  1.
         24    2    1    2    0    0  0.98334730696E+03 -0.10927395705E+03 -0.11859056705E+03  0.99965248275E+03  0.79552748967E+02 0.  0.
        254    2    1    2    0    0 -0.98334730696E+03  0.10927395705E+03 -0.75028703334E+03  0.15774173719E+04  0.97283205592E+03 0.  0.
         23    2    4    4    0    0  0.26866120651E+02 -0.23775573596E+03  0.20655520706E+02  0.25651352463E+03  0.90127461739E+02 0.  0.
         23    2    4    4    0    0 -0.10102134276E+04  0.34702969301E+03 -0.77094255405E+03  0.13209038473E+04  0.97333318990E+02 0.  0.
          4    1    3    3  502    0  0.87741707888E+03 -0.81545080172E+02 -0.12472593954E+03  0.88998139891E+03  0.00000000000E+00 0. -1.
         -3    1    3    3    0  502  0.10593022809E+03 -0.27728876878E+02  0.61353724882E+01  0.10967108384E+03  0.00000000000E+00 0.  1.
         11    1    5    5    0    0  0.43631860720E+02 -0.17725258468E+03  0.46889656056E+02  0.18846977978E+03  0.00000000000E+00 0.  1.
        -11    1    5    5    0    0 -0.16765740069E+02 -0.60503151278E+02 -0.26234135350E+02  0.68043744843E+02  0.00000000000E+00 0. -1.
          3    1    6    6  503    0 -0.68963431147E+03  0.27507148986E+03 -0.56684377831E+03  0.93411545170E+03  0.00000000000E+00 0. -1.
         -3    1    6    6    0  503 -0.32057911615E+03  0.71958203149E+02 -0.20409877574E+03  0.38678839560E+03  0.00000000000E+00 0.  1.
<mgrwt>
<rscale>  0 0.24261782E+04</rscale>
<asrwt>0</asrwt>
<pdfrwt beam="1">  1        2 0.13139941E+00 0.24261782E+04</pdfrwt>
<pdfrwt beam="2">  1       -1 0.26507288E+00 0.24261782E+04</pdfrwt>
<totfact> 0.17946638E+00</totfact>
</mgrwt>
</event>
<event>
12    6  0.1510140E-007  0.1949635E+04  0.7818608E-02  0.8630537E-01
         -1   -1    0    0    0  501 -0.00000000000E+00  0.00000000000E+00  0.14816323015E+04  0.14816323015E+04  0.00000000000E+00 0.  1.
          2   -1    0    0  501    0  0.00000000000E+00 -0.00000000000E+00 -0.64136615937E+03  0.64136615937E+03  0.00000000000E+00 0. -1.
         24    2    1    2    0    0 -0.40687185127E+03 -0.63976229106E+03  0.43453543921E+03  0.87778068698E+03  0.82688536629E+02 0.  0.
        254    2    1    2    0    0  0.40687185127E+03  0.63976229106E+03  0.40573070293E+03  0.12452177739E+04  0.90061612727E+03 0.  0.
         23    2    4    4    0    0 -0.19747682122E+03  0.49941217774E+03  0.13024663738E+03  0.56002941275E+03  0.90879801980E+02 0.  0.
         23    2    4    4    0    0  0.60434867249E+03  0.14035011332E+03  0.27548406555E+03  0.68518836114E+03  0.93038420151E+02 0.  0.
          2    1    3    3  502    0 -0.25640472150E+03 -0.42168605010E+03  0.23809210629E+03  0.54795105360E+03  0.00000000000E+00 0. -1.
         -1    1    3    3    0  502 -0.15046712977E+03 -0.21807624096E+03  0.19644333292E+03  0.32982963339E+03  0.00000000000E+00 0.  1.
         11    1    5    5    0    0 -0.15022782005E+03  0.43259528700E+03  0.13679458349E+03  0.47793288057E+03  0.00000000000E+00 0. -1.
        -11    1    5    5    0    0 -0.47249001164E+02  0.66816890738E+02 -0.65479461109E+01  0.82096532187E+02  0.00000000000E+00 0.  1.
          2    1    6    6  503    0  0.16079717796E+03  0.56703760984E+02  0.11707973607E+03  0.20683015628E+03  0.00000000000E+00 0.  1.
         -2    1    6    6    0  503  0.44355149453E+03  0.83646352340E+02  0.15840432948E+03  0.47835820486E+03  0.00000000000E+00 0. -1.
<mgrwt>
<rscale>  0 0.19496347E+04</rscale>
<asrwt>0</asrwt>
<pdfrwt beam="1">  1        2 0.98671717E-01 0.19496347E+04</pdfrwt>
<pdfrwt beam="2">  1       -1 0.22794343E+00 0.19496347E+04</pdfrwt>
<totfact> 0.47424156E+00</totfact>
</mgrwt>
</event>
<event>
12    6  0.1510140E-007  0.1083328E+04  0.7818608E-02  0.9221596E-01
          2   -1    0    0  501    0  0.00000000000E+00  0.00000000000E+00  0.15072102229E+04  0.15072102229E+04  0.00000000000E+00 0. -1.
         -1   -1    0    0    0  501 -0.00000000000E+00 -0.00000000000E+00 -0.19466416795E+03  0.19466416795E+03  0.00000000000E+00 0.  1.
         24    2    1    2    0    0 -0.10093806181E+02 -0.99374431844E+02  0.38779924259E+02  0.13411544712E+03  0.80659209038E+02 0.  0.
        254    2    1    2    0    0  0.10093806181E+02  0.99374431844E+02  0.12737661307E+04  0.15677589437E+04  0.90852120907E+03 0.  0.
         23    2    4    4    0    0 -0.71192509522E+02 -0.27631557339E+03  0.82672613561E+02  0.31322965745E+03  0.99294449827E+02 0.  0.
         23    2    4    4    0    0  0.81286315702E+02  0.37569000523E+03  0.11910935171E+04  0.12545292863E+04  0.85962308281E+02 0.  0.
          4    1    3    3  502    0 -0.43006132794E+02 -0.57557664742E+02  0.37125021112E+02  0.80874467052E+02  0.00000000000E+00 0. -1.
         -3    1    3    3    0  502  0.32912326613E+02 -0.41816767103E+02  0.16549031469E+01  0.53240980066E+02  0.00000000000E+00 0.  1.
         11    1    5    5    0    0 -0.72276290427E+02 -0.18167746450E+03  0.95704685502E+02  0.21769232897E+03  0.00000000000E+00 0. -1.
        -11    1    5    5    0    0  0.10837809051E+01 -0.94638108881E+02 -0.13032071941E+02  0.95537328478E+02  0.00000000000E+00 0.  1.
          2    1    6    6  503    0  0.83070660676E+02  0.34200955814E+03  0.99167635878E+03  0.10522800355E+04  0.00000000000E+00 0. -1.
         -2    1    6    6    0  503 -0.17843449739E+01  0.33680447091E+02  0.19941715834E+03  0.20224925079E+03  0.00000000000E+00 0.  1.
<mgrwt>
<rscale>  0 0.10833279E+04</rscale>
<asrwt>0</asrwt>
<pdfrwt beam="1">  1        2 0.23187849E+00 0.10833279E+04</pdfrwt>
<pdfrwt beam="2">  1       -1 0.29948335E-01 0.10833279E+04</pdfrwt>
<totfact> 0.14563397E+02</totfact>
</mgrwt>
</event>
<event>
12    6  0.1510140E-007  0.1582006E+04  0.7818608E-02  0.8831679E-01
          2   -1    0    0  501    0  0.00000000000E+00  0.00000000000E+00  0.11302354551E+04  0.11302354551E+04  0.00000000000E+00 0. -1.
         -1   -1    0    0    0  501 -0.00000000000E+00 -0.00000000000E+00 -0.55358917961E+03  0.55358917961E+03  0.00000000000E+00 0.  1.
         24    2    1    2    0    0  0.23217646856E+03  0.35702000659E+03  0.54456130868E+03  0.69582658650E+03  0.79110188428E+02 0.  0.
        254    2    1    2    0    0 -0.23217646856E+03 -0.35702000659E+03  0.32084966767E+02  0.98799804816E+03  0.89092171397E+03 0.  0.
         23    2    4    4    0    0 -0.33890555743E+03 -0.27675310035E+03 -0.35391598796E+03  0.56978426455E+03  0.89153385746E+02 0.  0.
         23    2    4    4    0    0  0.10672908887E+03 -0.80266906244E+02  0.38600095473E+03  0.41821378361E+03  0.89845184060E+02 0.  0.
          4    1    3    3  502    0  0.22663277360E+03  0.32428188568E+03  0.52468936161E+03  0.65713018622E+03  0.00000000000E+00 0. -1.
         -3    1    3    3    0  502  0.55436949603E+01  0.32738120915E+02  0.19871947068E+02  0.38696400287E+02  0.00000000000E+00 0.  1.
         11    1    5    5    0    0  0.31046957367E+01 -0.16356354006E+02 -0.11894991134E+02  0.20461189263E+02  0.00000000000E+00 0.  1.
        -11    1    5    5    0    0 -0.34201025316E+03 -0.26039674634E+03 -0.34202099683E+03  0.54932307529E+03  0.00000000000E+00 0. -1.
          3    1    6    6  503    0  0.30056714246E+02 -0.53890306051E+02  0.26818932518E+03  0.27519644856E+03  0.00000000000E+00 0. -1.
         -3    1    6    6    0  503  0.76672374623E+02 -0.26376600192E+02  0.11781162955E+03  0.14301733505E+03  0.00000000000E+00 0.  1.
<mgrwt>
<rscale>  0 0.15820065E+04</rscale>
<asrwt>0</asrwt>
<pdfrwt beam="1">  1        2 0.17388238E+00 0.15820065E+04</pdfrwt>
<pdfrwt beam="2">  1       -1 0.85167566E-01 0.15820065E+04</pdfrwt>
<totfact> 0.31168132E+01</totfact>
</mgrwt>
</event>
<event>
12    6  0.1510140E-007  0.1123894E+04  0.7818608E-02  0.9182211E-01
          2   -1    0    0  501    0  0.00000000000E+00  0.00000000000E+00  0.48721820001E+03  0.48721820001E+03  0.00000000000E+00 0. -1.
         -1   -1    0    0    0  501 -0.00000000000E+00 -0.00000000000E+00 -0.64813712178E+03  0.64813712178E+03  0.00000000000E+00 0.  1.
         24    2    1    2    0    0  0.99504622756E+02 -0.85365764885E+02  0.92234393665E+02  0.17968848021E+03  0.81192873966E+02 0.  0.
        254    2    1    2    0    0 -0.99504622756E+02  0.85365764885E+02 -0.25315331544E+03  0.95566684158E+03  0.91215351077E+03 0.  0.
         23    2    4    4    0    0 -0.40427333376E+03 -0.22856674070E+03 -0.15495737637E+03  0.49762509407E+03  0.89102538715E+02 0.  0.
         23    2    4    4    0    0  0.30476871101E+03  0.31393250558E+03 -0.98195939065E+02  0.45804174751E+03  0.93392798132E+02 0.  0.
          2    1    3    3  502    0  0.10758519473E+03 -0.51639800053E+02  0.67646689580E+02  0.13717622858E+03  0.00000000000E+00 0. -1.
         -1    1    3    3    0  502 -0.80805719753E+01 -0.33725964832E+02  0.24587704085E+02  0.42512251639E+02  0.00000000000E+00 0.  1.
         11    1    5    5    0    0 -0.27408049914E+03 -0.17213786745E+03 -0.66497754261E+02  0.33041415941E+03  0.00000000000E+00 0. -1.
        -11    1    5    5    0    0 -0.13019283462E+03 -0.56428873254E+02 -0.88459622110E+02  0.16721093465E+03  0.00000000000E+00 0.  1.
          2    1    6    6  503    0  0.25257130277E+03  0.22131352257E+03 -0.43924577051E+02  0.33867581361E+03  0.00000000000E+00 0. -1.
         -2    1    6    6    0  503  0.52197408237E+02  0.92618983013E+02 -0.54271362014E+02  0.11936593390E+03  0.00000000000E+00 0.  1.
<mgrwt>
<rscale>  0 0.11238936E+04</rscale>
<asrwt>0</asrwt>
<pdfrwt beam="1">  1        2 0.74956646E-01 0.11238936E+04</pdfrwt>
<pdfrwt beam="2">  1       -1 0.99713403E-01 0.11238936E+04</pdfrwt>
<totfact> 0.69081362E+01</totfact>
</mgrwt>
</event>
<event>
12    6  0.1510140E-007  0.1214561E+04  0.7818608E-02  0.9100206E-01
         -1   -1    0    0    0  501 -0.00000000000E+00  0.00000000000E+00  0.13240611163E+03  0.13240611163E+03  0.00000000000E+00 0.  1.
          2   -1    0    0  501    0  0.00000000000E+00 -0.00000000000E+00 -0.27852902516E+04  0.27852902516E+04  0.00000000000E+00 0. -1.
         24    2    1    2    0    0 -0.75759207070E+02  0.25419400976E+03 -0.56733416965E+03  0.63114039867E+03  0.78205439233E+02 0.  0.
        254    2    1    2    0    0  0.75759207070E+02 -0.25419400976E+03 -0.20855499703E+04  0.22865559646E+04  0.89914706713E+03 0.  0.
         23    2    4    4    0    0 -0.15063446756E+03 -0.49187717093E+03 -0.16631783617E+04  0.17438200343E+04  0.10055921118E+03 0.  0.
         23    2    4    4    0    0  0.22639367463E+03  0.23768316117E+03 -0.42237160864E+03  0.54273593032E+03  0.91744935888E+02 0.  0.
          4    1    3    3  502    0 -0.33882449913E+02  0.13536858304E+03 -0.20900932968E+03  0.25131170601E+03  0.00000000000E+00 0. -1.
         -3    1    3    3    0  502 -0.41876757158E+02  0.11882542673E+03 -0.35832483997E+03  0.37982869266E+03  0.00000000000E+00 0.  1.
         11    1    5    5    0    0 -0.13278955491E+03 -0.26439825617E+03 -0.92095352357E+03  0.96731323590E+03  0.00000000000E+00 0.  1.
        -11    1    5    5    0    0 -0.17844912646E+02 -0.22747891476E+03 -0.74222483812E+03  0.77650679835E+03  0.00000000000E+00 0. -1.
          3    1    6    6  503    0  0.16821699776E+03  0.22248211295E+03 -0.36728922969E+03  0.46119044565E+03  0.00000000000E+00 0. -1.
         -3    1    6    6    0  503  0.58176676875E+02  0.15201048226E+02 -0.55082378950E+02  0.81545484670E+02  0.00000000000E+00 0.  1.
<mgrwt>
<rscale>  0 0.12145607E+04</rscale>
<asrwt>0</asrwt>
<pdfrwt beam="1">  1        2 0.42850617E+00 0.12145607E+04</pdfrwt>
<pdfrwt beam="2">  1       -1 0.20370172E-01 0.12145607E+04</pdfrwt>
<totfact> 0.53107730E+01</totfact>
</mgrwt>
</event>
<event>
12    6  0.1510140E-007  0.3644585E+04  0.7818608E-02  0.8080355E-01
         -1   -1    0    0    0  501 -0.00000000000E+00  0.00000000000E+00  0.12698052764E+04  0.12698052764E+04  0.00000000000E+00 0.  1.
          2   -1    0    0  501    0  0.00000000000E+00 -0.00000000000E+00 -0.26151647929E+04  0.26151647929E+04  0.00000000000E+00 0. -1.
         24    2    1    2    0    0  0.13518927266E+04  0.44786823846E+03  0.37550297915E+03  0.14748102193E+04  0.76568872464E+02 0.  0.
        254    2    1    2    0    0 -0.13518927266E+04 -0.44786823846E+03 -0.17208624957E+04  0.24101598501E+04  0.90515350675E+03 0.  0.
         23    2    4    4    0    0 -0.47050140271E+03 -0.60824762907E+02 -0.60542400583E+02  0.48878416229E+03  0.10086304230E+03 0.  0.
         23    2    4    4    0    0 -0.88139132388E+03 -0.38704347555E+03 -0.16603200951E+04  0.19213756878E+04  0.91478947063E+02 0.  0.
          4    1    3    3  502    0  0.81675770602E+03  0.26845158707E+03  0.26524885322E+03  0.89973127048E+03  0.00000000000E+00 0. -1.
         -3    1    3    3    0  502  0.53513502057E+03  0.17941665139E+03  0.11025412593E+03  0.57507894877E+03  0.00000000000E+00 0.  1.
         11    1    5    5    0    0 -0.99139759768E+01  0.30276268675E+01 -0.19374102702E+02  0.21972921964E+02  0.00000000000E+00 0. -1.
        -11    1    5    5    0    0 -0.46058742674E+03 -0.63852389775E+02 -0.41168297881E+02  0.46681124033E+03  0.00000000000E+00 0.  1.
          4    1    6    6  503    0 -0.62627681093E+02 -0.53844889569E+02 -0.12685267119E+03  0.15137073284E+03  0.00000000000E+00 0. -1.
         -4    1    6    6    0  503 -0.81876364279E+03 -0.33319858598E+03 -0.15334674239E+04  0.17700049550E+04  0.00000000000E+00 0.  1.
<mgrwt>
<rscale>  0 0.36445851E+04</rscale>
<asrwt>0</asrwt>
<pdfrwt beam="1">  1        2 0.40233304E+00 0.36445851E+04</pdfrwt>
<pdfrwt beam="2">  1       -1 0.19535466E+00 0.36445851E+04</pdfrwt>
<totfact> 0.44581567E-01</totfact>
</mgrwt>
</event>
<event>
12    6  0.1510140E-007  0.1928969E+04  0.7818608E-02  0.8640570E-01
         -1   -1    0    0    0  501 -0.00000000000E+00  0.00000000000E+00  0.14249308883E+04  0.14249308883E+04  0.00000000000E+00 0.  1.
          2   -1    0    0  501    0  0.00000000000E+00 -0.00000000000E+00 -0.65282460737E+03  0.65282460737E+03  0.00000000000E+00 0. -1.
         24    2    1    2    0    0  0.99341939363E+02 -0.55918622562E+03 -0.19914079383E+03  0.60794652129E+03  0.85929396256E+02 0.  0.
        254    2    1    2    0    0 -0.99341939363E+02  0.55918622562E+03  0.97124707471E+03  0.14698089743E+04  0.94575868225E+03 0.  0.
         23    2    4    4    0    0  0.13425418612E+03  0.19208629087E+03 -0.12756650893E+03  0.28433315010E+03  0.98238467069E+02 0.  0.
         23    2    4    4    0    0 -0.23359612548E+03  0.36709993475E+03  0.10988135836E+04  0.11854758242E+04  0.92909236889E+02 0.  0.
          4    1    3    3  502    0  0.30025085043E+02 -0.11542865431E+03 -0.78852156269E+02  0.14297881842E+03  0.00000000000E+00 0. -1.
         -3    1    3    3    0  502  0.69316854320E+02 -0.44375757131E+03 -0.12028863756E+03  0.46496770287E+03  0.00000000000E+00 0.  1.
         11    1    5    5    0    0  0.21914160935E+01  0.31741650998E+02  0.12075450388E+02  0.34031620806E+02  0.00000000000E+00 0. -1.
        -11    1    5    5    0    0  0.13206277003E+03  0.16034463987E+03 -0.13964195932E+03  0.25030152929E+03  0.00000000000E+00 0.  1.
          1    1    6    6  503    0 -0.27459738080E+02  0.50255746630E+02  0.76813362309E+02  0.95812159531E+02  0.00000000000E+00 0. -1.
         -1    1    6    6    0  503 -0.20613638740E+03  0.31684418812E+03  0.10220002213E+04  0.10896636647E+04  0.00000000000E+00 0.  1.
<mgrwt>
<rscale>  0 0.19289686E+04</rscale>
<asrwt>0</asrwt>
<pdfrwt beam="1">  1        2 0.10043456E+00 0.19289686E+04</pdfrwt>
<pdfrwt beam="2">  1       -1 0.21922014E+00 0.19289686E+04</pdfrwt>
<totfact> 0.53139174E+00</totfact>
</mgrwt>
</event>
<event>
12    6  0.1510140E-007  0.1428416E+04  0.7818608E-02  0.8933502E-01
         -1   -1    0    0    0  501 -0.00000000000E+00  0.00000000000E+00  0.11881656272E+04  0.11881656272E+04  0.00000000000E+00 0.  1.
          2   -1    0    0  501    0  0.00000000000E+00 -0.00000000000E+00 -0.42931161228E+03  0.42931161228E+03  0.00000000000E+00 0. -1.
         24    2    1    2    0    0  0.37153660221E+03  0.82389014785E+02 -0.38361423228E+02  0.39120470044E+03  0.82110427542E+02 0.  0.
        254    2    1    2    0    0 -0.37153660221E+03 -0.82389014785E+02  0.79721543811E+03  0.12262725390E+04  0.85050837070E+03 0.  0.
         23    2    4    4    0    0 -0.26406418939E+03  0.18614237511E+02 -0.11119278496E+03  0.30138254344E+03  0.91603581276E+02 0.  0.
         23    2    4    4    0    0 -0.10747241282E+03 -0.10100325230E+03  0.90840822307E+03  0.92488999557E+03  0.92000150410E+02 0.  0.
          2    1    3    3  502    0  0.37560633640E+03  0.79439988290E+02 -0.39811481857E+02  0.38597381488E+03  0.00000000000E+00 0. -1.
         -1    1    3    3    0  502 -0.40697341920E+01  0.29490264953E+01  0.14500586297E+01  0.52308855553E+01  0.00000000000E+00 0.  1.
         11    1    5    5    0    0 -0.32826784121E+02  0.81342000321E+01  0.15835374542E+02  0.37343299971E+02  0.00000000000E+00 0.  1.
        -11    1    5    5    0    0 -0.23123740527E+03  0.10480037479E+02 -0.12702815951E+03  0.26403924347E+03  0.00000000000E+00 0. -1.
          1    1    6    6  503    0 -0.12215258519E+03 -0.87134094043E+02  0.72436435912E+03  0.73974139344E+03  0.00000000000E+00 0. -1.
         -1    1    6    6    0  503  0.14680172371E+02 -0.13869158252E+02  0.18404386395E+03  0.18514860213E+03  0.00000000000E+00 0.  1.
<mgrwt>
<rscale>  0 0.14284163E+04</rscale>
<asrwt>0</asrwt>
<pdfrwt beam="1">  1        2 0.66047941E-01 0.14284163E+04</pdfrwt>
<pdfrwt beam="2">  1       -1 0.18279471E+00 0.14284163E+04</pdfrwt>
<totfact> 0.16203211E+01</totfact>
</mgrwt>
</event>
<event>
12    6  0.1510140E-007  0.1393938E+04  0.7818608E-02  0.8958219E-01
         -1   -1    0    0    0  501 -0.00000000000E+00  0.00000000000E+00  0.26282083837E+03  0.26282083837E+03  0.00000000000E+00 0.  1.
          2   -1    0    0  501    0  0.00000000000E+00 -0.00000000000E+00 -0.18482760004E+04  0.18482760004E+04  0.00000000000E+00 0. -1.
         24    2    1    2    0    0  0.31527128990E+03  0.22429947605E+03 -0.32556333896E+03  0.51229187198E+03  0.82129368821E+02 0.  0.
        254    2    1    2    0    0 -0.31527128990E+03 -0.22429947605E+03 -0.12598918231E+04  0.15988049668E+04  0.90506556384E+03 0.  0.
         23    2    4    4    0    0 -0.93104986249E+02  0.29560490493E+03 -0.16779558503E+03  0.36563096357E+03  0.97364494965E+02 0.  0.
         23    2    4    4    0    0 -0.22216630365E+03 -0.51990438098E+03 -0.10920962380E+04  0.12331740032E+04  0.91572360934E+02 0.  0.
          4    1    3    3  502    0 -0.66026230285E+00  0.23711562261E-01  0.37478655036E+01  0.38056542644E+01  0.00000000000E+00 0. -1.
         -3    1    3    3    0  502  0.31593155221E+03  0.22427576449E+03 -0.32931120446E+03  0.50848621771E+03  0.00000000000E+00 0.  1.
         11    1    5    5    0    0 -0.42844239562E+02  0.75773657093E+02 -0.44108033008E+01  0.87159228763E+02  0.00000000000E+00 0. -1.
        -11    1    5    5    0    0 -0.50260746688E+02  0.21983124784E+03 -0.16338478173E+03  0.27847173480E+03  0.00000000000E+00 0.  1.
          4    1    6    6  503    0 -0.71133812463E+02 -0.83191292477E+02 -0.24202252232E+03  0.26562325148E+03  0.00000000000E+00 0. -1.
         -4    1    6    6    0  503 -0.15103249119E+03 -0.43671308850E+03 -0.85007371573E+03  0.96755075176E+03  0.00000000000E+00 0.  1.
<mgrwt>
<rscale>  0 0.13939375E+04</rscale>
<asrwt>0</asrwt>
<pdfrwt beam="1">  1        2 0.28435016E+00 0.13939375E+04</pdfrwt>
<pdfrwt beam="2">  1       -1 0.40433974E-01 0.13939375E+04</pdfrwt>
<totfact> 0.53746179E+01</totfact>
</mgrwt>
</event>
<event>
12    6  0.1510140E-007  0.1253261E+04  0.7818608E-02  0.9067473E-01
         -1   -1    0    0    0  501 -0.00000000000E+00  0.00000000000E+00  0.97779408107E+03  0.97779408107E+03  0.00000000000E+00 0.  1.
          2   -1    0    0  501    0  0.00000000000E+00 -0.00000000000E+00 -0.40158342951E+03  0.40158342951E+03  0.00000000000E+00 0. -1.
         24    2    1    2    0    0 -0.19426594808E+03 -0.16311067887E+03  0.32748745595E+03  0.41898284135E+03  0.62882711428E+02 0.  0.
        254    2    1    2    0    0  0.19426594808E+03  0.16311067887E+03  0.24872319561E+03  0.96039466923E+03  0.89227257075E+03 0.  0.
         23    2    4    4    0    0  0.27919192392E+03  0.48446869474E+03  0.63011802552E+02  0.56897265582E+03  0.84269503642E+02 0.  0.
         23    2    4    4    0    0 -0.84925975838E+02 -0.32135801587E+03  0.18571139306E+03  0.39142201341E+03  0.90769352378E+02 0.  0.
          4    1    3    3  502    0 -0.19240391251E+02 -0.19301840597E+02  0.74859444546E+02  0.79666116659E+02  0.00000000000E+00 0. -1.
         -3    1    3    3    0  502 -0.17502555683E+03 -0.14380883827E+03  0.25262801141E+03  0.33931672469E+03  0.00000000000E+00 0.  1.
         11    1    5    5    0    0  0.24134291168E+02  0.10267005962E+03 -0.32106982945E+00  0.10546899183E+03  0.00000000000E+00 0. -1.
        -11    1    5    5    0    0  0.25505763275E+03  0.38179863512E+03  0.63332872381E+02  0.46350366399E+03  0.00000000000E+00 0.  1.
          2    1    6    6  503    0 -0.51584381773E+02 -0.29211910687E+03  0.14098489121E+03  0.32843760532E+03  0.00000000000E+00 0. -1.
         -2    1    6    6    0  503 -0.33341594065E+02 -0.29238909010E+02  0.44726501848E+02  0.62984408090E+02  0.00000000000E+00 0.  1.
<mgrwt>
<rscale>  0 0.12532612E+04</rscale>
<asrwt>0</asrwt>
<pdfrwt beam="1">  1        2 0.61782066E-01 0.12532612E+04</pdfrwt>
<pdfrwt beam="2">  1       -1 0.15042986E+00 0.12532612E+04</pdfrwt>
<totfact> 0.30845105E+01</totfact>
</mgrwt>
</event>
<event>
12    6  0.1510140E-007  0.1463473E+04  0.7818608E-02  0.8909113E-01
         -3   -1    0    0    0  501 -0.00000000000E+00  0.00000000000E+00  0.11806162719E+04  0.11806162719E+04  0.00000000000E+00 0.  1.
          4   -1    0    0  501    0  0.00000000000E+00 -0.00000000000E+00 -0.45352449535E+03  0.45352449535E+03  0.00000000000E+00 0. -1.
         24    2    1    2    0    0 -0.38717909115E+03  0.16933487271E+03  0.21069129819E+03  0.47890053013E+03  0.79830739040E+02 0.  0.
        254    2    1    2    0    0  0.38717909115E+03 -0.16933487271E+03  0.51640047840E+03  0.11552402371E+04  0.94304220674E+03 0.  0.
         23    2    4    4    0    0 -0.26569027463E+03  0.12422059246E+03  0.10823245058E+03  0.32601383897E+03  0.92459083989E+02 0.  0.
         23    2    4    4    0    0  0.65286936578E+03 -0.29355546516E+03  0.40816802782E+03  0.82922639818E+03  0.92747294335E+02 0.  0.
          2    1    3    3  502    0 -0.31515138341E+03  0.16936348658E+03  0.16908778167E+03  0.39572094076E+03  0.00000000000E+00 0. -1.
         -1    1    3    3    0  502 -0.72027707738E+02 -0.28613874229E-01  0.41603516522E+02  0.83179589370E+02  0.00000000000E+00 0.  1.
         11    1    5    5    0    0 -0.19695603039E+03  0.47880438355E+02  0.89602688007E+02  0.22161420528E+03  0.00000000000E+00 0. -1.
        -11    1    5    5    0    0 -0.68734244247E+02  0.76340154100E+02  0.18629762577E+02  0.10439963369E+03  0.00000000000E+00 0.  1.
          2    1    6    6  503    0  0.38924605580E+03 -0.21615036993E+03  0.22351333411E+03  0.49818840301E+03  0.00000000000E+00 0.  1.
         -2    1    6    6    0  503  0.26362330998E+03 -0.77405095235E+02  0.18465469372E+03  0.33103799517E+03  0.00000000000E+00 0. -1.
<mgrwt>
<rscale>  0 0.14634731E+04</rscale>
<asrwt>0</asrwt>
<pdfrwt beam="1">  1        4 0.69773000E-01 0.14634731E+04</pdfrwt>
<pdfrwt beam="2">  1       -3 0.18163327E+00 0.14634731E+04</pdfrwt>
<totfact> 0.80632135E-01</totfact>
</mgrwt>
</event>
<event>
12    6  0.1510140E-007  0.1715068E+04  0.7818608E-02  0.8752817E-01
         -1   -1    0    0    0  501 -0.00000000000E+00  0.00000000000E+00  0.31487018297E+03  0.31487018297E+03  0.00000000000E+00 0.  1.
          2   -1    0    0  501    0  0.00000000000E+00 -0.00000000000E+00 -0.23354522623E+04  0.23354522623E+04  0.00000000000E+00 0. -1.
         24    2    1    2    0    0  0.10397192477E+03  0.36490953895E+03 -0.15041427765E+04  0.15532860943E+04  0.79265792271E+02 0.  0.
        254    2    1    2    0    0 -0.10397192477E+03 -0.36490953895E+03 -0.51643930285E+03  0.10970363510E+04  0.89039882589E+03 0.  0.
         23    2    4    4    0    0 -0.20068290141E+03 -0.34909596415E+03  0.13301436983E+03  0.43388681432E+03  0.91778679197E+02 0.  0.
         23    2    4    4    0    0  0.96710976634E+02 -0.15813574807E+02 -0.64945367268E+03  0.66314953669E+03  0.91510397817E+02 0.  0.
          4    1    3    3  502    0  0.44745846851E+02  0.17693222845E+03 -0.88155630256E+03  0.90024925374E+03  0.00000000000E+00 0. -1.
         -3    1    3    3    0  502  0.59226077922E+02  0.18797731050E+03 -0.62258647396E+03  0.65303684056E+03  0.00000000000E+00 0.  1.
         11    1    5    5    0    0 -0.61529475084E+02 -0.61064020267E+02 -0.19177833978E+01  0.86708527657E+02  0.00000000000E+00 0. -1.
        -11    1    5    5    0    0 -0.13915342632E+03 -0.28803194388E+03  0.13493215323E+03  0.34717828666E+03  0.00000000000E+00 0.  1.
          1    1    6    6  503    0 -0.13230059601E+01  0.24314774324E+02 -0.70551891391E+02  0.74635969707E+02  0.00000000000E+00 0. -1.
         -1    1    6    6    0  503  0.98033982594E+02 -0.40128349131E+02 -0.57890178129E+03  0.58851356698E+03  0.00000000000E+00 0.  1.
<mgrwt>
<rscale>  0 0.17150677E+04</rscale>
<asrwt>0</asrwt>
<pdfrwt beam="1">  1        2 0.35930035E+00 0.17150677E+04</pdfrwt>
<pdfrwt beam="2">  1       -1 0.48441566E-01 0.17150677E+04</pdfrwt>
<totfact> 0.19986186E+01</totfact>
</mgrwt>
</event>
<event>
12    6  0.1510140E-007  0.1182485E+04  0.7818608E-02  0.9128327E-01
         -1   -1    0    0    0  501 -0.00000000000E+00  0.00000000000E+00  0.79273459153E+03  0.79273459153E+03  0.00000000000E+00 0.  1.
          2   -1    0    0  501    0  0.00000000000E+00 -0.00000000000E+00 -0.44096429042E+03  0.44096429042E+03  0.00000000000E+00 0. -1.
         24    2    1    2    0    0  0.15856511024E+02  0.20413191249E+02 -0.17186152841E+03  0.19112642363E+03  0.79528595767E+02 0.  0.
        254    2    1    2    0    0 -0.15856511024E+02 -0.20413191249E+02  0.52363182951E+03  0.10425724583E+04  0.90116530706E+03 0.  0.
         23    2    4    4    0    0 -0.78996988828E+02 -0.85786198493E+02  0.75942227057E+03  0.77378613478E+03  0.91776910271E+02 0.  0.
         23    2    4    4    0    0  0.63140477804E+02  0.65373007243E+02 -0.23579044106E+03  0.26878632353E+03  0.91589331323E+02 0.  0.
          2    1    3    3  502    0  0.36360482410E+02 -0.17420210206E+02 -0.90866746121E+02  0.99409828264E+02  0.00000000000E+00 0. -1.
         -1    1    3    3    0  502 -0.20503971386E+02  0.37833401455E+02 -0.80994782284E+02  0.91716595366E+02  0.00000000000E+00 0.  1.
         11    1    5    5    0    0 -0.38028698225E+02  0.56169080697E+01  0.10649809209E+03  0.11322356276E+03  0.00000000000E+00 0. -1.
        -11    1    5    5    0    0 -0.40968290602E+02 -0.91403106562E+02  0.65292417847E+03  0.66056257202E+03  0.00000000000E+00 0.  1.
          1    1    6    6  503    0 -0.47511458894E+01  0.56904244540E+02 -0.76820680975E+02  0.95718772763E+02  0.00000000000E+00 0. -1.
         -1    1    6    6    0  503  0.67891623693E+02  0.84687627036E+01 -0.15896976008E+03  0.17306755077E+03  0.00000000000E+00 0.  1.
<mgrwt>
<rscale>  0 0.11824849E+04</rscale>
<asrwt>0</asrwt>
<pdfrwt beam="1">  1        2 0.67840660E-01 0.11824849E+04</pdfrwt>
<pdfrwt beam="2">  1       -1 0.12195917E+00 0.11824849E+04</pdfrwt>
<totfact> 0.47877782E+01</totfact>
</mgrwt>
</event>
<event>
12    6  0.1510140E-007  0.1841269E+04  0.7818608E-02  0.8684656E-01
         -3   -1    0    0    0  501 -0.00000000000E+00  0.00000000000E+00  0.35161702546E+04  0.35161702546E+04  0.00000000000E+00 0.  1.
          4   -1    0    0  501    0  0.00000000000E+00 -0.00000000000E+00 -0.24104857698E+03  0.24104857698E+03  0.00000000000E+00 0. -1.
         24    2    1    2    0    0  0.28536064805E+03  0.55056726052E+03  0.18797728700E+04  0.19809061766E+04  0.76734801981E+02 0.  0.
        254    2    1    2    0    0 -0.28536064805E+03 -0.55056726052E+03  0.13953488076E+04  0.17763126550E+04  0.90759756807E+03 0.  0.
         23    2    4    4    0    0  0.18795328479E+03  0.13613205539E+03  0.43461805610E+03  0.50086532969E+03  0.90082462387E+02 0.  0.
         23    2    4    4    0    0 -0.47331393284E+03 -0.68669931591E+03  0.96073075149E+03  0.12754473253E+04  0.90444862868E+02 0.  0.
          4    1    3    3  502    0  0.16254238736E+02  0.84999614462E+02  0.23260119419E+03  0.24817826310E+03  0.00000000000E+00 0. -1.
         -1    1    3    3    0  502  0.26910640931E+03  0.46556764606E+03  0.16471716758E+04  0.17327279135E+04  0.00000000000E+00 0.  1.
         11    1    5    5    0    0  0.14975382122E+02  0.48201254503E+02  0.55804281407E+02  0.75244540193E+02  0.00000000000E+00 0. -1.
        -11    1    5    5    0    0  0.17297790267E+03  0.87930800889E+02  0.37881377470E+03  0.42562078950E+03  0.00000000000E+00 0.  1.
          3    1    6    6  503    0 -0.91043785815E+01 -0.46991090676E+02  0.43836842426E+02  0.64905477936E+02  0.00000000000E+00 0. -1.
         -3    1    6    6    0  503 -0.46420955425E+03 -0.63970822524E+03  0.91689390906E+03  0.12105418473E+04  0.00000000000E+00 0.  1.
<mgrwt>
<rscale>  0 0.18412689E+04</rscale>
<asrwt>0</asrwt>
<pdfrwt beam="1">  1        4 0.37084399E-01 0.18412689E+04</pdfrwt>
<pdfrwt beam="2">  1       -3 0.54094923E+00 0.18412689E+04</pdfrwt>
<totfact> 0.28604743E-02</totfact>
</mgrwt>
</event>
<event>
12    6  0.1510140E-007  0.2804670E+04  0.7818608E-02  0.8301820E-01
         -1   -1    0    0    0  501 -0.00000000000E+00  0.00000000000E+00  0.13986697137E+04  0.13986697137E+04  0.00000000000E+00 0.  1.
          2   -1    0    0  501    0  0.00000000000E+00 -0.00000000000E+00 -0.14060100517E+04  0.14060100517E+04  0.00000000000E+00 0. -1.
         24    2    1    2    0    0  0.83845256982E+02 -0.30443404503E+02  0.12397074122E+04  0.12455867305E+04  0.81578229176E+02 0.  0.
        254    2    1    2    0    0 -0.83845256982E+02  0.30443404503E+02 -0.12470477502E+04  0.15590930349E+04  0.93149673758E+03 0.  0.
         23    2    4    4    0    0 -0.35947888199E+03  0.28093924799E+03 -0.34966661054E+03  0.58326449636E+03  0.98887848221E+02 0.  0.
         23    2    4    4    0    0  0.27563362501E+03 -0.25049584349E+03 -0.89738113965E+03  0.97582853851E+03  0.90699304988E+02 0.  0.
          4    1    3    3  502    0  0.51859448858E+02 -0.48241774001E+00  0.27276055997E+03  0.27764718301E+03  0.00000000000E+00 0. -1.
         -3    1    3    3    0  502  0.31985808125E+02 -0.29960986763E+02  0.96694685219E+03  0.96793954749E+03  0.00000000000E+00 0.  1.
         11    1    5    5    0    0 -0.57321344594E+02  0.84118594375E+02 -0.11218534844E+03  0.15148342111E+03  0.00000000000E+00 0.  1.
        -11    1    5    5    0    0 -0.30215753740E+03  0.19682065362E+03 -0.23748126210E+03  0.43178107525E+03  0.00000000000E+00 0. -1.
          4    1    6    6  503    0  0.20393584168E+03 -0.23275725725E+03 -0.72823050751E+03  0.79125561002E+03  0.00000000000E+00 0. -1.
         -4    1    6    6    0  503  0.71697783333E+02 -0.17738586241E+02 -0.16915063215E+03  0.18457292849E+03  0.00000000000E+00 0.  1.
<mgrwt>
<rscale>  0 0.28046702E+04</rscale>
<asrwt>0</asrwt>
<pdfrwt beam="1">  1        2 0.21630924E+00 0.28046702E+04</pdfrwt>
<pdfrwt beam="2">  1       -1 0.21517996E+00 0.28046702E+04</pdfrwt>
<totfact> 0.16866099E+00</totfact>
</mgrwt>
</event>
<event>
12    6  0.1510140E-007  0.2435857E+04  0.7818608E-02  0.8426200E-01
          2   -1    0    0  501    0  0.00000000000E+00  0.00000000000E+00  0.12290980176E+04  0.12290980176E+04  0.00000000000E+00 0. -1.
         -1   -1    0    0    0  501 -0.00000000000E+00 -0.00000000000E+00 -0.12068609031E+04  0.12068609031E+04  0.00000000000E+00 0.  1.
         24    2    1    2    0    0 -0.11665317124E+02 -0.28393427848E+03  0.94233850016E+03  0.98739096295E+03  0.78640388496E+02 0.  0.
        254    2    1    2    0    0  0.11665317124E+02  0.28393427848E+03 -0.92010138565E+03  0.14485679577E+04  0.10821311446E+04 0.  0.
         23    2    4    4    0    0 -0.19159969768E+03 -0.20644826013E+03 -0.85657719192E+03  0.90591192731E+03  0.87296082726E+02 0.  0.
         23    2    4    4    0    0  0.20326501480E+03  0.49038253861E+03 -0.63524193731E+02  0.54265603037E+03  0.92997546667E+02 0.  0.
          2    1    3    3  502    0  0.19061349940E+02 -0.17218042968E+03  0.65593892596E+03  0.67842855926E+03  0.00000000000E+00 0. -1.
         -1    1    3    3    0  502 -0.30726667064E+02 -0.11175384880E+03  0.28639957420E+03  0.30896240368E+03  0.00000000000E+00 0.  1.
         11    1    5    5    0    0 -0.74919530299E+02 -0.44560745352E+02 -0.17178321085E+03  0.19263454409E+03  0.00000000000E+00 0. -1.
        -11    1    5    5    0    0 -0.11668016738E+03 -0.16188751478E+03 -0.68479398107E+03  0.71327738322E+03  0.00000000000E+00 0.  1.
          4    1    6    6  503    0  0.15778958418E+02  0.57337663502E+02 -0.36963276878E+02  0.70020475735E+02  0.00000000000E+00 0. -1.
         -4    1    6    6    0  503  0.18748605638E+03  0.43304487511E+03 -0.26560916853E+02  0.47263555463E+03  0.00000000000E+00 0.  1.
<mgrwt>
<rscale>  0 0.24358574E+04</rscale>
<asrwt>0</asrwt>
<pdfrwt beam="1">  1        2 0.18909200E+00 0.24358574E+04</pdfrwt>
<pdfrwt beam="2">  1       -1 0.18567091E+00 0.24358574E+04</pdfrwt>
<totfact> 0.35256387E+00</totfact>
</mgrwt>
</event>
<event>
12    6  0.1510140E-007  0.1593952E+04  0.7818608E-02  0.8824272E-01
          2   -1    0    0  501    0  0.00000000000E+00  0.00000000000E+00  0.10283824893E+04  0.10283824893E+04  0.00000000000E+00 0. -1.
         -1   -1    0    0    0  501 -0.00000000000E+00 -0.00000000000E+00 -0.61764060321E+03  0.61764060321E+03  0.00000000000E+00 0.  1.
         24    2    1    2    0    0  0.46718057867E+02 -0.43106522881E+03  0.47111463249E+03  0.64522409428E+03  0.79782996144E+02 0.  0.
        254    2    1    2    0    0 -0.46718057867E+02  0.43106522881E+03 -0.60372746355E+02  0.10007989983E+04  0.89997442075E+03 0.  0.
         23    2    4    4    0    0  0.34008415105E+03  0.15332010794E+03  0.21801491659E+03  0.44176448768E+03  0.91984093312E+02 0.  0.
         23    2    4    4    0    0 -0.38680220892E+03  0.27774512087E+03 -0.27838766294E+03  0.55903451059E+03  0.90893300949E+02 0.  0.
          2    1    3    3  502    0  0.60397745334E+02 -0.41631323815E+03  0.44699285694E+03  0.61381366396E+03  0.00000000000E+00 0. -1.
         -1    1    3    3    0  502 -0.13679687467E+02 -0.14751990659E+02  0.24121775544E+02  0.31410430322E+02  0.00000000000E+00 0.  1.
         11    1    5    5    0    0  0.28125926891E+03  0.89603228692E+02  0.18812892955E+03  0.35004001067E+03  0.00000000000E+00 0. -1.
        -11    1    5    5    0    0  0.58824882147E+02  0.63716879246E+02  0.29885987032E+02  0.91724477002E+02  0.00000000000E+00 0.  1.
          4    1    6    6  503    0 -0.30529074460E+03  0.16928883521E+03 -0.20327514867E+03  0.40395783756E+03  0.00000000000E+00 0. -1.
         -4    1    6    6    0  503 -0.81511464323E+02  0.10845628566E+03 -0.75112514270E+02  0.15507667302E+03  0.00000000000E+00 0.  1.
<mgrwt>
<rscale>  0 0.15939520E+04</rscale>
<asrwt>0</asrwt>
<pdfrwt beam="1">  1        2 0.15821269E+00 0.15939520E+04</pdfrwt>
<pdfrwt beam="2">  1       -1 0.95021631E-01 0.15939520E+04</pdfrwt>
<totfact> 0.28302173E+01</totfact>
</mgrwt>
</event>
<event>
12    6  0.1510140E-007  0.1218670E+04  0.7818608E-02  0.9096670E-01
         -1   -1    0    0    0  501 -0.00000000000E+00  0.00000000000E+00  0.10995038385E+03  0.10995038385E+03  0.00000000000E+00 0.  1.
          2   -1    0    0  501    0  0.00000000000E+00 -0.00000000000E+00 -0.33768775874E+04  0.33768775874E+04  0.00000000000E+00 0. -1.
         24    2    1    2    0    0  0.60756185786E+02  0.21649416016E+03 -0.35319039129E+03  0.42620808697E+03  0.79679642350E+02 0.  0.
        254    2    1    2    0    0 -0.60756185786E+02 -0.21649416016E+03 -0.29137368122E+04  0.30606198842E+04  0.90937936497E+03 0.  0.
         23    2    4    4    0    0  0.26374391748E+02 -0.49846908485E+03 -0.24625313032E+04  0.25141838103E+04  0.88841293597E+02 0.  0.
         23    2    4    4    0    0 -0.87130577534E+02  0.28197492469E+03 -0.45120550897E+03  0.54643607393E+03  0.88906556975E+02 0.  0.
          4    1    3    3  502    0  0.65669092300E+02  0.13265335176E+03 -0.27048695942E+03  0.30833834765E+03  0.00000000000E+00 0. -1.
         -3    1    3    3    0  502 -0.49129065147E+01  0.83840808409E+02 -0.82703431875E+02  0.11786973933E+03  0.00000000000E+00 0.  1.
         11    1    5    5    0    0  0.45340642364E+01  0.25996620229E+01 -0.34432416042E+02  0.34826818052E+02  0.00000000000E+00 0. -1.
        -11    1    5    5    0    0  0.21840327511E+02 -0.50106874688E+03 -0.24280988872E+04  0.24793569922E+04  0.00000000000E+00 0.  1.
          1    1    6    6  503    0 -0.12029722594E+02  0.13283108703E+02 -0.25360875984E+01  0.18099363050E+02  0.00000000000E+00 0. -1.
         -1    1    6    6    0  503 -0.75100854940E+02  0.26869181599E+03 -0.44866942137E+03  0.52833671088E+03  0.00000000000E+00 0.  1.
<mgrwt>
<rscale>  0 0.12186697E+04</rscale>
<asrwt>0</asrwt>
<pdfrwt beam="1">  1        2 0.51951956E+00 0.12186697E+04</pdfrwt>
<pdfrwt beam="2">  1       -1 0.16915446E-01 0.12186697E+04</pdfrwt>
<totfact> 0.30645767E+01</totfact>
</mgrwt>
</event>
<event>
12    6  0.1510140E-007  0.1152385E+04  0.7818608E-02  0.9155586E-01
         -1   -1    0    0    0  501 -0.00000000000E+00  0.00000000000E+00  0.25776094278E+03  0.25776094278E+03  0.00000000000E+00 0.  1.
          2   -1    0    0  501    0  0.00000000000E+00 -0.00000000000E+00 -0.12880058852E+04  0.12880058852E+04  0.00000000000E+00 0. -1.
         24    2    1    2    0    0 -0.49835802141E+02 -0.25964091865E+02 -0.48582616328E+03  0.49560873747E+03  0.80269661063E+02 0.  0.
        254    2    1    2    0    0  0.49835802141E+02  0.25964091865E+02 -0.54441877912E+03  0.10501580905E+04  0.89626026728E+03 0.  0.
         23    2    4    4    0    0 -0.22667469862E+02 -0.24501543052E+03 -0.67762748278E+03  0.72664158350E+03  0.91008846157E+02 0.  0.
         23    2    4    4    0    0  0.72503272003E+02  0.27097952239E+03  0.13320870365E+03  0.32351650698E+03  0.90728967563E+02 0.  0.
          2    1    3    3  502    0 -0.57720818056E+02 -0.45090061987E+02 -0.42734114759E+03  0.43357267321E+03  0.00000000000E+00 0. -1.
         -1    1    3    3    0  502  0.78850159151E+01  0.19125970122E+02 -0.58485015688E+02  0.62036064262E+02  0.00000000000E+00 0.  1.
         11    1    5    5    0    0  0.25655637465E+02 -0.20995098825E+02 -0.82124974024E+02  0.88563633998E+02  0.00000000000E+00 0.  1.
        -11    1    5    5    0    0 -0.48323107327E+02 -0.22402033170E+03 -0.59550250875E+03  0.63807794951E+03  0.00000000000E+00 0. -1.
          4    1    6    6  503    0  0.73525714281E+02  0.27100332816E+03  0.14200198899E+03  0.31466394679E+03  0.00000000000E+00 0. -1.
         -4    1    6    6    0  503 -0.10224422785E+01 -0.23805773353E-01 -0.87932853330E+01  0.88525601876E+01  0.00000000000E+00 0.  1.
<mgrwt>
<rscale>  0 0.11523847E+04</rscale>
<asrwt>0</asrwt>
<pdfrwt beam="1">  1        2 0.19815475E+00 0.11523847E+04</pdfrwt>
<pdfrwt beam="2">  1       -1 0.39655530E-01 0.11523847E+04</pdfrwt>
<totfact> 0.11719438E+02</totfact>
</mgrwt>
</event>
<event>
12    6  0.1510140E-007  0.1388613E+04  0.7818608E-02  0.8962103E-01
          2   -1    0    0  501    0  0.00000000000E+00  0.00000000000E+00  0.27183845076E+04  0.27183845076E+04  0.00000000000E+00 0. -1.
         -1   -1    0    0    0  501 -0.00000000000E+00 -0.00000000000E+00 -0.17733373272E+03  0.17733373272E+03  0.00000000000E+00 0.  1.
         24    2    1    2    0    0 -0.33020447490E+03 -0.92803318803E+02  0.32471888398E+03  0.47946767589E+03  0.82458761718E+02 0.  0.
        254    2    1    2    0    0  0.33020447490E+03  0.92803318803E+02  0.22163318909E+04  0.24162505645E+04  0.89916199225E+03 0.  0.
         23    2    4    4    0    0  0.45020532734E+03  0.29982720750E+03  0.75736635492E+03  0.93507520783E+03  0.90446987932E+02 0.  0.
         23    2    4    4    0    0 -0.12000085243E+03 -0.20702388869E+03  0.14589655360E+04  0.14811753566E+04  0.89671103196E+02 0.  0.
          4    1    3    3  502    0 -0.11191119628E+03 -0.26612384686E+01  0.69608694731E+02  0.13182021251E+03  0.00000000000E+00 0. -1.
         -3    1    3    3    0  502 -0.21829327862E+03 -0.90142080335E+02  0.25511018925E+03  0.34764746338E+03  0.00000000000E+00 0.  1.
         11    1    5    5    0    0  0.85063643628E+02  0.34331038168E+02  0.84050011782E+02  0.12441401902E+03  0.00000000000E+00 0. -1.
        -11    1    5    5    0    0  0.36514168371E+03  0.26549616933E+03  0.67331634314E+03  0.81066118881E+03  0.00000000000E+00 0.  1.
          2    1    6    6  503    0 -0.10740884727E+03 -0.13114429792E+03  0.80177970072E+03  0.81950361551E+03  0.00000000000E+00 0.  1.
         -2    1    6    6    0  503 -0.12592005166E+02 -0.75879590776E+02  0.65718583530E+03  0.66167174113E+03  0.00000000000E+00 0. -1.
<mgrwt>
<rscale>  0 0.13886126E+04</rscale>
<asrwt>0</asrwt>
<pdfrwt beam="1">  1        2 0.41821297E+00 0.13886126E+04</pdfrwt>
<pdfrwt beam="2">  1       -1 0.27282115E-01 0.13886126E+04</pdfrwt>
<totfact> 0.34806403E+01</totfact>
</mgrwt>
</event>
<event>
12    6  0.1510140E-007  0.1802234E+04  0.7818608E-02  0.8705112E-01
         -1   -1    0    0    0  501 -0.00000000000E+00  0.00000000000E+00  0.28116330045E+03  0.28116330045E+03  0.00000000000E+00 0.  1.
          2   -1    0    0  501    0  0.00000000000E+00 -0.00000000000E+00 -0.28880430112E+04  0.28880430112E+04  0.00000000000E+00 0. -1.
         24    2    1    2    0    0  0.33567628474E+02 -0.18782084096E+03  0.15331852908E+03  0.25749287824E+03  0.79953467767E+02 0.  0.
        254    2    1    2    0    0 -0.33567628474E+02  0.18782084096E+03 -0.27601982399E+04  0.29117134334E+04  0.90718098588E+03 0.  0.
         23    2    4    4    0    0 -0.22535492725E+03  0.29383079805E+03 -0.25937676511E+04  0.26215614192E+04  0.88500086434E+02 0.  0.
         23    2    4    4    0    0  0.19178729878E+03 -0.10600995709E+03 -0.16643058874E+03  0.29015201428E+03  0.92024842007E+02 0.  0.
          4    1    3    3  502    0  0.47131886755E+02 -0.51478383587E+02  0.54707879758E+02  0.88681400718E+02  0.00000000000E+00 0. -1.
         -3    1    3    3    0  502 -0.13564258281E+02 -0.13634245737E+03  0.98610649318E+02  0.16881147753E+03  0.00000000000E+00 0.  1.
         11    1    5    5    0    0 -0.19280833899E+03  0.28021455949E+03 -0.21902078987E+04  0.22164624731E+04  0.00000000000E+00 0. -1.
        -11    1    5    5    0    0 -0.32546588267E+02  0.13616238558E+02 -0.40355975238E+03  0.40509894607E+03  0.00000000000E+00 0.  1.
          2    1    6    6  503    0  0.15969046161E+03 -0.11569180820E+03 -0.16410446110E+03  0.25654612094E+03  0.00000000000E+00 0. -1.
         -2    1    6    6    0  503  0.32096837169E+02  0.96818511176E+01 -0.23261276376E+01  0.33605893339E+02  0.00000000000E+00 0.  1.
<mgrwt>
<rscale>  0 0.18022338E+04</rscale>
<asrwt>0</asrwt>
<pdfrwt beam="1">  1        2 0.44431434E+00 0.18022338E+04</pdfrwt>
<pdfrwt beam="2">  1       -1 0.43255889E-01 0.18022338E+04</pdfrwt>
<totfact> 0.11612523E+01</totfact>
</mgrwt>
</event>
<event>
12    6  0.1510140E-007  0.2328015E+04  0.7818608E-02  0.8466957E-01
         -1   -1    0    0    0  501 -0.00000000000E+00  0.00000000000E+00  0.82449317145E+03  0.82449317145E+03  0.00000000000E+00 0.  1.
          2   -1    0    0  501    0  0.00000000000E+00 -0.00000000000E+00 -0.16433283568E+04  0.16433283568E+04  0.00000000000E+00 0. -1.
         24    2    1    2    0    0 -0.84714099696E+03  0.43514325473E+03 -0.59198965562E+03  0.11242128545E+04  0.80032923826E+02 0.  0.
        254    2    1    2    0    0  0.84714099696E+03 -0.43514325473E+03 -0.22684552976E+03  0.13436086738E+04  0.92023249949E+03 0.  0.
         23    2    4    4    0    0 -0.25722267264E+02 -0.35989472123E+03  0.12934250733E+03  0.39327309618E+03  0.88024988335E+02 0.  0.
         23    2    4    4    0    0  0.87286326422E+03 -0.75248533496E+02 -0.35618803709E+03  0.95033557764E+03  0.93355088410E+02 0.  0.
          4    1    3    3  502    0 -0.81698494635E+03  0.40966651918E+03 -0.58190211662E+03  0.10834671812E+04  0.00000000000E+00 0. -1.
         -3    1    3    3    0  502 -0.30156050614E+02  0.25476735548E+02 -0.10087538998E+02  0.40745673216E+02  0.00000000000E+00 0.  1.
         11    1    5    5    0    0 -0.21859650747E+02 -0.28672264630E+03  0.62885017036E+02  0.29435054884E+03  0.00000000000E+00 0.  1.
        -11    1    5    5    0    0 -0.38626165168E+01 -0.73172074931E+02  0.66457490299E+02  0.98922547344E+02  0.00000000000E+00 0. -1.
          1    1    6    6  503    0  0.59401550003E+03 -0.94343973912E+02 -0.23653958746E+03  0.64630192335E+03  0.00000000000E+00 0. -1.
         -1    1    6    6    0  503  0.27884776419E+03  0.19095440416E+02 -0.11964844964E+03  0.30403365428E+03  0.00000000000E+00 0.  1.
<mgrwt>
<rscale>  0 0.23280146E+04</rscale>
<asrwt>0</asrwt>
<pdfrwt beam="1">  1        2 0.25281975E+00 0.23280146E+04</pdfrwt>
<pdfrwt beam="2">  1       -1 0.12684510E+00 0.23280146E+04</pdfrwt>
<totfact> 0.58613095E+00</totfact>
</mgrwt>
</event>
<event>
12    6  0.1510140E-007  0.1617008E+04  0.7818608E-02  0.8810167E-01
         -1   -1    0    0    0  501 -0.00000000000E+00  0.00000000000E+00  0.69085123168E+03  0.69085123168E+03  0.00000000000E+00 0.  1.
          2   -1    0    0  501    0  0.00000000000E+00 -0.00000000000E+00 -0.94619358733E+03  0.94619358733E+03  0.00000000000E+00 0. -1.
         24    2    1    2    0    0 -0.50567487077E+03  0.18038274988E+03 -0.21070064396E+03  0.58209961055E+03  0.78741246234E+02 0.  0.
        254    2    1    2    0    0  0.50567487077E+03 -0.18038274988E+03 -0.44641711684E+02  0.10549452085E+04  0.90701240292E+03 0.  0.
         23    2    4    4    0    0  0.57956667266E+02  0.15324463941E+03 -0.36087834431E+03  0.40633128487E+03  0.89604904360E+02 0.  0.
         23    2    4    4    0    0  0.44771820350E+03 -0.33362738929E+03  0.31623663263E+03  0.64861392358E+03  0.94528246698E+02 0.  0.
          2    1    3    3  502    0 -0.46819469206E+03  0.18247436194E+03 -0.18053963487E+03  0.53394542998E+03  0.00000000000E+00 0. -1.
         -3    1    3    3    0  502 -0.37480178705E+02 -0.20916120577E+01 -0.30161009096E+02  0.48154180570E+02  0.00000000000E+00 0.  1.
         11    1    5    5    0    0  0.45579177361E+02  0.39467122853E+02 -0.62898147208E+02  0.87128021425E+02  0.00000000000E+00 0.  1.
        -11    1    5    5    0    0  0.12377489905E+02  0.11377751655E+03 -0.29798019710E+03  0.31920326345E+03  0.00000000000E+00 0. -1.
          4    1    6    6  503    0  0.36622677181E+03 -0.31043893876E+03  0.28496648580E+03  0.55830124585E+03  0.00000000000E+00 0. -1.
         -4    1    6    6    0  503  0.81491431689E+02 -0.23188450526E+02  0.31270146823E+02  0.90312677731E+02  0.00000000000E+00 0.  1.
<mgrwt>
<rscale>  0 0.16170084E+04</rscale>
<asrwt>0</asrwt>
<pdfrwt beam="1">  1        2 0.14556824E+00 0.16170084E+04</pdfrwt>
<pdfrwt beam="2">  1       -1 0.10628481E+00 0.16170084E+04</pdfrwt>
<totfact> 0.24700353E+01</totfact>
</mgrwt>
</event>
<event>
12    6  0.1510140E-007  0.2637193E+04  0.7818608E-02  0.8355676E-01
         -1   -1    0    0    0  501 -0.00000000000E+00  0.00000000000E+00  0.48711535985E+03  0.48711535985E+03  0.00000000000E+00 0.  1.
          2   -1    0    0  501    0  0.00000000000E+00 -0.00000000000E+00 -0.35693741686E+04  0.35693741686E+04  0.00000000000E+00 0. -1.
         24    2    1    2    0    0 -0.28434510415E+03 -0.73612716815E+03 -0.51461887698E+02  0.79435488370E+03  0.74940038972E+02 0.  0.
        254    2    1    2    0    0  0.28434510415E+03  0.73612716815E+03 -0.30307969210E+04  0.32621346447E+04  0.91271962720E+03 0.  0.
         23    2    4    4    0    0 -0.15789599924E+03  0.65080947829E+03 -0.12289783908E+04  0.14025036829E+04  0.90247282800E+02 0.  0.
         23    2    4    4    0    0  0.44224110339E+03  0.85317689854E+02 -0.18018185303E+04  0.18596309618E+04  0.93920159451E+02 0.  0.
          2    1    3    3  502    0 -0.12767183565E+03 -0.43225011207E+03 -0.35084304526E+02  0.45207429193E+03  0.00000000000E+00 0. -1.
         -1    1    3    3    0  502 -0.15667326850E+03 -0.30387705608E+03 -0.16377583172E+02  0.34228059177E+03  0.00000000000E+00 0.  1.
         11    1    5    5    0    0 -0.91361683221E+02  0.20976495181E+03 -0.45167325504E+03  0.50631711554E+03  0.00000000000E+00 0.  1.
        -11    1    5    5    0    0 -0.66534316018E+02  0.44104452648E+03 -0.77730513574E+03  0.89618656740E+03  0.00000000000E+00 0. -1.
          2    1    6    6  503    0  0.37210186371E+03  0.70469598787E+02 -0.16307255721E+04  0.16741241450E+04  0.00000000000E+00 0. -1.
         -2    1    6    6    0  503  0.70139239675E+02  0.14848091067E+02 -0.17109295819E+03  0.18550681684E+03  0.00000000000E+00 0.  1.
<mgrwt>
<rscale>  0 0.26371932E+04</rscale>
<asrwt>0</asrwt>
<pdfrwt beam="1">  1        2 0.54913446E+00 0.26371932E+04</pdfrwt>
<pdfrwt beam="2">  1       -1 0.74940828E-01 0.26371932E+04</pdfrwt>
<totfact> 0.13046942E+00</totfact>
</mgrwt>
</event>
<event>
12    6  0.1510140E-007  0.2262023E+04  0.7818608E-02  0.8493047E-01
         -1   -1    0    0    0  501 -0.00000000000E+00  0.00000000000E+00  0.76805240962E+03  0.76805240962E+03  0.00000000000E+00 0.  1.
          2   -1    0    0  501    0  0.00000000000E+00 -0.00000000000E+00 -0.16654945125E+04  0.16654945125E+04  0.00000000000E+00 0. -1.
         24    2    1    2    0    0  0.29449434098E+03  0.46016747563E+03 -0.12120852320E+04  0.13319236483E+04  0.79931050607E+02 0.  0.
        254    2    1    2    0    0 -0.29449434098E+03 -0.46016747563E+03  0.31464312903E+03  0.11016232739E+04  0.90337839047E+03 0.  0.
         23    2    4    4    0    0 -0.47795118073E+03 -0.46026976219E+03  0.49206395688E+03  0.83102551529E+03  0.90503504049E+02 0.  0.
         23    2    4    4    0    0  0.18345683975E+03  0.10228655761E+00 -0.17742082785E+03  0.27059775858E+03  0.89936501365E+02 0.  0.
          2    1    3    3  502    0  0.28432709295E+03  0.46066937793E+03 -0.11797684770E+04  0.12980415366E+04  0.00000000000E+00 0. -1.
         -1    1    3    3    0  502  0.10167248028E+02 -0.50190229223E+00 -0.32316754963E+02  0.33882111647E+02  0.00000000000E+00 0.  1.
         11    1    5    5    0    0 -0.45408050226E+03 -0.43228080093E+03  0.43478206161E+03  0.76294903793E+03  0.00000000000E+00 0. -1.
        -11    1    5    5    0    0 -0.23870678474E+02 -0.27988961265E+02  0.57281895269E+02  0.68076477355E+02  0.00000000000E+00 0.  1.
          3    1    6    6  503    0  0.15564077960E+03 -0.14526875553E+02 -0.18077972456E+03  0.23899035796E+03  0.00000000000E+00 0. -1.
         -3    1    6    6    0  503  0.27816060153E+02  0.14629162110E+02  0.33588967094E+01  0.31607400614E+02  0.00000000000E+00 0.  1.
<mgrwt>
<rscale>  0 0.22620231E+04</rscale>
<asrwt>0</asrwt>
<pdfrwt beam="1">  1        2 0.25622992E+00 0.22620231E+04</pdfrwt>
<pdfrwt beam="2">  1       -1 0.11816191E+00 0.22620231E+04</pdfrwt>
<totfact> 0.68250684E+00</totfact>
</mgrwt>
</event>
<event>
12    6  0.1510140E-007  0.1924053E+04  0.7818608E-02  0.8642975E-01
         -1   -1    0    0    0  501 -0.00000000000E+00  0.00000000000E+00  0.71694955921E+03  0.71694955921E+03  0.00000000000E+00 0.  1.
          2   -1    0    0  501    0  0.00000000000E+00 -0.00000000000E+00 -0.12908789081E+04  0.12908789081E+04  0.00000000000E+00 0. -1.
         24    2    1    2    0    0  0.49884313581E+03 -0.14918044788E+03 -0.80145852037E+03  0.95889493275E+03  0.77746073893E+02 0.  0.
        254    2    1    2    0    0 -0.49884313581E+03  0.14918044788E+03  0.22752917143E+03  0.10489335346E+04  0.88169878983E+03 0.  0.
         23    2    4    4    0    0 -0.67915048019E+02  0.46181837088E+03  0.41812841796E+02  0.47746134125E+03  0.91281746338E+02 0.  0.
         23    2    4    4    0    0 -0.43092808779E+03 -0.31263792300E+03  0.18571632964E+03  0.57147219336E+03  0.92996908241E+02 0.  0.
          4    1    3    3  502    0  0.28475895662E+03 -0.12115642551E+03 -0.50189181791E+03  0.58962864559E+03  0.00000000000E+00 0. -1.
         -3    1    3    3    0  502  0.21408417918E+03 -0.28024022370E+02 -0.29956670246E+03  0.36926628716E+03  0.00000000000E+00 0.  1.
         11    1    5    5    0    0  0.68038420033E+00  0.47488389689E+02 -0.22572917283E+02  0.52584661952E+02  0.00000000000E+00 0.  1.
        -11    1    5    5    0    0 -0.68595432220E+02  0.41432998119E+03  0.64385759078E+02  0.42487667929E+03  0.00000000000E+00 0. -1.
          1    1    6    6  503    0 -0.48270242422E+02 -0.76045352921E+02  0.22019961946E+02  0.92724272596E+02  0.00000000000E+00 0. -1.
         -1    1    6    6    0  503 -0.38265784537E+03 -0.23659257008E+03  0.16369636769E+03  0.47874792076E+03  0.00000000000E+00 0.  1.
<mgrwt>
<rscale>  0 0.19240531E+04</rscale>
<asrwt>0</asrwt>
<pdfrwt beam="1">  1        2 0.19859675E+00 0.19240531E+04</pdfrwt>
<pdfrwt beam="2">  1       -1 0.11029993E+00 0.19240531E+04</pdfrwt>
<totfact> 0.13523412E+01</totfact>
</mgrwt>
</event>
<event>
12    6  0.1510140E-007  0.1453486E+04  0.7818608E-02  0.8915987E-01
         -1   -1    0    0    0  501 -0.00000000000E+00  0.00000000000E+00  0.35166995299E+03  0.35166995299E+03  0.00000000000E+00 0.  1.
          2   -1    0    0  501    0  0.00000000000E+00 -0.00000000000E+00 -0.15018494731E+04  0.15018494731E+04  0.00000000000E+00 0. -1.
         24    2    1    2    0    0  0.11257778191E+03 -0.19734442345E+03  0.11247940617E+03  0.26486837240E+03  0.76714141052E+02 0.  0.
        254    2    1    2    0    0 -0.11257778191E+03  0.19734442345E+03 -0.12626589263E+04  0.15886510537E+04  0.93695572354E+03 0.  0.
         23    2    4    4    0    0 -0.40160735439E+03  0.41690544771E+03 -0.69705784441E+03  0.91044958962E+03  0.89051655489E+02 0.  0.
         23    2    4    4    0    0  0.28902957248E+03 -0.21956102426E+03 -0.56560108187E+03  0.67820146409E+03  0.91145515209E+02 0.  0.
          4    1    3    3  502    0  0.84797087135E+00 -0.69707799375E+02  0.40265467338E+02  0.80505926541E+02  0.00000000000E+00 0. -1.
         -3    1    3    3    0  502  0.11172981104E+03 -0.12763662408E+03  0.72213938828E+02  0.18436244586E+03  0.00000000000E+00 0.  1.
         11    1    5    5    0    0 -0.35722680764E+03  0.34938086200E+03 -0.63790156176E+03  0.81030635030E+03  0.00000000000E+00 0. -1.
        -11    1    5    5    0    0 -0.44380546751E+02  0.67524585705E+02 -0.59156282650E+02  0.10014323932E+03  0.00000000000E+00 0.  1.
          4    1    6    6  503    0  0.12011705626E+03 -0.42060955637E+02 -0.16152916881E+03  0.20564265990E+03  0.00000000000E+00 0. -1.
         -4    1    6    6    0  503  0.16891251622E+03 -0.17750006862E+03 -0.40407191306E+03  0.47255880419E+03  0.00000000000E+00 0.  1.
<mgrwt>
<rscale>  0 0.14534859E+04</rscale>
<asrwt>0</asrwt>
<pdfrwt beam="1">  1        2 0.23105376E+00 0.14534859E+04</pdfrwt>
<pdfrwt beam="2">  1       -1 0.54103071E-01 0.14534859E+04</pdfrwt>
<totfact> 0.48253049E+01</totfact>
</mgrwt>
</event>
<event>
12    6  0.1510140E-007  0.3780041E+04  0.7818608E-02  0.8050452E-01
          2   -1    0    0  501    0  0.00000000000E+00  0.00000000000E+00  0.23034437505E+04  0.23034437505E+04  0.00000000000E+00 0. -1.
         -1   -1    0    0    0  501 -0.00000000000E+00 -0.00000000000E+00 -0.15507989694E+04  0.15507989694E+04  0.00000000000E+00 0.  1.
         24    2    1    2    0    0 -0.28155775427E+03 -0.97390492691E+03  0.18476954555E+04  0.21091228549E+04  0.81579073006E+02 0.  0.
        254    2    1    2    0    0  0.28155775427E+03  0.97390492691E+03 -0.10950506743E+04  0.17451198650E+04  0.90473299274E+03 0.  0.
         23    2    4    4    0    0 -0.49628021117E+01 -0.30031288848E+02 -0.56147677176E+03  0.56947115380E+03  0.90081752171E+02 0.  0.
         23    2    4    4    0    0  0.28652055638E+03  0.10039362158E+04 -0.53357390257E+03  0.11756487112E+04  0.86410809835E+02 0.  0.
          4    1    3    3  502    0 -0.22825914931E+03 -0.71562464665E+03  0.14264330799E+04  0.16121204067E+04  0.00000000000E+00 0. -1.
         -3    1    3    3    0  502 -0.53298604960E+02 -0.25828028026E+03  0.42126237553E+03  0.49700244818E+03  0.00000000000E+00 0.  1.
         11    1    5    5    0    0  0.20152508101E+02 -0.47839469161E+02 -0.47199061700E+03  0.47483668870E+03  0.00000000000E+00 0. -1.
        -11    1    5    5    0    0 -0.25115310213E+02  0.17808180313E+02 -0.89486154754E+02  0.94634465106E+02  0.00000000000E+00 0.  1.
          4    1    6    6  503    0  0.16242638866E+03  0.71351312305E+03 -0.37222442198E+03  0.82099593715E+03  0.00000000000E+00 0. -1.
         -4    1    6    6    0  503  0.12409416772E+03  0.29042309270E+03 -0.16134948059E+03  0.35465277402E+03  0.00000000000E+00 0.  1.
<mgrwt>
<rscale>  0 0.37800414E+04</rscale>
<asrwt>0</asrwt>
<pdfrwt beam="1">  1        2 0.35437596E+00 0.37800414E+04</pdfrwt>
<pdfrwt beam="2">  1       -1 0.23858446E+00 0.37800414E+04</pdfrwt>
<totfact> 0.34135050E-01</totfact>
</mgrwt>
</event>
<event>
12    6  0.1510140E-007  0.1609700E+04  0.7818608E-02  0.8814611E-01
         -1   -1    0    0    0  501 -0.00000000000E+00  0.00000000000E+00  0.25134976101E+03  0.25134976101E+03  0.00000000000E+00 0.  1.
          2   -1    0    0  501    0  0.00000000000E+00 -0.00000000000E+00 -0.25772191739E+04  0.25772191739E+04  0.00000000000E+00 0. -1.
         24    2    1    2    0    0  0.70082909351E+02 -0.36642247887E+03 -0.91181542419E+02  0.39222515142E+03  0.79683426884E+02 0.  0.
        254    2    1    2    0    0 -0.70082909351E+02  0.36642247887E+03 -0.22346878705E+04  0.24363437835E+04  0.89597104069E+03 0.  0.
         23    2    4    4    0    0  0.26338245776E+03  0.13307666857E+03 -0.18278064491E+04  0.18537287587E+04  0.91401185069E+02 0.  0.
         23    2    4    4    0    0 -0.33346536711E+03  0.23334581030E+03 -0.40688142144E+03  0.58261502488E+03  0.90765400108E+02 0.  0.
          4    1    3    3  502    0  0.61590826244E+02 -0.13362127160E+03 -0.51671486495E+02  0.15594235030E+03  0.00000000000E+00 0. -1.
         -3    1    3    3    0  502  0.84920831068E+01 -0.23280120727E+03 -0.39510055923E+02  0.23628280111E+03  0.00000000000E+00 0.  1.
         11    1    5    5    0    0 -0.46404105389E+01 -0.18451570751E+01 -0.86285256352E+01  0.99694267257E+01  0.00000000000E+00 0. -1.
        -11    1    5    5    0    0  0.26802286830E+03  0.13492182565E+03 -0.18191779234E+04  0.18437593319E+04  0.00000000000E+00 0.  1.
          4    1    6    6  503    0 -0.30539108315E+03  0.22176232296E+03 -0.40277402421E+03  0.55196843762E+03  0.00000000000E+00 0.  1.
         -4    1    6    6    0  503 -0.28074283955E+02  0.11583487335E+02 -0.41073972337E+01  0.30646587256E+02  0.00000000000E+00 0. -1.
<mgrwt>
<rscale>  0 0.16096999E+04</rscale>
<asrwt>0</asrwt>
<pdfrwt beam="1">  1        2 0.39649527E+00 0.16096999E+04</pdfrwt>
<pdfrwt beam="2">  1       -1 0.38669193E-01 0.16096999E+04</pdfrwt>
<totfact> 0.22246091E+01</totfact>
</mgrwt>
</event>
<event>
12    6  0.1510140E-007  0.1786828E+04  0.7818608E-02  0.8713336E-01
          2   -1    0    0  501    0  0.00000000000E+00  0.00000000000E+00  0.87165509449E+03  0.87165509449E+03  0.00000000000E+00 0. -1.
         -1   -1    0    0    0  501 -0.00000000000E+00 -0.00000000000E+00 -0.91571608328E+03  0.91571608328E+03  0.00000000000E+00 0.  1.
         24    2    1    2    0    0 -0.42935831959E+02 -0.97002184312E+01  0.65134622981E+03  0.65774605505E+03  0.80251990288E+02 0.  0.
        254    2    1    2    0    0  0.42935831959E+02  0.97002184312E+01 -0.69540721859E+03  0.11296251227E+04  0.88911424367E+03 0.  0.
         23    2    4    4    0    0 -0.23998506089E+03  0.32021060250E+03 -0.52694639541E+03  0.66753054458E+03  0.88299857909E+02 0.  0.
         23    2    4    4    0    0  0.28292089285E+03 -0.31051038407E+03 -0.16846082319E+03  0.46209457814E+03  0.93227785426E+02 0.  0.
          4    1    3    3  502    0 -0.55897997687E+02  0.10432110701E+02  0.57320538192E+03  0.57601894495E+03  0.00000000000E+00 0. -1.
         -3    1    3    3    0  502  0.12962165728E+02 -0.20132329132E+02  0.78140847885E+02  0.81727110097E+02  0.00000000000E+00 0.  1.
         11    1    5    5    0    0 -0.23645988082E+03  0.32454694202E+03 -0.52616703861E+03  0.66188801570E+03  0.00000000000E+00 0. -1.
        -11    1    5    5    0    0 -0.35251800749E+01 -0.43363395266E+01 -0.77935679621E+00  0.56425288715E+01  0.00000000000E+00 0.  1.
          3    1    6    6  503    0  0.22376263459E+03 -0.20922290867E+03 -0.84298824626E+02  0.31772666552E+03  0.00000000000E+00 0. -1.
         -3    1    6    6    0  503  0.59158258265E+02 -0.10128747540E+03 -0.84161998562E+02  0.14436791262E+03  0.00000000000E+00 0.  1.
<mgrwt>
<rscale>  0 0.17868280E+04</rscale>
<asrwt>0</asrwt>
<pdfrwt beam="1">  1        2 0.13410078E+00 0.17868280E+04</pdfrwt>
<pdfrwt beam="2">  1       -1 0.14087940E+00 0.17868280E+04</pdfrwt>
<totfact> 0.13636360E+01</totfact>
</mgrwt>
</event>
<event>
12    6  0.1510140E-007  0.1247695E+04  0.7818608E-02  0.9072104E-01
         -1   -1    0    0    0  501 -0.00000000000E+00  0.00000000000E+00  0.23471435688E+03  0.23471435688E+03  0.00000000000E+00 0.  1.
          2   -1    0    0  501    0  0.00000000000E+00 -0.00000000000E+00 -0.16581240283E+04  0.16581240283E+04  0.00000000000E+00 0. -1.
         24    2    1    2    0    0  0.72837260535E+02 -0.55427420747E+02  0.11008274305E+03  0.16401053226E+03  0.80023614523E+02 0.  0.
        254    2    1    2    0    0 -0.72837260535E+02  0.55427420747E+02 -0.15334924145E+04  0.17288278529E+04  0.79301279578E+03 0.  0.
         23    2    4    4    0    0 -0.32144079431E+03 -0.47753943963E+02 -0.26631483124E+03  0.43001022627E+03  0.91545518432E+02 0.  0.
         23    2    4    4    0    0  0.24860353377E+03  0.10318136471E+03 -0.12671775832E+04  0.12988176266E+04  0.93477745092E+02 0.  0.
          2    1    3    3  502    0  0.15392520077E+02  0.14970830679E+01 -0.10590741175E+02  0.18743925167E+02  0.00000000000E+00 0. -1.
         -3    1    3    3    0  502  0.57444740458E+02 -0.56924503815E+02  0.12067348423E+03  0.14526660709E+03  0.00000000000E+00 0.  1.
         11    1    5    5    0    0 -0.47371830786E+01  0.11256644709E+02 -0.29164222803E+00  0.12216300946E+02  0.00000000000E+00 0.  1.
        -11    1    5    5    0    0 -0.31670361123E+03 -0.59010588672E+02 -0.26602318902E+03  0.41779392532E+03  0.00000000000E+00 0. -1.
          3    1    6    6  503    0  0.14267124532E+03  0.59967931332E+02 -0.50747895237E+03  0.53055265915E+03  0.00000000000E+00 0. -1.
         -3    1    6    6    0  503  0.10593228845E+03  0.43213433379E+02 -0.75969863086E+03  0.76826496750E+03  0.00000000000E+00 0.  1.
<mgrwt>
<rscale>  0 0.12476947E+04</rscale>
<asrwt>0</asrwt>
<pdfrwt beam="1">  1        2 0.25509600E+00 0.12476947E+04</pdfrwt>
<pdfrwt beam="2">  1       -1 0.36109901E-01 0.12476947E+04</pdfrwt>
<totfact> 0.85057206E+01</totfact>
</mgrwt>
</event>
<event>
12    6  0.1510140E-007  0.1309112E+04  0.7818608E-02  0.9022370E-01
          2   -1    0    0  501    0  0.00000000000E+00  0.00000000000E+00  0.31651379912E+04  0.31651379912E+04  0.00000000000E+00 0. -1.
         -1   -1    0    0    0  501 -0.00000000000E+00 -0.00000000000E+00 -0.13536337988E+03  0.13536337988E+03  0.00000000000E+00 0.  1.
         24    2    1    2    0    0  0.32087042033E+03 -0.45930868609E+02  0.15499089537E+04  0.15854827426E+04  0.80438118409E+02 0.  0.
        254    2    1    2    0    0 -0.32087042033E+03  0.45930868609E+02  0.14798656576E+04  0.17150186285E+04  0.80387751566E+03 0.  0.
         23    2    4    4    0    0 -0.51434361315E+03  0.15364893540E+03  0.63106035017E+03  0.83346272084E+03  0.90915310816E+02 0.  0.
         23    2    4    4    0    0  0.19347319282E+03 -0.10771806679E+03  0.84880530748E+03  0.88155590769E+03  0.87380261629E+02 0.  0.
          4    1    3    3  502    0  0.32468599948E+03 -0.45774393216E+02  0.15440976350E+04  0.15785289987E+04  0.00000000000E+00 0. -1.
         -3    1    3    3    0  502 -0.38155791472E+01 -0.15647539364E+00  0.58113187163E+01  0.69537438837E+01  0.00000000000E+00 0.  1.
         11    1    5    5    0    0 -0.11571960442E+03  0.42813472400E+02  0.91919463723E+02  0.15386100246E+03  0.00000000000E+00 0.  1.
        -11    1    5    5    0    0 -0.39862400873E+03  0.11083546300E+03  0.53914088644E+03  0.67960171838E+03  0.00000000000E+00 0. -1.
          1    1    6    6  503    0  0.11878399701E+03 -0.24217739262E+02  0.35249001654E+03  0.37275373721E+03  0.00000000000E+00 0. -1.
         -1    1    6    6    0  503  0.74689195813E+02 -0.83500327527E+02  0.49631529094E+03  0.50880217049E+03  0.00000000000E+00 0.  1.
<mgrwt>
<rscale>  0 0.13091123E+04</rscale>
<asrwt>0</asrwt>
<pdfrwt beam="1">  1        2 0.48694425E+00 0.13091123E+04</pdfrwt>
<pdfrwt beam="2">  1       -1 0.20825138E-01 0.13091123E+04</pdfrwt>
<totfact> 0.29540345E+01</totfact>
</mgrwt>
</event>
<event>
12    6  0.1510140E-007  0.1450667E+04  0.7818608E-02  0.8917938E-01
         -1   -1    0    0    0  501 -0.00000000000E+00  0.00000000000E+00  0.52170221121E+03  0.52170221121E+03  0.00000000000E+00 0.  1.
          2   -1    0    0  501    0  0.00000000000E+00 -0.00000000000E+00 -0.10084460914E+04  0.10084460914E+04  0.00000000000E+00 0. -1.
         24    2    1    2    0    0 -0.76106633368E+02 -0.44678177170E+03 -0.67445993816E+02  0.46522274715E+03  0.80480253587E+02 0.  0.
        254    2    1    2    0    0  0.76106633368E+02  0.44678177170E+03 -0.41929788633E+03  0.10649255554E+04  0.86766903249E+03 0.  0.
         23    2    4    4    0    0 -0.40684298370E+02  0.20366613752E+03 -0.65728659752E+03  0.69570844099E+03  0.94071546601E+02 0.  0.
         23    2    4    4    0    0  0.11679093174E+03  0.24311563418E+03  0.23798871119E+03  0.36921711443E+03  0.83290561358E+02 0.  0.
          4    1    3    3  502    0 -0.47333442253E+01 -0.28612192737E+02  0.15634633296E+02  0.32946985888E+02  0.00000000000E+00 0. -1.
         -3    1    3    3    0  502 -0.71373289143E+02 -0.41816957897E+03 -0.83080627112E+02  0.43227576126E+03  0.00000000000E+00 0.  1.
         11    1    5    5    0    0 -0.42972394671E+02  0.26977055582E+02 -0.12723111481E+03  0.13697497876E+03  0.00000000000E+00 0.  1.
        -11    1    5    5    0    0  0.22880963009E+01  0.17668908194E+03 -0.53005548271E+03  0.55873346223E+03  0.00000000000E+00 0. -1.
          1    1    6    6  503    0  0.90073840491E+01  0.10654573429E+03  0.10855424094E+03  0.15237174833E+03  0.00000000000E+00 0. -1.
         -1    1    6    6    0  503  0.10778354769E+03  0.13656989990E+03  0.12943447025E+03  0.21684536610E+03  0.00000000000E+00 0.  1.
<mgrwt>
<rscale>  0 0.14506668E+04</rscale>
<asrwt>0</asrwt>
<pdfrwt beam="1">  1        2 0.15514555E+00 0.14506668E+04</pdfrwt>
<pdfrwt beam="2">  1       -1 0.80261878E-01 0.14506668E+04</pdfrwt>
<totfact> 0.42641666E+01</totfact>
</mgrwt>
</event>
<event>
12    6  0.1510140E-007  0.1915795E+04  0.7818608E-02  0.8647034E-01
          2   -1    0    0  501    0  0.00000000000E+00  0.00000000000E+00  0.59096979840E+03  0.59096979840E+03  0.00000000000E+00 0. -1.
         -1   -1    0    0    0  501 -0.00000000000E+00 -0.00000000000E+00 -0.15526475562E+04  0.15526475562E+04  0.00000000000E+00 0.  1.
         24    2    1    2    0    0 -0.22916469758E+03 -0.37161424559E+03  0.29345798591E+03  0.53200913429E+03  0.79388433258E+02 0.  0.
        254    2    1    2    0    0  0.22916469758E+03  0.37161424559E+03 -0.12551357438E+04  0.16116082203E+04  0.91175748666E+03 0.  0.
         23    2    4    4    0    0 -0.10762604279E+02  0.44849269203E+03 -0.15947202294E+03  0.48347875259E+03  0.84016960504E+02 0.  0.
         23    2    4    4    0    0  0.23992730186E+03 -0.76878446434E+02 -0.10956637208E+04  0.11281294677E+04  0.93390048756E+02 0.  0.
          2    1    3    3  502    0 -0.11283406613E+03 -0.17991129852E+03  0.19039964482E+03  0.28522206535E+03  0.00000000000E+00 0. -1.
         -1    1    3    3    0  502 -0.11633063145E+03 -0.19170294708E+03  0.10305834108E+03  0.24678706895E+03  0.00000000000E+00 0.  1.
         11    1    5    5    0    0 -0.41934814916E+02  0.22816846221E+03 -0.10348722809E+03  0.25402555428E+03  0.00000000000E+00 0. -1.
        -11    1    5    5    0    0  0.31172210636E+02  0.22032422981E+03 -0.55984794853E+02  0.22945319831E+03  0.00000000000E+00 0.  1.
          4    1    6    6  503    0  0.59600403543E+02 -0.50885425930E+02 -0.21550148319E+03  0.22930857797E+03  0.00000000000E+00 0. -1.
         -4    1    6    6    0  503  0.18032689832E+03 -0.25993020504E+02 -0.88016223762E+03  0.89882088978E+03  0.00000000000E+00 0.  1.
<mgrwt>
<rscale>  0 0.19157952E+04</rscale>
<asrwt>0</asrwt>
<pdfrwt beam="1">  1        2 0.90918431E-01 0.19157952E+04</pdfrwt>
<pdfrwt beam="2">  1       -1 0.23886885E+00 0.19157952E+04</pdfrwt>
<totfact> 0.44505669E+00</totfact>
</mgrwt>
</event>
<event>
12    6  0.1510140E-007  0.1384843E+04  0.7818608E-02  0.8964864E-01
         -1   -1    0    0    0  501 -0.00000000000E+00  0.00000000000E+00  0.32740734752E+03  0.32740734752E+03  0.00000000000E+00 0.  1.
          2   -1    0    0  501    0  0.00000000000E+00 -0.00000000000E+00 -0.14643756010E+04  0.14643756010E+04  0.00000000000E+00 0. -1.
         24    2    1    2    0    0 -0.62193745300E+01  0.22544562687E+03  0.78059906388E+02  0.25218016474E+03  0.81468246628E+02 0.  0.
        254    2    1    2    0    0  0.62193745300E+01 -0.22544562687E+03 -0.12150281599E+04  0.15396027838E+04  0.91826950903E+03 0.  0.
         23    2    4    4    0    0  0.33916852582E+03  0.17547685102E+03 -0.69088381802E+03  0.79485794247E+03  0.93012281781E+02 0.  0.
         23    2    4    4    0    0 -0.33294915129E+03 -0.40092247790E+03 -0.52414434185E+03  0.74474484129E+03  0.91233858327E+02 0.  0.
          2    1    3    3  502    0 -0.17397407169E+02  0.43530246742E+02 -0.12708452048E+02  0.48570123646E+02  0.00000000000E+00 0. -1.
         -1    1    3    3    0  502  0.11178032639E+02  0.18191538013E+03  0.90768358435E+02  0.20361004110E+03  0.00000000000E+00 0.  1.
         11    1    5    5    0    0  0.33660690434E+03  0.17249164163E+03 -0.69363677608E+03  0.79005667620E+03  0.00000000000E+00 0. -1.
        -11    1    5    5    0    0  0.25616214852E+01  0.29852093883E+01  0.27529580619E+01  0.48012662722E+01  0.00000000000E+00 0.  1.
          1    1    6    6  503    0 -0.27288989750E+03 -0.34387634693E+03 -0.48148040018E+03  0.65156980739E+03  0.00000000000E+00 0. -1.
         -1    1    6    6    0  503 -0.60059253793E+02 -0.57046130967E+02 -0.42663941663E+02  0.93175033902E+02  0.00000000000E+00 0.  1.
<mgrwt>
<rscale>  0 0.13848427E+04</rscale>
<asrwt>0</asrwt>
<pdfrwt beam="1">  1        2 0.22528855E+00 0.13848427E+04</pdfrwt>
<pdfrwt beam="2">  1       -1 0.50370362E-01 0.13848427E+04</pdfrwt>
<totfact> 0.58426667E+01</totfact>
</mgrwt>
</event>
<event>
12    6  0.3307877E-007  0.1917835E+04  0.7818608E-02  0.8646030E-01
          2   -1    0    0  501    0  0.00000000000E+00  0.00000000000E+00  0.11247561555E+04  0.11247561555E+04  0.00000000000E+00 0. -1.
         -1   -1    0    0    0  501 -0.00000000000E+00 -0.00000000000E+00 -0.81753037126E+03  0.81753037126E+03  0.00000000000E+00 0.  1.
         24    2    1    2    0    0 -0.58494039076E+03 -0.19238455678E+02  0.57463803725E+03  0.82424103086E+03  0.81480207257E+02 0.  0.
        254    2    1    2    0    0  0.58494039076E+03  0.19238455678E+02 -0.26741225299E+03  0.11180454959E+04  0.91432545573E+03 0.  0.
         23    2    4    4    0    0  0.47903407838E+03  0.23028126989E+03  0.20833362580E+03  0.57873082379E+03  0.94991343058E+02 0.  0.
         23    2    4    4    0    0  0.10590631238E+03 -0.21104281422E+03 -0.47574587879E+03  0.53931467214E+03  0.93653392690E+02 0.  0.
          2    1    3    3  502    0 -0.40842978771E+03 -0.13820289770E+02  0.34682352778E+03  0.53599668965E+03  0.00000000000E+00 0. -1.
         -1    1    3    3    0  502 -0.17651060306E+03 -0.54181659077E+01  0.22781450947E+03  0.28824434121E+03  0.00000000000E+00 0.  1.
         11    1    5    5    0    0  0.88458994241E+02  0.83185857873E+02  0.31424941606E+02  0.12542889447E+03  0.00000000000E+00 0.  1.
        -11    1    5    5    0    0  0.39057508414E+03  0.14709541202E+03  0.17690868419E+03  0.45330192932E+03  0.00000000000E+00 0. -1.
          4    1    6    6  503    0  0.80978974008E+02 -0.18517193044E+03 -0.45490858983E+03  0.49778314872E+03  0.00000000000E+00 0. -1.
         -4    1    6    6    0  503  0.24927338377E+02 -0.25870883776E+02 -0.20837288965E+02  0.41531523416E+02  0.00000000000E+00 0.  1.
<mgrwt>
<rscale>  0 0.19178345E+04</rscale>
<asrwt>0</asrwt>
<pdfrwt beam="1">  1        2 0.17303941E+00 0.19178345E+04</pdfrwt>
<pdfrwt beam="2">  1       -1 0.12577390E+00 0.19178345E+04</pdfrwt>
<totfact> 0.12364769E+01</totfact>
</mgrwt>
</event>
<event>
12    6  0.1510140E-007  0.1603036E+04  0.7818608E-02  0.8818685E-01
         -1   -1    0    0    0  501 -0.00000000000E+00  0.00000000000E+00  0.56311479670E+03  0.56311479670E+03  0.00000000000E+00 0.  1.
          2   -1    0    0  501    0  0.00000000000E+00 -0.00000000000E+00 -0.11408533663E+04  0.11408533663E+04  0.00000000000E+00 0. -1.
         24    2    1    2    0    0 -0.44131257971E+03 -0.53730644543E+02 -0.12911776533E+03  0.46978546746E+03  0.79895012023E+02 0.  0.
        254    2    1    2    0    0  0.44131257971E+03  0.53730644543E+02 -0.44862080428E+03  0.12341826955E+04  0.10603313278E+04 0.  0.
         23    2    4    4    0    0  0.49610971593E+03  0.93905802442E+02 -0.75190835178E+03  0.91028139213E+03  0.91120214093E+02 0.  0.
         23    2    4    4    0    0 -0.54797136224E+02 -0.40175157899E+02  0.30328754750E+03  0.32390130341E+03  0.91169887768E+02 0.  0.
          4    1    3    3  502    0 -0.67518829956E+02 -0.55987750253E+01  0.91016659023E+01  0.68359191062E+02  0.00000000000E+00 0. -1.
         -3    1    3    3    0  502 -0.37379374975E+03 -0.48131869518E+02 -0.13821943123E+03  0.40142627640E+03  0.00000000000E+00 0.  1.
         11    1    5    5    0    0  0.40695715796E+03  0.11053725148E+03 -0.63610938078E+03  0.76319575254E+03  0.00000000000E+00 0.  1.
        -11    1    5    5    0    0  0.89152557971E+02 -0.16631449041E+02 -0.11579897100E+03  0.14708563959E+03  0.00000000000E+00 0. -1.
          2    1    6    6  503    0 -0.32126246797E+02 -0.44564368596E+02  0.67704933422E+02  0.87189659314E+02  0.00000000000E+00 0. -1.
         -2    1    6    6    0  503 -0.22670889428E+02  0.43892106971E+01  0.23558261407E+03  0.23671164410E+03  0.00000000000E+00 0.  1.
<mgrwt>
<rscale>  0 0.16030364E+04</rscale>
<asrwt>0</asrwt>
<pdfrwt beam="1">  1        2 0.17551590E+00 0.16030364E+04</pdfrwt>
<pdfrwt beam="2">  1       -1 0.86633046E-01 0.16030364E+04</pdfrwt>
<totfact> 0.29537672E+01</totfact>
</mgrwt>
</event>
<event>
12    6  0.1510140E-007  0.2441968E+04  0.7818608E-02  0.8423956E-01
          2   -1    0    0  501    0  0.00000000000E+00  0.00000000000E+00  0.14204667476E+04  0.14204667476E+04  0.00000000000E+00 0. -1.
         -1   -1    0    0    0  501 -0.00000000000E+00 -0.00000000000E+00 -0.10495153538E+04  0.10495153538E+04  0.00000000000E+00 0.  1.
         24    2    1    2    0    0  0.16358695821E+03  0.45667708583E+03 -0.77989792795E+03  0.92190175162E+03  0.79670621909E+02 0.  0.
        254    2    1    2    0    0 -0.16358695821E+03 -0.45667708583E+03  0.11508493217E+04  0.15480803498E+04  0.91475895980E+03 0.  0.
         23    2    4    4    0    0 -0.21440153224E+03 -0.70754779016E+02  0.11208172670E+04  0.11469591952E+04  0.91158070205E+02 0.  0.
         23    2    4    4    0    0  0.50814574023E+02 -0.38592230682E+03  0.30032054742E+02  0.40112115459E+03  0.92076644775E+02 0.  0.
          4    1    3    3  502    0  0.97534126469E+01  0.12187101767E+03 -0.21879407007E+03  0.25063622863E+03  0.00000000000E+00 0. -1.
         -3    1    3    3    0  502  0.15383354557E+03  0.33480606817E+03 -0.56110385788E+03  0.67126552299E+03  0.00000000000E+00 0.  1.
         11    1    5    5    0    0 -0.56869221295E+02  0.75547020441E+01  0.15555691474E+03  0.16579847882E+03  0.00000000000E+00 0.  1.
        -11    1    5    5    0    0 -0.15753231094E+03 -0.78309481060E+02  0.96526035224E+03  0.98116071640E+03  0.00000000000E+00 0. -1.
          1    1    6    6  503    0 -0.17651889008E+02 -0.52775616280E+02  0.24917751760E+02  0.60973348375E+02  0.00000000000E+00 0.  1.
         -1    1    6    6    0  503  0.68466463030E+02 -0.33314669054E+03  0.51143029814E+01  0.34014780621E+03  0.00000000000E+00 0. -1.
<mgrwt>
<rscale>  0 0.24419678E+04</rscale>
<asrwt>0</asrwt>
<pdfrwt beam="1">  1        2 0.21853335E+00 0.24419678E+04</pdfrwt>
<pdfrwt beam="2">  1       -1 0.16146390E+00 0.24419678E+04</pdfrwt>
<totfact> 0.40968503E+00</totfact>
</mgrwt>
</event>
<event>
12    6  0.1510140E-007  0.1949877E+04  0.7818608E-02  0.8630420E-01
         -1   -1    0    0    0  501 -0.00000000000E+00  0.00000000000E+00  0.48974693860E+03  0.48974693860E+03  0.00000000000E+00 0.  1.
          2   -1    0    0  501    0  0.00000000000E+00 -0.00000000000E+00 -0.19408094316E+04  0.19408094316E+04  0.00000000000E+00 0. -1.
         24    2    1    2    0    0  0.36134959857E+03  0.53577053172E+03 -0.11112780734E+04  0.12879935628E+04  0.79780112471E+02 0.  0.
        254    2    1    2    0    0 -0.36134959857E+03 -0.53577053172E+03 -0.33978441952E+03  0.11425628073E+04  0.87884738260E+03 0.  0.
         23    2    4    4    0    0 -0.93625163595E+02 -0.67913750646E+03 -0.42836501354E+03  0.81357344421E+03  0.91715540443E+02 0.  0.
         23    2    4    4    0    0 -0.26772443498E+03  0.14336697474E+03  0.88580594017E+02  0.32898936312E+03  0.90316204962E+02 0.  0.
          2    1    3    3  502    0  0.59082477227E+02  0.13195346925E+03 -0.29320584760E+03  0.32691302548E+03  0.00000000000E+00 0. -1.
         -3    1    3    3    0  502  0.30226712135E+03  0.40381706247E+03 -0.81807222583E+03  0.96108053735E+03  0.00000000000E+00 0.  1.
         11    1    5    5    0    0 -0.30151789961E+02 -0.36468164268E+03 -0.27650605849E+03  0.45864739324E+03  0.00000000000E+00 0.  1.
        -11    1    5    5    0    0 -0.63473373634E+02 -0.31445586379E+03 -0.15185895505E+03  0.35492605097E+03  0.00000000000E+00 0. -1.
          1    1    6    6  503    0 -0.24127244117E+03  0.12971325027E+03  0.10688406116E+03  0.29404441959E+03  0.00000000000E+00 0. -1.
         -1    1    6    6    0  503 -0.26451993809E+02  0.13653724471E+02 -0.18303467147E+02  0.34944943526E+02  0.00000000000E+00 0.  1.
<mgrwt>
<rscale>  0 0.19498774E+04</rscale>
<asrwt>0</asrwt>
<pdfrwt beam="1">  1        2 0.29858607E+00 0.19498774E+04</pdfrwt>
<pdfrwt beam="2">  1       -1 0.75345682E-01 0.19498774E+04</pdfrwt>
<totfact> 0.13555274E+01</totfact>
</mgrwt>
</event>
<event>
12    6  0.1510140E-007  0.2288523E+04  0.7818608E-02  0.8482460E-01
          2   -1    0    0  501    0  0.00000000000E+00  0.00000000000E+00  0.26556898220E+04  0.26556898220E+04  0.00000000000E+00 0. -1.
         -1   -1    0    0    0  501 -0.00000000000E+00 -0.00000000000E+00 -0.49302988567E+03  0.49302988567E+03  0.00000000000E+00 0.  1.
         24    2    1    2    0    0  0.69289004677E+03  0.62312335598E+03  0.12672537675E+04  0.15753844044E+04  0.86744318312E+02 0.  0.
        254    2    1    2    0    0 -0.69289004677E+03 -0.62312335598E+03  0.89540616890E+03  0.15733353033E+04  0.89735858812E+03 0.  0.
         23    2    4    4    0    0  0.13949656000E+03  0.54099722854E+02  0.50627183440E+01  0.17625986194E+03  0.93036753756E+02 0.  0.
         23    2    4    4    0    0 -0.83238660676E+03 -0.67722307883E+03  0.89034345055E+03  0.13970754414E+04  0.87233980354E+02 0.  0.
          2    1    3    3  502    0  0.53321360381E+03  0.46475010559E+03  0.10187175696E+04  0.12401995382E+04  0.00000000000E+00 0. -1.
         -1    1    3    3    0  502  0.15967644295E+03  0.15837325039E+03  0.24853619788E+03  0.33518486620E+03  0.00000000000E+00 0.  1.
         11    1    5    5    0    0  0.99431477050E+02  0.44430434797E+02  0.45950448212E+02  0.11820374721E+03  0.00000000000E+00 0.  1.
        -11    1    5    5    0    0  0.40065082946E+02  0.96692880570E+01 -0.40887729868E+02  0.58056114723E+02  0.00000000000E+00 0. -1.
          1    1    6    6  503    0 -0.45683537515E+03 -0.32466254235E+03  0.43294678884E+03  0.70820000590E+03  0.00000000000E+00 0. -1.
         -1    1    6    6    0  503 -0.37555123161E+03 -0.35256053648E+03  0.45739666171E+03  0.68887543547E+03  0.00000000000E+00 0.  1.
<mgrwt>
<rscale>  0 0.22885231E+04</rscale>
<asrwt>0</asrwt>
<pdfrwt beam="1">  1        2 0.40856766E+00 0.22885231E+04</pdfrwt>
<pdfrwt beam="2">  1       -1 0.75850753E-01 0.22885231E+04</pdfrwt>
<totfact> 0.50873094E+00</totfact>
</mgrwt>
</event>
<event>
12    6  0.1510140E-007  0.1681644E+04  0.7818608E-02  0.8771903E-01
         -1   -1    0    0    0  501 -0.00000000000E+00  0.00000000000E+00  0.44164973647E+03  0.44164973647E+03  0.00000000000E+00 0.  1.
          2   -1    0    0  501    0  0.00000000000E+00 -0.00000000000E+00 -0.16007749997E+04  0.16007749997E+04  0.00000000000E+00 0. -1.
         24    2    1    2    0    0 -0.57817226108E+03 -0.35575800183E+02 -0.58460771682E+03  0.82682730374E+03  0.79551282788E+02 0.  0.
        254    2    1    2    0    0  0.57817226108E+03  0.35575800183E+02 -0.57451754640E+03  0.12155974324E+04  0.90114255562E+03 0.  0.
         23    2    4    4    0    0  0.34610796219E+03 -0.12887158488E+03  0.16834852654E+03  0.41510780245E+03  0.87032490394E+02 0.  0.
         23    2    4    4    0    0  0.23206429889E+03  0.16444738507E+03 -0.74286607293E+03  0.80048962998E+03  0.89648558869E+02 0.  0.
          2    1    3    3  502    0 -0.34605839114E+03 -0.19192886717E+02 -0.29362672830E+03  0.45424820589E+03  0.00000000000E+00 0. -1.
         -1    1    3    3    0  502 -0.23211386994E+03 -0.16382913466E+02 -0.29098098853E+03  0.37257909785E+03  0.00000000000E+00 0.  1.
         11    1    5    5    0    0  0.20422587560E+03 -0.56883516094E+02  0.13850165424E+03  0.25323240491E+03  0.00000000000E+00 0. -1.
        -11    1    5    5    0    0  0.14188208659E+03 -0.71988068789E+02  0.29846872297E+02  0.16187539754E+03  0.00000000000E+00 0.  1.
          2    1    6    6  503    0  0.16545194694E+03  0.91503409972E+02 -0.38028005239E+03  0.42468828455E+03  0.00000000000E+00 0. -1.
         -2    1    6    6    0  503  0.66612351952E+02  0.72943975094E+02 -0.36258602054E+03  0.37580134543E+03  0.00000000000E+00 0.  1.
<mgrwt>
<rscale>  0 0.16816443E+04</rscale>
<asrwt>0</asrwt>
<pdfrwt beam="1">  1        2 0.24627307E+00 0.16816443E+04</pdfrwt>
<pdfrwt beam="2">  1       -1 0.67946114E-01 0.16816443E+04</pdfrwt>
<totfact> 0.26525037E+01</totfact>
</mgrwt>
</event>
<event>
12    6  0.1510140E-007  0.2033401E+04  0.7818608E-02  0.8591162E-01
          2   -1    0    0  501    0  0.00000000000E+00  0.00000000000E+00  0.23600213263E+04  0.23600213263E+04  0.00000000000E+00 0. -1.
         -1   -1    0    0    0  501 -0.00000000000E+00 -0.00000000000E+00 -0.43799619812E+03  0.43799619812E+03  0.00000000000E+00 0.  1.
         24    2    1    2    0    0  0.78749289999E+03  0.18395231828E+03  0.86096943345E+03  0.11838921423E+04  0.79678832436E+02 0.  0.
        254    2    1    2    0    0 -0.78749289999E+03 -0.18395231828E+03  0.10610556948E+04  0.16141253822E+04  0.90861325050E+03 0.  0.
         23    2    4    4    0    0 -0.93953625292E+03 -0.16936405486E+03  0.10681196768E+04  0.14354945554E+04  0.91391580953E+02 0.  0.
         23    2    4    4    0    0  0.15204335293E+03 -0.14588263428E+02 -0.70639820245E+01  0.17863082673E+03  0.92352984877E+02 0.  0.
          2    1    3    3  502    0  0.68972169008E+02  0.10795777413E+02  0.10957083857E+03  0.12992104361E+03  0.00000000000E+00 0. -1.
         -1    1    3    3    0  502  0.71852073098E+03  0.17315654087E+03  0.75139859488E+03  0.10539710987E+04  0.00000000000E+00 0.  1.
         11    1    5    5    0    0 -0.51234062372E+03 -0.80495870949E+02  0.64555380026E+03  0.82807741727E+03  0.00000000000E+00 0. -1.
        -11    1    5    5    0    0 -0.42719562920E+03 -0.88868183907E+02  0.42256587653E+03  0.60741713816E+03  0.00000000000E+00 0.  1.
          1    1    6    6  503    0  0.15790134031E+03 -0.14154094284E+02 -0.24332213878E+02  0.16039086099E+03  0.00000000000E+00 0. -1.
         -1    1    6    6    0  503 -0.58579873764E+01 -0.43416914397E+00  0.17268231853E+02  0.18239965742E+02  0.00000000000E+00 0.  1.
<mgrwt>
<rscale>  0 0.20334015E+04</rscale>
<asrwt>0</asrwt>
<pdfrwt beam="1">  1        2 0.36308020E+00 0.20334015E+04</pdfrwt>
<pdfrwt beam="2">  1       -1 0.67384032E-01 0.20334015E+04</pdfrwt>
<totfact> 0.98606823E+00</totfact>
</mgrwt>
</event>
<event>
12    6  0.1510140E-007  0.2609840E+04  0.7818608E-02  0.8364866E-01
          2   -1    0    0  501    0  0.00000000000E+00  0.00000000000E+00  0.17391249273E+04  0.17391249273E+04  0.00000000000E+00 0. -1.
         -1   -1    0    0    0  501 -0.00000000000E+00 -0.00000000000E+00 -0.97912277090E+03  0.97912277090E+03  0.00000000000E+00 0.  1.
         24    2    1    2    0    0 -0.18076587477E+03  0.18180206528E+03  0.14957362844E+04  0.15196743917E+04  0.80342591922E+02 0.  0.
        254    2    1    2    0    0  0.18076587477E+03 -0.18180206528E+03 -0.73573412798E+03  0.11985733065E+04  0.91079359432E+03 0.  0.
         23    2    4    4    0    0  0.33640471161E+03 -0.46685619335E+03 -0.59795764947E+03  0.83484363116E+03  0.91036820378E+02 0.  0.
         23    2    4    4    0    0 -0.15563883683E+03  0.28505412807E+03 -0.13777647851E+03  0.36372967530E+03  0.88530306684E+02 0.  0.
          2    1    3    3  502    0 -0.14520805966E+03  0.18216722992E+03  0.12798323136E+04  0.13008616495E+04  0.00000000000E+00 0. -1.
         -1    1    3    3    0  502 -0.35557815116E+02 -0.36516464052E+00  0.21590397081E+03  0.21881274225E+03  0.00000000000E+00 0.  1.
         11    1    5    5    0    0  0.93980202521E+02 -0.70623270397E+02 -0.10691196391E+03  0.15890277787E+03  0.00000000000E+00 0. -1.
        -11    1    5    5    0    0  0.24242450908E+03 -0.39623292295E+03 -0.49104568556E+03  0.67594085329E+03  0.00000000000E+00 0.  1.
          4    1    6    6  503    0 -0.19137893972E+02  0.16416125905E+02 -0.39346729451E+02  0.46732358104E+02  0.00000000000E+00 0. -1.
         -4    1    6    6    0  503 -0.13650094286E+03  0.26863800216E+03 -0.98429749062E+02  0.31699731720E+03  0.00000000000E+00 0.  1.
<mgrwt>
<rscale>  0 0.26098405E+04</rscale>
<asrwt>0</asrwt>
<pdfrwt beam="1">  1        2 0.26755768E+00 0.26098405E+04</pdfrwt>
<pdfrwt beam="2">  1       -1 0.15063427E+00 0.26098405E+04</pdfrwt>
<totfact> 0.32372354E+00</totfact>
</mgrwt>
</event>
<event>
12    6  0.1510140E-007  0.2106178E+04  0.7818608E-02  0.8558527E-01
         -1   -1    0    0    0  501 -0.00000000000E+00  0.00000000000E+00  0.41451617652E+03  0.41451617652E+03  0.00000000000E+00 0.  1.
          2   -1    0    0  501    0  0.00000000000E+00 -0.00000000000E+00 -0.26754001582E+04  0.26754001582E+04  0.00000000000E+00 0. -1.
         24    2    1    2    0    0  0.76266190047E+02  0.51140033003E+03  0.80564965882E+02  0.52904160729E+03  0.77765540092E+02 0.  0.
        254    2    1    2    0    0 -0.76266190047E+02 -0.51140033003E+03 -0.23414489476E+04  0.25608747275E+04  0.89908251358E+03 0.  0.
         23    2    4    4    0    0 -0.38183151479E+02 -0.54084978324E+03 -0.23850312793E+04  0.24475518381E+04  0.90329151475E+02 0.  0.
         23    2    4    4    0    0 -0.38083038568E+02  0.29449453214E+02  0.43582331723E+02  0.11332288939E+03  0.92871252278E+02 0.  0.
          2    1    3    3  502    0  0.41292174221E+02  0.14734903359E+03 -0.62444812653E+01  0.15315278286E+03  0.00000000000E+00 0. -1.
         -1    1    3    3    0  502  0.34974015826E+02  0.36405129644E+03  0.86809447147E+02  0.37588882444E+03  0.00000000000E+00 0.  1.
         11    1    5    5    0    0 -0.29200173485E+02 -0.12789665349E+03 -0.73436673767E+03  0.74599243260E+03  0.00000000000E+00 0.  1.
        -11    1    5    5    0    0 -0.89829779944E+01 -0.41295312975E+03 -0.16506645417E+04  0.17015594055E+04  0.00000000000E+00 0. -1.
          1    1    6    6  503    0 -0.53319050555E+01 -0.21268156433E+02 -0.17037629833E+02  0.27767688415E+02  0.00000000000E+00 0.  1.
         -1    1    6    6    0  503 -0.32751133512E+02  0.50717609647E+02  0.60619961555E+02  0.85555200974E+02  0.00000000000E+00 0. -1.
<mgrwt>
<rscale>  0 0.21061782E+04</rscale>
<asrwt>0</asrwt>
<pdfrwt beam="1">  1        2 0.41160002E+00 0.21061782E+04</pdfrwt>
<pdfrwt beam="2">  1       -1 0.63771720E-01 0.21061782E+04</pdfrwt>
<totfact> 0.71847419E+00</totfact>
</mgrwt>
</event>
<event>
12    6  0.1510140E-007  0.1829060E+04  0.7818608E-02  0.8690997E-01
          2   -1    0    0  501    0  0.00000000000E+00  0.00000000000E+00  0.21474895296E+04  0.21474895296E+04  0.00000000000E+00 0. -1.
         -1   -1    0    0    0  501 -0.00000000000E+00 -0.00000000000E+00 -0.38946167652E+03  0.38946167652E+03  0.00000000000E+00 0.  1.
         24    2    1    2    0    0 -0.49577657523E+02 -0.66873930248E+03  0.43416079317E+03  0.80305610070E+03  0.82056734903E+02 0.  0.
        254    2    1    2    0    0  0.49577657523E+02  0.66873930248E+03  0.13238670599E+04  0.17338951055E+04  0.89671514179E+03 0.  0.
         23    2    4    4    0    0 -0.31290976590E+03  0.60761795751E+03  0.58493421392E+03  0.90413198227E+03  0.90523493481E+02 0.  0.
         23    2    4    4    0    0  0.36248742342E+03  0.61121344970E+02  0.73893284602E+03  0.82976312318E+03  0.85744613322E+02 0.  0.
          4    1    3    3  502    0 -0.87905255141E+01 -0.17257575657E+03  0.15589008693E+03  0.23272598544E+03  0.00000000000E+00 0. -1.
         -3    1    3    3    0  502 -0.40787132009E+02 -0.49616354591E+03  0.27827070624E+03  0.57033011526E+03  0.00000000000E+00 0.  1.
         11    1    5    5    0    0 -0.58367683999E+02  0.74863439021E+02  0.11754795821E+03  0.15109216895E+03  0.00000000000E+00 0. -1.
        -11    1    5    5    0    0 -0.25454208190E+03  0.53275451849E+03  0.46738625570E+03  0.75303981332E+03  0.00000000000E+00 0.  1.
          2    1    6    6  503    0  0.31519492013E+03  0.61878568909E+02  0.56936989847E+03  0.65372691260E+03  0.00000000000E+00 0. -1.
         -2    1    6    6    0  503  0.47292503290E+02 -0.75722393924E+00  0.16956294755E+03  0.17603621059E+03  0.00000000000E+00 0.  1.
<mgrwt>
<rscale>  0 0.18290597E+04</rscale>
<asrwt>0</asrwt>
<pdfrwt beam="1">  1        2 0.33038300E+00 0.18290597E+04</pdfrwt>
<pdfrwt beam="2">  1       -1 0.59917182E-01 0.18290597E+04</pdfrwt>
<totfact> 0.16743898E+01</totfact>
</mgrwt>
</event>
<event>
12    6  0.1510140E-007  0.1852635E+04  0.7818608E-02  0.8678799E-01
          2   -1    0    0  501    0  0.00000000000E+00  0.00000000000E+00  0.14888381024E+04  0.14888381024E+04  0.00000000000E+00 0. -1.
         -1   -1    0    0    0  501 -0.00000000000E+00 -0.00000000000E+00 -0.57633142521E+03  0.57633142521E+03  0.00000000000E+00 0.  1.
         24    2    1    2    0    0  0.82149129573E+02 -0.35286165949E+03  0.10294185743E+04  0.10942894538E+04  0.80665838162E+02 0.  0.
        254    2    1    2    0    0 -0.82149129573E+02  0.35286165949E+03 -0.11691189712E+03  0.97088007376E+03  0.89312927156E+03 0.  0.
         23    2    4    4    0    0 -0.36388856260E+03  0.50678001186E+03 -0.68303284473E+02  0.63414056717E+03  0.90708620620E+02 0.  0.
         23    2    4    4    0    0  0.28173943303E+03 -0.15391835237E+03 -0.48608612643E+02  0.33673950659E+03  0.89234134459E+02 0.  0.
          4    1    3    3  502    0  0.42723537798E+02 -0.28016052078E+03  0.71342941129E+03  0.76765665697E+03  0.00000000000E+00 0. -1.
         -3    1    3    3    0  502  0.39425591776E+02 -0.72701138707E+02  0.31598916301E+03  0.32663279688E+03  0.00000000000E+00 0.  1.
         11    1    5    5    0    0 -0.12464082168E+03  0.15262878915E+03  0.18848193500E+02  0.19795488401E+03  0.00000000000E+00 0. -1.
        -11    1    5    5    0    0 -0.23924774093E+03  0.35415122271E+03 -0.87151477973E+02  0.43618568317E+03  0.00000000000E+00 0.  1.
          1    1    6    6  503    0  0.10359260347E+02 -0.89084789263E+00  0.15495852294E+02  0.18660903601E+02  0.00000000000E+00 0. -1.
         -1    1    6    6    0  503  0.27138017268E+03 -0.15302750448E+03 -0.64104464937E+02  0.31807860298E+03  0.00000000000E+00 0.  1.
<mgrwt>
<rscale>  0 0.18526351E+04</rscale>
<asrwt>0</asrwt>
<pdfrwt beam="1">  1        2 0.22905201E+00 0.18526351E+04</pdfrwt>
<pdfrwt beam="2">  1       -1 0.88666374E-01 0.18526351E+04</pdfrwt>
<totfact> 0.17223982E+01</totfact>
</mgrwt>
</event>
<event>
12    6  0.1510140E-007  0.1788209E+04  0.7818608E-02  0.8712595E-01
          2   -1    0    0  501    0  0.00000000000E+00  0.00000000000E+00  0.83626578021E+03  0.83626578021E+03  0.00000000000E+00 0. -1.
         -1   -1    0    0    0  501 -0.00000000000E+00 -0.00000000000E+00 -0.95594303489E+03  0.95594303489E+03  0.00000000000E+00 0.  1.
         24    2    1    2    0    0  0.49542233821E+03  0.41585231697E+03  0.98293686624E+02  0.65686517949E+03  0.58598399866E+02 0.  0.
        254    2    1    2    0    0 -0.49542233821E+03 -0.41585231697E+03 -0.21797094130E+03  0.11353436356E+04  0.90725817547E+03 0.  0.
         23    2    4    4    0    0 -0.29665554781E+02 -0.50521090821E+03 -0.36502974165E+03  0.63072877706E+03  0.91945478476E+02 0.  0.
         23    2    4    4    0    0 -0.46575678343E+03  0.89358591243E+02  0.14705880035E+03  0.50461485855E+03  0.89975138641E+02 0.  0.
          4    1    3    3  502    0  0.32911793278E+03  0.25841659441E+03  0.88181052530E+02  0.42763728552E+03  0.00000000000E+00 0. -1.
         -3    1    3    3    0  502  0.16630440543E+03  0.15743572256E+03  0.10112634094E+02  0.22922789396E+03  0.00000000000E+00 0.  1.
         11    1    5    5    0    0  0.11860287676E+02 -0.14175976081E+03 -0.59859917035E+02  0.15433634011E+03  0.00000000000E+00 0.  1.
        -11    1    5    5    0    0 -0.41525842457E+02 -0.36345114740E+03 -0.30516982461E+03  0.47639243696E+03  0.00000000000E+00 0. -1.
          2    1    6    6  503    0 -0.32154173987E+03  0.96321693314E+02  0.78178226295E+02  0.34464299522E+03  0.00000000000E+00 0.  1.
         -2    1    6    6    0  503 -0.14421504355E+03 -0.69631020710E+01  0.68880574050E+02  0.15997186334E+03  0.00000000000E+00 0. -1.
<mgrwt>
<rscale>  0 0.17882085E+04</rscale>
<asrwt>0</asrwt>
<pdfrwt beam="1">  1        2 0.12865627E+00 0.17882085E+04</pdfrwt>
<pdfrwt beam="2">  1       -1 0.14706816E+00 0.17882085E+04</pdfrwt>
<totfact> 0.12878213E+01</totfact>
</mgrwt>
</event>
<event>
12    6  0.1510140E-007  0.1709407E+04  0.7818608E-02  0.8756017E-01
          2   -1    0    0  501    0  0.00000000000E+00  0.00000000000E+00  0.16233800678E+04  0.16233800678E+04  0.00000000000E+00 0. -1.
         -1   -1    0    0    0  501 -0.00000000000E+00 -0.00000000000E+00 -0.44999811336E+03  0.44999811336E+03  0.00000000000E+00 0.  1.
         24    2    1    2    0    0  0.29913988254E+03  0.30390200917E+03 -0.97674763099E+02  0.44487769343E+03  0.80837505267E+02 0.  0.
        254    2    1    2    0    0 -0.29913988254E+03 -0.30390200917E+03  0.12710567175E+04  0.16285004877E+04  0.92443905091E+03 0.  0.
         23    2    4    4    0    0 -0.57030327674E+03 -0.25615328582E+01  0.91488427775E+03  0.10818306404E+04  0.89955011015E+02 0.  0.
         23    2    4    4    0    0  0.27116339420E+03 -0.30134047631E+03  0.35617243979E+03  0.54666984730E+03  0.87483976025E+02 0.  0.
          2    1    3    3  502    0  0.35861614974E+02  0.75474011875E+02 -0.35619870048E+02  0.90835879691E+02  0.00000000000E+00 0. -1.
         -1    1    3    3    0  502  0.26327826757E+03  0.22842799730E+03 -0.62054893050E+02  0.35404181374E+03  0.00000000000E+00 0.  1.
         11    1    5    5    0    0 -0.40922038229E+03 -0.23744925326E+02  0.71585618185E+03  0.82490921673E+03  0.00000000000E+00 0.  1.
        -11    1    5    5    0    0 -0.16108289445E+03  0.21183392468E+02  0.19902809591E+03  0.25692142371E+03  0.00000000000E+00 0. -1.
          2    1    6    6  503    0  0.24197550724E+03 -0.29983169692E+03  0.33521463790E+03  0.51070543961E+03  0.00000000000E+00 0.  1.
         -2    1    6    6    0  503  0.29187886963E+02 -0.15087793931E+01  0.20957801885E+02  0.35964407690E+02  0.00000000000E+00 0. -1.
<mgrwt>
<rscale>  0 0.17094069E+04</rscale>
<asrwt>0</asrwt>
<pdfrwt beam="1">  1        2 0.24975078E+00 0.17094069E+04</pdfrwt>
<pdfrwt beam="2">  1       -1 0.69230480E-01 0.17094069E+04</pdfrwt>
<totfact> 0.24740202E+01</totfact>
</mgrwt>
</event>
<event>
12    6  0.1510140E-007  0.1089368E+04  0.7818608E-02  0.9215617E-01
          2   -1    0    0  501    0  0.00000000000E+00  0.00000000000E+00  0.16526930011E+04  0.16526930011E+04  0.00000000000E+00 0. -1.
         -1   -1    0    0    0  501 -0.00000000000E+00 -0.00000000000E+00 -0.17951348490E+03  0.17951348490E+03  0.00000000000E+00 0.  1.
         24    2    1    2    0    0  0.58875727853E+02 -0.63604740407E+02  0.27431144389E+02  0.12066826784E+03  0.79350166022E+02 0.  0.
        254    2    1    2    0    0 -0.58875727853E+02  0.63604740407E+02  0.14457483718E+04  0.17115382182E+04  0.91195548318E+03 0.  0.
         23    2    4    4    0    0  0.16405544877E+02 -0.33274424707E+03  0.11558034268E+04  0.12065630889E+04  0.94472484683E+02 0.  0.
         23    2    4    4    0    0 -0.75281272730E+02  0.39634898748E+03  0.28994494503E+03  0.50497512922E+03  0.90399226132E+02 0.  0.
          2    1    3    3  502    0  0.10523771590E+02 -0.42217673763E+02  0.47225864306E+02  0.64213425434E+02  0.00000000000E+00 0. -1.
         -3    1    3    3    0  502  0.48351956263E+02 -0.21387066644E+02 -0.19794719918E+02  0.56454842403E+02  0.00000000000E+00 0.  1.
         11    1    5    5    0    0 -0.26280061221E+02 -0.21126726078E+03  0.81181943901E+03  0.83927069450E+03  0.00000000000E+00 0. -1.
        -11    1    5    5    0    0  0.42685606098E+02 -0.12147698629E+03  0.34398398778E+03  0.36729239445E+03  0.00000000000E+00 0.  1.
          4    1    6    6  503    0 -0.84008355972E+02  0.20063357363E+03  0.15487687016E+03  0.26701700255E+03  0.00000000000E+00 0.  1.
         -4    1    6    6    0  503  0.87270832415E+01  0.19571541385E+03  0.13506807487E+03  0.23795812667E+03  0.00000000000E+00 0. -1.
<mgrwt>
<rscale>  0 0.10893680E+04</rscale>
<asrwt>0</asrwt>
<pdfrwt beam="1">  1        2 0.25426045E+00 0.10893680E+04</pdfrwt>
<pdfrwt beam="2">  1       -1 0.27617460E-01 0.10893680E+04</pdfrwt>
<totfact> 0.13906209E+02</totfact>
</mgrwt>
</event>
<event>
12    6  0.1678019E-007  0.2360080E+04  0.7818608E-02  0.8454602E-01
         -1   -1    0    0    0  501 -0.00000000000E+00  0.00000000000E+00  0.45865829438E+03  0.45865829438E+03  0.00000000000E+00 0.  1.
          2   -1    0    0  501    0  0.00000000000E+00 -0.00000000000E+00 -0.30360159142E+04  0.30360159142E+04  0.00000000000E+00 0. -1.
         24    2    1    2    0    0 -0.13679634781E+03  0.52879469544E+03 -0.23542615758E+04  0.24180731902E+04  0.78697616732E+02 0.  0.
        254    2    1    2    0    0  0.13679634781E+03 -0.52879469544E+03 -0.22309604402E+03  0.10766010184E+04  0.90053364032E+03 0.  0.
         23    2    4    4    0    0  0.11305402024E+03  0.23536176520E+03 -0.11397126082E+03  0.29915527424E+03  0.91258193060E+02 0.  0.
         23    2    4    4    0    0  0.23742327578E+02 -0.76415646064E+03 -0.10912478320E+03  0.77744574420E+03  0.89525819838E+02 0.  0.
          2    1    3    3  502    0 -0.11516226559E+03  0.50134908884E+03 -0.22520456130E+04  0.23100482028E+04  0.00000000000E+00 0. -1.
         -1    1    3    3    0  502 -0.21634082220E+02  0.27445606601E+02 -0.10221596280E+03  0.10802498733E+03  0.00000000000E+00 0.  1.
         11    1    5    5    0    0  0.11780158698E+03  0.21731539732E+03 -0.12549614255E+03  0.27722279416E+03  0.00000000000E+00 0. -1.
        -11    1    5    5    0    0 -0.47475667407E+01  0.18046367882E+02  0.11524881725E+02  0.21932480080E+02  0.00000000000E+00 0.  1.
          4    1    6    6  503    0  0.15914767375E+02 -0.72558843099E+03 -0.83654420615E+02  0.73056821249E+03  0.00000000000E+00 0. -1.
         -4    1    6    6    0  503  0.78275602025E+01 -0.38568029645E+02 -0.25470362584E+02  0.46877531713E+02  0.00000000000E+00 0.  1.
<mgrwt>
<rscale>  0 0.23600796E+04</rscale>
<asrwt>0</asrwt>
<pdfrwt beam="1">  1        2 0.46707936E+00 0.23600796E+04</pdfrwt>
<pdfrwt beam="2">  1       -1 0.70562816E-01 0.23600796E+04</pdfrwt>
<totfact> 0.34443196E+00</totfact>
</mgrwt>
</event>
<event>
12    6  0.1510140E-007  0.2053475E+04  0.7818608E-02  0.8582020E-01
          2   -1    0    0  501    0  0.00000000000E+00  0.00000000000E+00  0.15974067812E+04  0.15974067812E+04  0.00000000000E+00 0. -1.
         -1   -1    0    0    0  501 -0.00000000000E+00 -0.00000000000E+00 -0.65993821730E+03  0.65993821730E+03  0.00000000000E+00 0.  1.
         24    2    1    2    0    0  0.57566375092E+03  0.57927756199E+03  0.55753870137E+03  0.99204038383E+03  0.79645914329E+02 0.  0.
        254    2    1    2    0    0 -0.57566375092E+03 -0.57927756199E+03  0.37992986248E+03  0.12653046146E+04  0.88864943562E+03 0.  0.
         23    2    4    4    0    0 -0.78434654518E+03 -0.30406117365E+03  0.31310526222E+03  0.90194542136E+03  0.88419102168E+02 0.  0.
         23    2    4    4    0    0  0.20868279426E+03 -0.27521638834E+03  0.66824600262E+02  0.36335919326E+03  0.90949475527E+02 0.  0.
          2    1    3    3  502    0  0.15402602110E+03  0.18314585759E+03  0.20057743974E+03  0.31224626445E+03  0.00000000000E+00 0. -1.
         -3    1    3    3    0  502  0.42163772982E+03  0.39613170441E+03  0.35696126163E+03  0.67979411938E+03  0.00000000000E+00 0.  1.
         11    1    5    5    0    0 -0.37566739235E+03 -0.17635530132E+03  0.11822526237E+03  0.43151407236E+03  0.00000000000E+00 0. -1.
        -11    1    5    5    0    0 -0.40867915283E+03 -0.12770587233E+03  0.19487999985E+03  0.47043134900E+03  0.00000000000E+00 0.  1.
          4    1    6    6  503    0  0.14069124578E+03 -0.13272830921E+03  0.69306293007E+02  0.20546092805E+03  0.00000000000E+00 0. -1.
         -4    1    6    6    0  503  0.67991548476E+02 -0.14248807913E+03 -0.24816927444E+01  0.15789826521E+03  0.00000000000E+00 0.  1.
<mgrwt>
<rscale>  0 0.20534749E+04</rscale>
<asrwt>0</asrwt>
<pdfrwt beam="1">  1        2 0.24575489E+00 0.20534749E+04</pdfrwt>
<pdfrwt beam="2">  1       -1 0.10152896E+00 0.20534749E+04</pdfrwt>
<totfact> 0.10852119E+01</totfact>
</mgrwt>
</event>
<event>
12    6  0.1510140E-007  0.1502298E+04  0.7818608E-02  0.8882926E-01
         -1   -1    0    0    0  501 -0.00000000000E+00  0.00000000000E+00  0.23817191234E+03  0.23817191234E+03  0.00000000000E+00 0.  1.
          2   -1    0    0  501    0  0.00000000000E+00 -0.00000000000E+00 -0.23689822272E+04  0.23689822272E+04  0.00000000000E+00 0. -1.
         24    2    1    2    0    0  0.34967101566E+03 -0.81039701670E+02 -0.13305860890E+03  0.39049562921E+03  0.77103765067E+02 0.  0.
        254    2    1    2    0    0 -0.34967101566E+03  0.81039701670E+02 -0.19977517060E+04  0.22166585103E+04  0.89091291399E+03 0.  0.
         23    2    4    4    0    0 -0.52155926013E+03  0.13737206187E+03 -0.19235908642E+04  0.19998873036E+04  0.91936222324E+02 0.  0.
         23    2    4    4    0    0  0.17188824446E+03 -0.56332360204E+02 -0.74160841718E+02  0.21677120671E+03  0.93653735765E+02 0.  0.
          2    1    3    3  502    0  0.21099463719E+03 -0.50972110847E+02 -0.11992720504E+03  0.24799078111E+03  0.00000000000E+00 0. -1.
         -1    1    3    3    0  502  0.13867637847E+03 -0.30067590823E+02 -0.13131403861E+02  0.14250484810E+03  0.00000000000E+00 0.  1.
         11    1    5    5    0    0 -0.85150486895E+02  0.57458139440E+02 -0.32265133663E+03  0.33860881299E+03  0.00000000000E+00 0. -1.
        -11    1    5    5    0    0 -0.43640877323E+03  0.79913922434E+02 -0.16009395276E+04  0.16612784906E+04  0.00000000000E+00 0.  1.
          4    1    6    6  503    0  0.23664185932E+02  0.24129464858E+02 -0.21625612220E+02  0.40123457902E+02  0.00000000000E+00 0. -1.
         -4    1    6    6    0  503  0.14822405853E+03 -0.80461825062E+02 -0.52535229498E+02  0.17664774881E+03  0.00000000000E+00 0.  1.
<mgrwt>
<rscale>  0 0.15022983E+04</rscale>
<asrwt>0</asrwt>
<pdfrwt beam="1">  1        2 0.36445881E+00 0.15022983E+04</pdfrwt>
<pdfrwt beam="2">  1       -1 0.36641832E-01 0.15022983E+04</pdfrwt>
<totfact> 0.32617833E+01</totfact>
</mgrwt>
</event>
<event>
12    6  0.1510140E-007  0.1481755E+04  0.7818608E-02  0.8896677E-01
          2   -1    0    0  501    0  0.00000000000E+00  0.00000000000E+00  0.11333588134E+04  0.11333588134E+04  0.00000000000E+00 0. -1.
         -1   -1    0    0    0  501 -0.00000000000E+00 -0.00000000000E+00 -0.48431186816E+03  0.48431186816E+03  0.00000000000E+00 0.  1.
         24    2    1    2    0    0 -0.42126059273E+03 -0.14241707503E+03  0.34490201066E+02  0.45328098936E+03  0.80814423831E+02 0.  0.
        254    2    1    2    0    0  0.42126059273E+03  0.14241707503E+03  0.61455674419E+03  0.11643896922E+04  0.88339133642E+03 0.  0.
         23    2    4    4    0    0 -0.24787361029E+03  0.77211359357E+02  0.46716314170E+02  0.27952340074E+03  0.92455377675E+02 0.  0.
         23    2    4    4    0    0  0.66913420303E+03  0.65205715669E+02  0.56784043002E+03  0.88486629148E+03  0.92483689419E+02 0.  0.
          2    1    3    3  502    0 -0.30070080381E+03 -0.85696925022E+02  0.57940771840E+02  0.31799696447E+03  0.00000000000E+00 0. -1.
         -1    1    3    3    0  502 -0.12055978892E+03 -0.56720150004E+02 -0.23450570775E+02  0.13528402489E+03  0.00000000000E+00 0.  1.
         11    1    5    5    0    0 -0.10049513511E+03  0.72681601321E+02 -0.25870526576E+01  0.12405071621E+03  0.00000000000E+00 0. -1.
        -11    1    5    5    0    0 -0.14737847518E+03  0.45297580358E+01  0.49303366827E+02  0.15547268453E+03  0.00000000000E+00 0.  1.
          2    1    6    6  503    0  0.66723752341E+03  0.64016508434E+02  0.57130956012E+03  0.88073755425E+03  0.00000000000E+00 0. -1.
         -2    1    6    6    0  503  0.18966796202E+01  0.11892072359E+01 -0.34691300952E+01  0.41287372221E+01  0.00000000000E+00 0.  1.
<mgrwt>
<rscale>  0 0.14817545E+04</rscale>
<asrwt>0</asrwt>
<pdfrwt beam="1">  1        2 0.17436289E+00 0.14817545E+04</pdfrwt>
<pdfrwt beam="2">  1       -1 0.74509519E-01 0.14817545E+04</pdfrwt>
<totfact> 0.41570332E+01</totfact>
</mgrwt>
</event>
<event>
12    6  0.1510140E-007  0.2425693E+04  0.7818608E-02  0.8429947E-01
         -1   -1    0    0    0  501 -0.00000000000E+00  0.00000000000E+00  0.10841171777E+04  0.10841171777E+04  0.00000000000E+00 0.  1.
          2   -1    0    0  501    0  0.00000000000E+00 -0.00000000000E+00 -0.13568614557E+04  0.13568614557E+04  0.00000000000E+00 0. -1.
         24    2    1    2    0    0 -0.59040805670E+03  0.83578356857E+03 -0.31893435715E+03  0.10748969473E+04  0.81046135959E+02 0.  0.
        254    2    1    2    0    0  0.59040805670E+03 -0.83578356857E+03  0.46190079157E+02  0.13660816861E+04  0.90384169125E+03 0.  0.
         23    2    4    4    0    0 -0.21882176927E+03 -0.72057088643E+02 -0.20536806790E+02  0.24762125332E+03  0.88426997761E+02 0.  0.
         23    2    4    4    0    0  0.80922982597E+03 -0.76372647993E+03  0.66726885947E+02  0.11184604328E+04  0.91488879420E+02 0.  0.
          2    1    3    3  502    0 -0.34138741529E+03  0.48553093141E+03 -0.22669985652E+03  0.63535696865E+03  0.00000000000E+00 0. -1.
         -1    1    3    3    0  502 -0.24902064141E+03  0.35025263716E+03 -0.92234500633E+02  0.43953997861E+03  0.00000000000E+00 0.  1.
         11    1    5    5    0    0 -0.21305594918E+03 -0.43833753910E+02 -0.22887839364E+02  0.21871920047E+03  0.00000000000E+00 0.  1.
        -11    1    5    5    0    0 -0.57658200859E+01 -0.28223334733E+02  0.23510325736E+01  0.28902052849E+02  0.00000000000E+00 0. -1.
          1    1    6    6  503    0  0.10344542286E+03 -0.13068423824E+03 -0.12032055524E+02  0.16710504479E+03  0.00000000000E+00 0. -1.
         -1    1    6    6    0  503  0.70578440311E+03 -0.63304224168E+03  0.78758941471E+02  0.95135538801E+03  0.00000000000E+00 0.  1.
<mgrwt>
<rscale>  0 0.24256931E+04</rscale>
<asrwt>0</asrwt>
<pdfrwt beam="1">  1        2 0.20874792E+00 0.24256931E+04</pdfrwt>
<pdfrwt beam="2">  1       -1 0.16678726E+00 0.24256931E+04</pdfrwt>
<totfact> 0.40714837E+00</totfact>
</mgrwt>
</event>
<event>
12    6  0.1510140E-007  0.3118950E+04  0.7818608E-02  0.8210556E-01
          2   -1    0    0  501    0  0.00000000000E+00  0.00000000000E+00  0.21569691016E+04  0.21569691016E+04  0.00000000000E+00 0. -1.
         -1   -1    0    0    0  501 -0.00000000000E+00 -0.00000000000E+00 -0.11274908164E+04  0.11274908164E+04  0.00000000000E+00 0.  1.
         24    2    1    2    0    0 -0.89347693413E+03  0.10741069879E+04  0.25332904130E+03  0.14222119482E+04  0.80649668831E+02 0.  0.
        254    2    1    2    0    0  0.89347693413E+03 -0.10741069879E+04  0.77614924388E+03  0.18622479699E+04  0.95579966493E+03 0.  0.
         23    2    4    4    0    0  0.50987326244E+03 -0.89713989302E+03  0.75504718236E+02  0.10387517667E+04  0.92051827298E+02 0.  0.
         23    2    4    4    0    0  0.38360367169E+03 -0.17696709485E+03  0.70064452565E+03  0.82349620324E+03  0.93670250548E+02 0.  0.
          4    1    3    3  502    0 -0.88410367853E+03  0.10681405363E+04  0.24436090705E+03  0.14079331563E+04  0.00000000000E+00 0. -1.
         -3    1    3    3    0  502 -0.93732555947E+01  0.59664515393E+01  0.89681342488E+01  0.14278791837E+02  0.00000000000E+00 0.  1.
         11    1    5    5    0    0  0.20338571168E+02 -0.55915448592E+02 -0.14691824463E+02  0.61286577441E+02  0.00000000000E+00 0. -1.
        -11    1    5    5    0    0  0.48953469127E+03 -0.84122444443E+03  0.90196542699E+02  0.97746518924E+03  0.00000000000E+00 0.  1.
          1    1    6    6  503    0  0.85699348439E+01 -0.27795959926E+02  0.45272986342E+02  0.53811731655E+02  0.00000000000E+00 0. -1.
         -1    1    6    6    0  503  0.37503373685E+03 -0.14917113492E+03  0.65537153931E+03  0.76968447159E+03  0.00000000000E+00 0.  1.
<mgrwt>
<rscale>  0 0.31189504E+04</rscale>
<asrwt>0</asrwt>
<pdfrwt beam="1">  1        2 0.33184140E+00 0.31189504E+04</pdfrwt>
<pdfrwt beam="2">  1       -1 0.17346013E+00 0.31189504E+04</pdfrwt>
<totfact> 0.12215227E+00</totfact>
</mgrwt>
</event>
<event>
12    6  0.1510140E-007  0.2322489E+04  0.7818608E-02  0.8469106E-01
         -1   -1    0    0    0  501 -0.00000000000E+00  0.00000000000E+00  0.12800979823E+04  0.12800979823E+04  0.00000000000E+00 0.  1.
          2   -1    0    0  501    0  0.00000000000E+00 -0.00000000000E+00 -0.10534266265E+04  0.10534266265E+04  0.00000000000E+00 0. -1.
         24    2    1    2    0    0  0.41924189929E+03 -0.51489777139E+02 -0.78838060726E+03  0.89779130334E+03  0.77911970680E+02 0.  0.
        254    2    1    2    0    0 -0.41924189929E+03  0.51489777139E+02  0.10150519630E+04  0.14357333055E+04  0.92335511566E+03 0.  0.
         23    2    4    4    0    0 -0.49801867333E+03  0.24323021787E+03  0.21257544923E+03  0.60055601694E+03  0.91080568758E+02 0.  0.
         23    2    4    4    0    0  0.78776774040E+02 -0.19174044073E+03  0.80247651376E+03  0.83517728853E+03  0.10287065374E+03 0.  0.
          2    1    3    3  502    0  0.40309751606E+03 -0.44395825996E+02 -0.71190622477E+03  0.81931011814E+03  0.00000000000E+00 0. -1.
         -3    1    3    3    0  502  0.16144383226E+02 -0.70939511426E+01 -0.76474382491E+02  0.78481185198E+02  0.00000000000E+00 0.  1.
         11    1    5    5    0    0 -0.37917060482E+03  0.15643437794E+03  0.18857096456E+03  0.45144331963E+03  0.00000000000E+00 0. -1.
        -11    1    5    5    0    0 -0.11884806851E+03  0.86795839926E+02  0.24004484669E+02  0.14911269731E+03  0.00000000000E+00 0.  1.
          1    1    6    6  503    0  0.97451274045E+02 -0.13345287531E+03  0.65458763086E+03  0.67512323854E+03  0.00000000000E+00 0. -1.
         -1    1    6    6    0  503 -0.18674500005E+02 -0.58287565421E+02  0.14788888290E+03  0.16005404999E+03  0.00000000000E+00 0.  1.
<mgrwt>
<rscale>  0 0.23224894E+04</rscale>
<asrwt>0</asrwt>
<pdfrwt beam="1">  1        2 0.16206564E+00 0.23224894E+04</pdfrwt>
<pdfrwt beam="2">  1       -1 0.19693815E+00 0.23224894E+04</pdfrwt>
<totfact> 0.37980564E+00</totfact>
</mgrwt>
</event>
<event>
12    6  0.1510140E-007  0.1426780E+04  0.7818608E-02  0.8934658E-01
         -1   -1    0    0    0  501 -0.00000000000E+00  0.00000000000E+00  0.38031261666E+03  0.38031261666E+03  0.00000000000E+00 0.  1.
          2   -1    0    0  501    0  0.00000000000E+00 -0.00000000000E+00 -0.13381769431E+04  0.13381769431E+04  0.00000000000E+00 0. -1.
         24    2    1    2    0    0  0.20315103903E+03  0.45369143462E+02  0.18142979134E+03  0.28708497797E+03  0.78564060172E+02 0.  0.
        254    2    1    2    0    0 -0.20315103903E+03 -0.45369143462E+02 -0.11392941178E+04  0.14314045818E+04  0.84118920946E+03 0.  0.
         23    2    4    4    0    0 -0.40051277855E+03  0.14316282898E+03 -0.26115020546E+03  0.50723200111E+03  0.90436672637E+02 0.  0.
         23    2    4    4    0    0  0.19736173952E+03 -0.18853197244E+03 -0.87814391232E+03  0.92417258067E+03  0.91990582487E+02 0.  0.
          4    1    3    3  502    0  0.94675392001E+02 -0.12641211570E+02  0.52948733086E+02  0.10920988241E+03  0.00000000000E+00 0. -1.
         -3    1    3    3    0  502  0.10847564703E+03  0.58010355032E+02  0.12848105825E+03  0.17787509556E+03  0.00000000000E+00 0.  1.
         11    1    5    5    0    0 -0.74078455696E+02  0.10758364959E+01 -0.75256892926E+02  0.10560480555E+03  0.00000000000E+00 0. -1.
        -11    1    5    5    0    0 -0.32643432285E+03  0.14208699248E+03 -0.18589331253E+03  0.40162719556E+03  0.00000000000E+00 0.  1.
          2    1    6    6  503    0  0.48417467373E+02 -0.12742760589E+02 -0.89394120513E+02  0.10245944503E+03  0.00000000000E+00 0. -1.
         -2    1    6    6    0  503  0.14894427214E+03 -0.17578921185E+03 -0.78874979180E+03  0.82171313564E+03  0.00000000000E+00 0.  1.
<mgrwt>
<rscale>  0 0.14267804E+04</rscale>
<asrwt>0</asrwt>
<pdfrwt beam="1">  1        2 0.20587338E+00 0.14267804E+04</pdfrwt>
<pdfrwt beam="2">  1       -1 0.58509633E-01 0.14267804E+04</pdfrwt>
<totfact> 0.51480325E+01</totfact>
</mgrwt>
</event>
<event>
12    6  0.1510140E-007  0.1330813E+04  0.7818608E-02  0.9005481E-01
         -1   -1    0    0    0  501 -0.00000000000E+00  0.00000000000E+00  0.95009894172E+03  0.95009894172E+03  0.00000000000E+00 0.  1.
          2   -1    0    0  501    0  0.00000000000E+00 -0.00000000000E+00 -0.46602102627E+03  0.46602102627E+03  0.00000000000E+00 0. -1.
         24    2    1    2    0    0  0.54004605543E+02  0.33477289057E+03  0.20006930800E+03  0.40126551385E+03  0.77439646954E+02 0.  0.
        254    2    1    2    0    0 -0.54004605543E+02 -0.33477289057E+03  0.28400860745E+03  0.10148544541E+04  0.91338890311E+03 0.  0.
         23    2    4    4    0    0 -0.24804250370E+03 -0.53144888384E+03  0.38489725605E+03  0.70745637830E+03  0.91573083982E+02 0.  0.
         23    2    4    4    0    0  0.19403789816E+03  0.19667599327E+03 -0.10088864861E+03  0.30739807585E+03  0.89347106094E+02 0.  0.
          4    1    3    3  502    0  0.21151555977E+02  0.21363866715E+03  0.16553258533E+03  0.27109021603E+03  0.00000000000E+00 0. -1.
         -3    1    3    3    0  502  0.32853049567E+02  0.12113422342E+03  0.34536722674E+02  0.13017529782E+03  0.00000000000E+00 0.  1.
         11    1    5    5    0    0 -0.14817977269E+03 -0.26264891931E+03  0.24424038370E+03  0.38806579967E+03  0.00000000000E+00 0.  1.
        -11    1    5    5    0    0 -0.99862731012E+02 -0.26879996453E+03  0.14065687236E+03  0.31939057863E+03  0.00000000000E+00 0. -1.
          1    1    6    6  503    0  0.67353454956E+02  0.38342442542E+02  0.67995267527E+01  0.77800156546E+02  0.00000000000E+00 0. -1.
         -1    1    6    6    0  503  0.12668444320E+03  0.15833355073E+03 -0.10768817536E+03  0.22959791930E+03  0.00000000000E+00 0.  1.
<mgrwt>
<rscale>  0 0.13308134E+04</rscale>
<asrwt>0</asrwt>
<pdfrwt beam="1">  1        2 0.71695543E-01 0.13308134E+04</pdfrwt>
<pdfrwt beam="2">  1       -1 0.14616907E+00 0.13308134E+04</pdfrwt>
<totfact> 0.27955432E+01</totfact>
</mgrwt>
</event>
<event>
12    6  0.1510140E-007  0.2011247E+04  0.7818608E-02  0.8601380E-01
         -1   -1    0    0    0  501 -0.00000000000E+00  0.00000000000E+00  0.99315497677E+03  0.99315497677E+03  0.00000000000E+00 0.  1.
          2   -1    0    0  501    0  0.00000000000E+00 -0.00000000000E+00 -0.10182488114E+04  0.10182488114E+04  0.00000000000E+00 0. -1.
         24    2    1    2    0    0  0.21636760719E+03 -0.75575244369E+03  0.14138735230E+03  0.80262199473E+03  0.78961924105E+02 0.  0.
        254    2    1    2    0    0 -0.21636760719E+03  0.75575244369E+03 -0.16648118692E+03  0.12087817934E+04  0.90302864902E+03 0.  0.
         23    2    4    4    0    0 -0.25902469247E+03  0.25735332981E+03 -0.48119665983E+03  0.61089375337E+03  0.91194434026E+02 0.  0.
         23    2    4    4    0    0  0.42657085279E+02  0.49839911388E+03  0.31471547291E+03  0.59788804006E+03  0.90570281644E+02 0.  0.
          2    1    3    3  502    0  0.11771561331E+03 -0.36789476192E+03  0.10768501631E+03  0.40099823466E+03  0.00000000000E+00 0. -1.
         -1    1    3    3    0  502  0.98651993887E+02 -0.38785768176E+03  0.33702335993E+02  0.40162376007E+03  0.00000000000E+00 0.  1.
         11    1    5    5    0    0 -0.16588603381E+03  0.11998547168E+03 -0.31747991134E+03  0.37776736721E+03  0.00000000000E+00 0. -1.
        -11    1    5    5    0    0 -0.93138658665E+02  0.13736785813E+03 -0.16371674849E+03  0.23312638615E+03  0.00000000000E+00 0.  1.
          2    1    6    6  503    0  0.32667364831E+02  0.45466325131E+03  0.31307942733E+03  0.55299598247E+03  0.00000000000E+00 0. -1.
         -2    1    6    6    0  503  0.99897204475E+01  0.43735862568E+02  0.16360455867E+01  0.44892057587E+02  0.00000000000E+00 0.  1.
<mgrwt>
<rscale>  0 0.20112472E+04</rscale>
<asrwt>0</asrwt>
<pdfrwt beam="1">  1        2 0.15665366E+00 0.20112472E+04</pdfrwt>
<pdfrwt beam="2">  1       -1 0.15279308E+00 0.20112472E+04</pdfrwt>
<totfact> 0.86159399E+00</totfact>
</mgrwt>
</event>
<event>
12    6  0.1510140E-007  0.1243489E+04  0.7818608E-02  0.9075620E-01
          2   -1    0    0  501    0  0.00000000000E+00  0.00000000000E+00  0.47115561765E+03  0.47115561765E+03  0.00000000000E+00 0. -1.
         -1   -1    0    0    0  501 -0.00000000000E+00 -0.00000000000E+00 -0.82046414366E+03  0.82046414366E+03  0.00000000000E+00 0.  1.
         24    2    1    2    0    0  0.16875068510E+03  0.52075595185E+02 -0.35641203974E+03  0.40555217419E+03  0.79084528068E+02 0.  0.
        254    2    1    2    0    0 -0.16875068510E+03 -0.52075595185E+02  0.71035137414E+01  0.88606758712E+03  0.86826070261E+03 0.  0.
         23    2    4    4    0    0 -0.48678912804E+03 -0.41012699074E+02 -0.15057366875E+03  0.51980267497E+03  0.94216211573E+02 0.  0.
         23    2    4    4    0    0  0.31803844294E+03 -0.11062896110E+02  0.15767718249E+03  0.36626491215E+03  0.89537998240E+02 0.  0.
          2    1    3    3  502    0 -0.63805708503E+01 -0.37504940193E+01 -0.48865822542E+01  0.88688542604E+01  0.00000000000E+00 0. -1.
         -1    1    3    3    0  502  0.17513125595E+03  0.55826089204E+02 -0.35152545749E+03  0.39668331993E+03  0.00000000000E+00 0.  1.
         11    1    5    5    0    0 -0.66024484550E+02  0.26740551641E+02 -0.17979295195E+02  0.73467984305E+02  0.00000000000E+00 0.  1.
        -11    1    5    5    0    0 -0.42076464349E+03 -0.67753250715E+02 -0.13259437356E+03  0.44633469067E+03  0.00000000000E+00 0. -1.
          3    1    6    6  503    0  0.28944514651E+03 -0.36094639486E+02  0.13052398354E+03  0.31955879915E+03  0.00000000000E+00 0. -1.
         -3    1    6    6    0  503  0.28593296436E+02  0.25031743375E+02  0.27153198952E+02  0.46706112992E+02  0.00000000000E+00 0.  1.
<mgrwt>
<rscale>  0 0.12434891E+04</rscale>
<asrwt>0</asrwt>
<pdfrwt beam="1">  1        2 0.72485481E-01 0.12434891E+04</pdfrwt>
<pdfrwt beam="2">  1       -1 0.12622525E+00 0.12434891E+04</pdfrwt>
<totfact> 0.40563546E+01</totfact>
</mgrwt>
</event>
<event>
12    6  0.1510140E-007  0.1358587E+04  0.7818608E-02  0.8984353E-01
         -1   -1    0    0    0  501 -0.00000000000E+00  0.00000000000E+00  0.20356888600E+03  0.20356888600E+03  0.00000000000E+00 0.  1.
          2   -1    0    0  501    0  0.00000000000E+00 -0.00000000000E+00 -0.22667505505E+04  0.22667505505E+04  0.00000000000E+00 0. -1.
         24    2    1    2    0    0  0.34899562262E+03  0.78186096436E+02 -0.75037305795E+03  0.83503815632E+03  0.79485760584E+02 0.  0.
        254    2    1    2    0    0 -0.34899562262E+03 -0.78186096436E+02 -0.13128086065E+04  0.16352812801E+04  0.90706527744E+03 0.  0.
         23    2    4    4    0    0  0.16211092444E+03  0.28115868313E+03 -0.36934191627E+03  0.49966149391E+03  0.88983147079E+02 0.  0.
         23    2    4    4    0    0 -0.51110654706E+03 -0.35934477957E+03 -0.94346669024E+03  0.11356197862E+04  0.95625991267E+02 0.  0.
          4    1    3    3  502    0  0.23379080121E+02  0.83119673929E+01 -0.11532998888E+03  0.11796896425E+03  0.00000000000E+00 0. -1.
         -3    1    3    3    0  502  0.32561654250E+03  0.69874129043E+02 -0.63504306906E+03  0.71706919207E+03  0.00000000000E+00 0.  1.
         11    1    5    5    0    0  0.14591521064E+03  0.26113888564E+03 -0.36748225660E+03  0.47384382997E+03  0.00000000000E+00 0.  1.
        -11    1    5    5    0    0  0.16195713799E+02  0.20019797498E+02 -0.18596596679E+01  0.25817663942E+02  0.00000000000E+00 0. -1.
          1    1    6    6  503    0 -0.77745613328E+02 -0.95780206191E+02 -0.15502321753E+03  0.19811720335E+03  0.00000000000E+00 0. -1.
         -1    1    6    6    0  503 -0.43336093373E+03 -0.26356457338E+03 -0.78844347271E+03  0.93750258287E+03  0.00000000000E+00 0.  1.
<mgrwt>
<rscale>  0 0.13585873E+04</rscale>
<asrwt>0</asrwt>
<pdfrwt beam="1">  1        2 0.34873083E+00 0.13585873E+04</pdfrwt>
<pdfrwt beam="2">  1       -1 0.31318292E-01 0.13585873E+04</pdfrwt>
<totfact> 0.49905018E+01</totfact>
</mgrwt>
</event>
<event>
12    6  0.1510140E-007  0.1659408E+04  0.7818608E-02  0.8784860E-01
          2   -1    0    0  501    0  0.00000000000E+00  0.00000000000E+00  0.37730808053E+04  0.37730808053E+04  0.00000000000E+00 0. -1.
         -1   -1    0    0    0  501 -0.00000000000E+00 -0.00000000000E+00 -0.18245269718E+03  0.18245269718E+03  0.00000000000E+00 0.  1.
         24    2    1    2    0    0 -0.43826705467E+03  0.29421018171E+03  0.68525687090E+03  0.86880743569E+03  0.81312600319E+02 0.  0.
        254    2    1    2    0    0  0.43826705467E+03 -0.29421018171E+03  0.29053712372E+04  0.30867260668E+04  0.89892054329E+03 0.  0.
         23    2    4    4    0    0  0.54261093517E+03 -0.43970991415E+03  0.27323531477E+04  0.28217036674E+04  0.92121806143E+02 0.  0.
         23    2    4    4    0    0 -0.10434388051E+03  0.14549973244E+03  0.17301808949E+03  0.26502239939E+03  0.90795348721E+02 0.  0.
          2    1    3    3  502    0 -0.77375721648E+02  0.37010131803E+02  0.70836196706E+02  0.11124081499E+03  0.00000000000E+00 0. -1.
         -1    1    3    3    0  502 -0.36089133302E+03  0.25720004990E+03  0.61442067419E+03  0.75756662070E+03  0.00000000000E+00 0.  1.
         11    1    5    5    0    0  0.52263049224E+03 -0.40473857532E+03  0.25015964857E+04  0.25874583906E+04  0.00000000000E+00 0. -1.
        -11    1    5    5    0    0  0.19980442933E+02 -0.34971338831E+02  0.23075666196E+03  0.23424527675E+03  0.00000000000E+00 0.  1.
          3    1    6    6  503    0  0.48445898257E+00  0.66607746893E+02  0.80496676672E+02  0.10448225496E+03  0.00000000000E+00 0. -1.
         -3    1    6    6    0  503 -0.10482833949E+03  0.78891985546E+02  0.92521412820E+02  0.16054014443E+03  0.00000000000E+00 0.  1.
<mgrwt>
<rscale>  0 0.16594081E+04</rscale>
<asrwt>0</asrwt>
<pdfrwt beam="1">  1        2 0.58047392E+00 0.16594081E+04</pdfrwt>
<pdfrwt beam="2">  1       -1 0.28069648E-01 0.16594081E+04</pdfrwt>
<totfact> 0.65077944E+00</totfact>
</mgrwt>
</event>
<event>
12    6  0.1510140E-007  0.3135903E+04  0.7818608E-02  0.8205953E-01
          2   -1    0    0  501    0  0.00000000000E+00  0.00000000000E+00  0.18791140552E+04  0.18791140552E+04  0.00000000000E+00 0. -1.
         -1   -1    0    0    0  501 -0.00000000000E+00 -0.00000000000E+00 -0.13083147441E+04  0.13083147441E+04  0.00000000000E+00 0.  1.
         24    2    1    2    0    0 -0.11804238550E+03  0.13662001675E+04  0.70811147594E+03  0.15453744571E+04  0.79520109252E+02 0.  0.
        254    2    1    2    0    0  0.11804238550E+03 -0.13662001675E+04 -0.13731216487E+03  0.16420543422E+04  0.89277708851E+03 0.  0.
         23    2    4    4    0    0 -0.71858085732E+02 -0.12506297068E+04  0.15306059601E+03  0.12653153744E+04  0.91417737252E+02 0.  0.
         23    2    4    4    0    0  0.18990047124E+03 -0.11557046067E+03 -0.29037276088E+03  0.37673896778E+03  0.90538330141E+02 0.  0.
          4    1    3    3  502    0 -0.29467174572E+02  0.69468593556E+03  0.38745634312E+03  0.79597693513E+03  0.00000000000E+00 0. -1.
         -3    1    3    3    0  502 -0.88575210932E+02  0.67151423193E+03  0.32065513282E+03  0.74939752194E+03  0.00000000000E+00 0.  1.
         11    1    5    5    0    0  0.24540001384E+01 -0.34148333136E+02  0.19159083658E+02  0.39232655521E+02  0.00000000000E+00 0.  1.
        -11    1    5    5    0    0 -0.74312085871E+02 -0.12164813737E+04  0.13390151235E+03  0.12260827189E+04  0.00000000000E+00 0. -1.
          3    1    6    6  503    0  0.14420186920E+03 -0.39055655697E+02 -0.20185490774E+03  0.25112731254E+03  0.00000000000E+00 0. -1.
         -3    1    6    6    0  503  0.45698602041E+02 -0.76514804969E+02 -0.88517853137E+02  0.12561165524E+03  0.00000000000E+00 0.  1.
<mgrwt>
<rscale>  0 0.31359035E+04</rscale>
<asrwt>0</asrwt>
<pdfrwt beam="1">  1        2 0.28909447E+00 0.31359035E+04</pdfrwt>
<pdfrwt beam="2">  1       -1 0.20127919E+00 0.31359035E+04</pdfrwt>
<totfact> 0.11077824E+00</totfact>
</mgrwt>
</event>
<event>
12    6  0.1510140E-007  0.2038037E+04  0.7818608E-02  0.8589041E-01
         -1   -1    0    0    0  501 -0.00000000000E+00  0.00000000000E+00  0.82337285579E+03  0.82337285579E+03  0.00000000000E+00 0.  1.
          2   -1    0    0  501    0  0.00000000000E+00 -0.00000000000E+00 -0.12611528404E+04  0.12611528404E+04  0.00000000000E+00 0. -1.
         24    2    1    2    0    0  0.75579505888E+02  0.64940476022E+03  0.32392123694E+03  0.73408425406E+03  0.80721248867E+02 0.  0.
        254    2    1    2    0    0 -0.75579505888E+02 -0.64940476022E+03 -0.76170122153E+03  0.13504414421E+04  0.90336290237E+03 0.  0.
         23    2    4    4    0    0  0.52744311987E+02  0.21150915146E+03 -0.12172504416E+03  0.26643842859E+03  0.93028846364E+02 0.  0.
         23    2    4    4    0    0 -0.12832381787E+03 -0.86091391169E+03 -0.63997617737E+03  0.10840030135E+04  0.88618621871E+02 0.  0.
          4    1    3    3  502    0  0.29314874839E+01  0.30103838380E+02  0.36723594991E+02  0.47575804072E+02  0.00000000000E+00 0. -1.
         -3    1    3    3    0  502  0.72648018404E+02  0.61930092184E+03  0.28719764195E+03  0.68650844999E+03  0.00000000000E+00 0.  1.
         11    1    5    5    0    0  0.42885125944E+02  0.19322639252E+03 -0.13694673881E+03  0.24068648085E+03  0.00000000000E+00 0.  1.
        -11    1    5    5    0    0  0.98591860431E+01  0.18282758945E+02  0.15221694659E+02  0.25751947740E+02  0.00000000000E+00 0. -1.
          4    1    6    6  503    0 -0.83723601417E+01 -0.16188272085E+03 -0.15890338995E+03  0.22699427099E+03  0.00000000000E+00 0. -1.
         -4    1    6    6    0  503 -0.11995145773E+03 -0.69903119083E+03 -0.48107278742E+03  0.85700874253E+03  0.00000000000E+00 0.  1.
<mgrwt>
<rscale>  0 0.20380373E+04</rscale>
<asrwt>0</asrwt>
<pdfrwt beam="1">  1        2 0.19402351E+00 0.20380373E+04</pdfrwt>
<pdfrwt beam="2">  1       -1 0.12667275E+00 0.20380373E+04</pdfrwt>
<totfact> 0.99586265E+00</totfact>
</mgrwt>
</event>
<event>
12    6  0.1510140E-007  0.1477118E+04  0.7818608E-02  0.8899813E-01
          2   -1    0    0  501    0  0.00000000000E+00  0.00000000000E+00  0.28331410744E+04  0.28331410744E+04  0.00000000000E+00 0. -1.
         -1   -1    0    0    0  501 -0.00000000000E+00 -0.00000000000E+00 -0.19253179799E+03  0.19253179799E+03  0.00000000000E+00 0.  1.
         24    2    1    2    0    0 -0.13315856550E+03  0.95476308066E+02  0.16963674747E+04  0.17062025345E+04  0.81348329085E+02 0.  0.
        254    2    1    2    0    0  0.13315856550E+03 -0.95476308066E+02  0.94424180170E+03  0.13194703379E+04  0.90695229391E+03 0.  0.
         23    2    4    4    0    0 -0.13840926119E+03 -0.32558581743E+03  0.70281848259E+02  0.37198471147E+03  0.90938656671E+02 0.  0.
         23    2    4    4    0    0  0.27156782669E+03  0.23010950936E+03  0.87395995344E+03  0.94748562639E+03  0.84991418390E+02 0.  0.
          4    1    3    3  502    0 -0.46882499898E+02 -0.76465170808E+01  0.52464626707E+03  0.52679231541E+03  0.00000000000E+00 0. -1.
         -3    1    3    3    0  502 -0.86276065602E+02  0.10312282515E+03  0.11717212076E+04  0.11794102191E+04  0.00000000000E+00 0.  1.
         11    1    5    5    0    0  0.47610899943E+01 -0.21940499678E+02  0.24401403675E+02  0.33158437921E+02  0.00000000000E+00 0. -1.
        -11    1    5    5    0    0 -0.14317035119E+03 -0.30364531775E+03  0.45880444584E+02  0.33882627355E+03  0.00000000000E+00 0.  1.
          3    1    6    6  503    0  0.15469967329E+03  0.15935220400E+03  0.44582709068E+03  0.49808323463E+03  0.00000000000E+00 0. -1.
         -3    1    6    6    0  503  0.11686815340E+03  0.70757305364E+02  0.42813286276E+03  0.44940239176E+03  0.00000000000E+00 0.  1.
<mgrwt>
<rscale>  0 0.14771185E+04</rscale>
<asrwt>0</asrwt>
<pdfrwt beam="1">  1        2 0.43586783E+00 0.14771185E+04</pdfrwt>
<pdfrwt beam="2">  1       -1 0.29620279E-01 0.14771185E+04</pdfrwt>
<totfact> 0.25540604E+01</totfact>
</mgrwt>
</event>
<event>
12    6  0.1510140E-007  0.2116308E+04  0.7818608E-02  0.8554093E-01
         -1   -1    0    0    0  501 -0.00000000000E+00  0.00000000000E+00  0.66601457694E+03  0.66601457694E+03  0.00000000000E+00 0.  1.
          2   -1    0    0  501    0  0.00000000000E+00 -0.00000000000E+00 -0.16811797661E+04  0.16811797661E+04  0.00000000000E+00 0. -1.
         24    2    1    2    0    0 -0.59205032881E+03 -0.40601355876E+03  0.11730877477E+03  0.73183970701E+03  0.80357988908E+02 0.  0.
        254    2    1    2    0    0  0.59205032881E+03  0.40601355876E+03 -0.11324739640E+04  0.16153546361E+04  0.90083445731E+03 0.  0.
         23    2    4    4    0    0  0.64753684665E+03 -0.73930158095E+02 -0.60034413135E+03  0.89087539719E+03  0.92066613013E+02 0.  0.
         23    2    4    4    0    0 -0.55486517847E+02  0.47994371686E+03 -0.53212983263E+03  0.72447923888E+03  0.91012547441E+02 0.  0.
          4    1    3    3  502    0 -0.44984048843E+03 -0.33868864540E+03  0.69287686784E+02  0.56733345318E+03  0.00000000000E+00 0. -1.
         -3    1    3    3    0  502 -0.14220984037E+03 -0.67324913358E+02  0.48021087982E+02  0.16450625383E+03  0.00000000000E+00 0.  1.
         11    1    5    5    0    0  0.13034872537E+01  0.48272781697E+01  0.42436240957E+00  0.50181447770E+01  0.00000000000E+00 0. -1.
        -11    1    5    5    0    0  0.64623335940E+03 -0.78757436265E+02 -0.60076849376E+03  0.88585725241E+03  0.00000000000E+00 0.  1.
          3    1    6    6  503    0 -0.32191748757E+01  0.32845232150E+02 -0.87371070020E+01  0.34139557710E+02  0.00000000000E+00 0. -1.
         -3    1    6    6    0  503 -0.52267342972E+02  0.44709848470E+03 -0.52339272562E+03  0.69033968117E+03  0.00000000000E+00 0.  1.
<mgrwt>
<rscale>  0 0.21163083E+04</rscale>
<asrwt>0</asrwt>
<pdfrwt beam="1">  1        2 0.25864304E+00 0.21163083E+04</pdfrwt>
<pdfrwt beam="2">  1       -1 0.10246378E+00 0.21163083E+04</pdfrwt>
<totfact> 0.94888216E+00</totfact>
</mgrwt>
</event>
<event>
12    6  0.1510140E-007  0.1695388E+04  0.7818608E-02  0.8763999E-01
          2   -1    0    0  501    0  0.00000000000E+00  0.00000000000E+00  0.11704778711E+04  0.11704778711E+04  0.00000000000E+00 0. -1.
         -1   -1    0    0    0  501 -0.00000000000E+00 -0.00000000000E+00 -0.61392436437E+03  0.61392436437E+03  0.00000000000E+00 0.  1.
         24    2    1    2    0    0 -0.26951209714E+03 -0.68100941839E+02 -0.36917042071E+03  0.46920426631E+03  0.81187038408E+02 0.  0.
        254    2    1    2    0    0  0.26951209714E+03  0.68100941839E+02  0.92572392745E+03  0.13151979692E+04  0.89191165453E+03 0.  0.
         23    2    4    4    0    0  0.57342339227E+03  0.16182342876E+03  0.61704444766E+03  0.86241059113E+03  0.89481665202E+02 0.  0.
         23    2    4    4    0    0 -0.30391129513E+03 -0.93722486919E+02  0.30867947980E+03  0.45278737805E+03  0.92668271864E+02 0.  0.
          4    1    3    3  502    0 -0.66551062509E+02 -0.15945286046E+02 -0.40825802889E+02  0.79687152350E+02  0.00000000000E+00 0. -1.
         -3    1    3    3    0  502 -0.20296103463E+03 -0.52155655793E+02 -0.32834461783E+03  0.38951711396E+03  0.00000000000E+00 0.  1.
         11    1    5    5    0    0  0.21517514295E+03  0.47772928665E+02  0.17044158698E+03  0.27862686415E+03  0.00000000000E+00 0. -1.
        -11    1    5    5    0    0  0.35824824932E+03  0.11405050009E+03  0.44660286068E+03  0.58378372697E+03  0.00000000000E+00 0.  1.
          3    1    6    6  503    0 -0.23901145994E+03 -0.72083691428E+02  0.28838289442E+03  0.38142788355E+03  0.00000000000E+00 0. -1.
         -3    1    6    6    0  503 -0.64899835186E+02 -0.21638795491E+02  0.20296585380E+02  0.71359494502E+02  0.00000000000E+00 0.  1.
<mgrwt>
<rscale>  0 0.16953877E+04</rscale>
<asrwt>0</asrwt>
<pdfrwt beam="1">  1        2 0.18007352E+00 0.16953877E+04</pdfrwt>
<pdfrwt beam="2">  1       -1 0.94449902E-01 0.16953877E+04</pdfrwt>
<totfact> 0.23237777E+01</totfact>
</mgrwt>
</event>
<event>
12    6  0.1510140E-007  0.1142929E+04  0.7818608E-02  0.9164331E-01
         -1   -1    0    0    0  501 -0.00000000000E+00  0.00000000000E+00  0.81314399789E+03  0.81314399789E+03  0.00000000000E+00 0.  1.
          2   -1    0    0  501    0  0.00000000000E+00 -0.00000000000E+00 -0.40161622130E+03  0.40161622130E+03  0.00000000000E+00 0. -1.
         24    2    1    2    0    0  0.20067220092E+03  0.65261583891E+02 -0.43234074701E+00  0.22590663283E+03  0.80654902425E+02 0.  0.
        254    2    1    2    0    0 -0.20067220092E+03 -0.65261583891E+02  0.41196011734E+03  0.98885358635E+03  0.87383743935E+03 0.  0.
         23    2    4    4    0    0  0.27895615456E+03 -0.16210770286E+03 -0.11490846766E+02  0.33552556103E+03  0.91377891502E+02 0.  0.
         23    2    4    4    0    0 -0.47962835548E+03  0.96846118965E+02  0.42345096410E+03  0.65332802532E+03  0.90023660935E+02 0.  0.
          4    1    3    3  502    0  0.12887616348E+03  0.75278875064E+02 -0.20589420971E+02  0.15066485589E+03  0.00000000000E+00 0. -1.
         -3    1    3    3    0  502  0.71796037438E+02 -0.10017291172E+02  0.20157080224E+02  0.75241776942E+02  0.00000000000E+00 0.  1.
         11    1    5    5    0    0  0.22083375178E+03 -0.84417144657E+02  0.80314524538E+01  0.23655507702E+03  0.00000000000E+00 0. -1.
        -11    1    5    5    0    0  0.58122402778E+02 -0.77690558199E+02 -0.19522299220E+02  0.98970484008E+02  0.00000000000E+00 0.  1.
          3    1    6    6  503    0 -0.41945137785E+03  0.93383945610E+02  0.32866475713E+03  0.54099957695E+03  0.00000000000E+00 0. -1.
         -3    1    6    6    0  503 -0.60176977624E+02  0.34621733551E+01  0.94786206971E+02  0.11232844837E+03  0.00000000000E+00 0.  1.
<mgrwt>
<rscale>  0 0.11429293E+04</rscale>
<asrwt>0</asrwt>
<pdfrwt beam="1">  1        2 0.61787111E-01 0.11429293E+04</pdfrwt>
<pdfrwt beam="2">  1       -1 0.12509908E+00 0.11429293E+04</pdfrwt>
<totfact> 0.50129900E+01</totfact>
</mgrwt>
</event>
<event>
12    6  0.1510140E-007  0.2289616E+04  0.7818608E-02  0.8482027E-01
         -3   -1    0    0    0  501 -0.00000000000E+00  0.00000000000E+00  0.70161525316E+03  0.70161525316E+03  0.00000000000E+00 0.  1.
          2   -1    0    0  501    0  0.00000000000E+00 -0.00000000000E+00 -0.18679540101E+04  0.18679540101E+04  0.00000000000E+00 0. -1.
         24    2    1    2    0    0  0.39749482841E+03  0.18436983026E+03 -0.14580985367E+04  0.15245949656E+04  0.79649817404E+02 0.  0.
        254    2    1    2    0    0 -0.39749482841E+03 -0.18436983026E+03  0.29175977971E+03  0.10449742977E+04  0.90269216290E+03 0.  0.
         23    2    4    4    0    0 -0.27828615451E+03  0.28435963693E+03  0.36440681664E+03  0.54740941406E+03  0.92526491749E+02 0.  0.
         23    2    4    4    0    0 -0.11920867390E+03 -0.46872946719E+03 -0.72647036936E+02  0.49756488369E+03  0.91516119651E+02 0.  0.
          4    1    3    3  502    0  0.30224530833E+03  0.11378592160E+03 -0.11495836702E+04  0.11940862938E+04  0.00000000000E+00 0. -1.
         -3    1    3    3    0  502  0.95249520077E+02  0.70583908659E+02 -0.30851486648E+03  0.33050867171E+03  0.00000000000E+00 0.  1.
         11    1    5    5    0    0 -0.65330295275E+02  0.95776112041E+02  0.59119094629E+02  0.13013907356E+03  0.00000000000E+00 0. -1.
        -11    1    5    5    0    0 -0.21295585924E+03  0.18858352489E+03  0.30528772201E+03  0.41727034049E+03  0.00000000000E+00 0.  1.
          3    1    6    6  503    0  0.12232085519E+02 -0.56511560753E+02 -0.22330378319E+02  0.61982466962E+02  0.00000000000E+00 0. -1.
         -3    1    6    6    0  503 -0.13144075942E+03 -0.41221790644E+03 -0.50316658617E+02  0.43558241672E+03  0.00000000000E+00 0.  1.
<mgrwt>
<rscale>  0 0.22896157E+04</rscale>
<asrwt>0</asrwt>
<pdfrwt beam="1">  1        2 0.28737754E+00 0.22896157E+04</pdfrwt>
<pdfrwt beam="2">  1       -3 0.10794081E+00 0.22896157E+04</pdfrwt>
<totfact> 0.33350562E+00</totfact>
</mgrwt>
</event>
<event>
12    6  0.1510140E-007  0.2895622E+04  0.7818608E-02  0.8274181E-01
          2   -1    0    0  501    0  0.00000000000E+00  0.00000000000E+00  0.13423901729E+04  0.13423901729E+04  0.00000000000E+00 0. -1.
         -1   -1    0    0    0  501 -0.00000000000E+00 -0.00000000000E+00 -0.15615110978E+04  0.15615110978E+04  0.00000000000E+00 0.  1.
         24    2    1    2    0    0  0.37025874137E+03 -0.41639487371E+03  0.10861030720E+04  0.12233231557E+04  0.80146328614E+02 0.  0.
        254    2    1    2    0    0 -0.37025874137E+03  0.41639487371E+03 -0.13052239968E+04  0.16805781149E+04  0.90014270657E+03 0.  0.
         23    2    4    4    0    0 -0.62767256062E+03  0.17698135364E+03 -0.10402298677E+04  0.12311703302E+04  0.91689483539E+02 0.  0.
         23    2    4    4    0    0  0.25741381926E+03  0.23941352007E+03 -0.26499412914E+03  0.44940778478E+03  0.90359064899E+02 0.  0.
          2    1    3    3  502    0  0.26066450792E+03 -0.32388569556E+03  0.86585468932E+03  0.96049584721E+03  0.00000000000E+00 0. -1.
         -1    1    3    3    0  502  0.10959423344E+03 -0.92509178147E+02  0.22024838263E+03  0.26282730850E+03  0.00000000000E+00 0.  1.
         11    1    5    5    0    0 -0.25947218706E+03  0.11239867985E+03 -0.40131528869E+03  0.49093099314E+03  0.00000000000E+00 0.  1.
        -11    1    5    5    0    0 -0.36820037356E+03  0.64582673789E+02 -0.63891457898E+03  0.74023933702E+03  0.00000000000E+00 0. -1.
          1    1    6    6  503    0  0.68599683881E+02  0.10551452882E+03 -0.56788389466E+02  0.13807300098E+03  0.00000000000E+00 0. -1.
         -1    1    6    6    0  503  0.18881413538E+03  0.13389899125E+03 -0.20820573967E+03  0.31133478381E+03  0.00000000000E+00 0.  1.
<mgrwt>
<rscale>  0 0.28956223E+04</rscale>
<asrwt>0</asrwt>
<pdfrwt beam="1">  1        2 0.20652157E+00 0.28956223E+04</pdfrwt>
<pdfrwt beam="2">  1       -1 0.24023248E+00 0.28956223E+04</pdfrwt>
<totfact> 0.12409446E+00</totfact>
</mgrwt>
</event>
<event>
12    6  0.1510140E-007  0.2100221E+04  0.7818608E-02  0.8561146E-01
          2   -1    0    0  501    0  0.00000000000E+00  0.00000000000E+00  0.13727643863E+04  0.13727643863E+04  0.00000000000E+00 0. -1.
         -1   -1    0    0    0  501 -0.00000000000E+00 -0.00000000000E+00 -0.80329324758E+03  0.80329324758E+03  0.00000000000E+00 0.  1.
         24    2    1    2    0    0  0.52428656108E+03 -0.15497240860E+03  0.78872411081E+03  0.96277670796E+03  0.77203761937E+02 0.  0.
        254    2    1    2    0    0 -0.52428656108E+03  0.15497240860E+03 -0.21925297213E+03  0.12132809259E+04  0.10607006617E+04 0.  0.
         23    2    4    4    0    0  0.61912747907E+02 -0.23828387292E+03  0.24856437225E+03  0.36143055536E+03  0.90749141835E+02 0.  0.
         23    2    4    4    0    0 -0.58619930899E+03  0.39325628153E+03 -0.46781734438E+03  0.85185037053E+03  0.92281380878E+02 0.  0.
          4    1    3    3  502    0  0.42031620564E+03 -0.10281091542E+03  0.66085891434E+03  0.78991790821E+03  0.00000000000E+00 0. -1.
         -3    1    3    3    0  502  0.10397035544E+03 -0.52161493178E+02  0.12786519647E+03  0.17285879975E+03  0.00000000000E+00 0.  1.
         11    1    5    5    0    0  0.66082139013E+02 -0.10229819655E+03  0.84172488181E+02  0.14804316222E+03  0.00000000000E+00 0. -1.
        -11    1    5    5    0    0 -0.41693911062E+01 -0.13598567638E+03  0.16439188407E+03  0.21338739314E+03  0.00000000000E+00 0.  1.
          3    1    6    6  503    0 -0.28825146439E+03  0.23059046249E+03 -0.20268169848E+03  0.42111843823E+03  0.00000000000E+00 0. -1.
         -3    1    6    6    0  503 -0.29794784459E+03  0.16266581904E+03 -0.26513564590E+03  0.43073193231E+03  0.00000000000E+00 0.  1.
<mgrwt>
<rscale>  0 0.21002213E+04</rscale>
<asrwt>0</asrwt>
<pdfrwt beam="1">  1        2 0.21119452E+00 0.21002213E+04</pdfrwt>
<pdfrwt beam="2">  1       -1 0.12358358E+00 0.21002213E+04</pdfrwt>
<totfact> 0.90706241E+00</totfact>
</mgrwt>
</event>
<event>
12    6  0.1510140E-007  0.1644870E+04  0.7818608E-02  0.8793447E-01
         -1   -1    0    0    0  501 -0.00000000000E+00  0.00000000000E+00  0.80337563870E+03  0.80337563870E+03  0.00000000000E+00 0.  1.
          2   -1    0    0  501    0  0.00000000000E+00 -0.00000000000E+00 -0.84194634504E+03  0.84194634504E+03  0.00000000000E+00 0. -1.
         24    2    1    2    0    0 -0.45831366997E+03 -0.24102594884E+02 -0.36149282738E+03  0.58936916952E+03  0.77759877686E+02 0.  0.
        254    2    1    2    0    0  0.45831366997E+03  0.24102594884E+02  0.32292212104E+03  0.10559528142E+04  0.89449722997E+03 0.  0.
         23    2    4    4    0    0  0.34088992620E+03  0.43465886313E+03  0.10866122651E+03  0.56954287955E+03  0.86241291858E+02 0.  0.
         23    2    4    4    0    0  0.11742374377E+03 -0.41055626824E+03  0.21426089453E+03  0.48640993466E+03  0.91335144473E+02 0.  0.
          4    1    3    3  502    0 -0.39537119039E+03 -0.37632086049E+00 -0.28426941436E+03  0.48695751329E+03  0.00000000000E+00 0. -1.
         -3    1    3    3    0  502 -0.62942479581E+02 -0.23726274023E+02 -0.77223413017E+02  0.10241165624E+03  0.00000000000E+00 0.  1.
         11    1    5    5    0    0  0.33239833245E+03  0.38524776684E+03  0.10225787080E+03  0.51900015935E+03  0.00000000000E+00 0. -1.
        -11    1    5    5    0    0  0.84915937580E+01  0.49411096290E+02  0.64033557105E+01  0.50542720203E+02  0.00000000000E+00 0.  1.
          1    1    6    6  503    0  0.50254513853E+02 -0.28163585706E+03  0.17674379158E+03  0.33627762341E+03  0.00000000000E+00 0. -1.
         -1    1    6    6    0  503  0.67169229912E+02 -0.12892041118E+03  0.37517102947E+02  0.15013231124E+03  0.00000000000E+00 0.  1.
<mgrwt>
<rscale>  0 0.16448698E+04</rscale>
<asrwt>0</asrwt>
<pdfrwt beam="1">  1        2 0.12953021E+00 0.16448698E+04</pdfrwt>
<pdfrwt beam="2">  1       -1 0.12359625E+00 0.16448698E+04</pdfrwt>
<totfact> 0.20192182E+01</totfact>
</mgrwt>
</event>
<event>
12    6  0.1510140E-007  0.1524267E+04  0.7818608E-02  0.8868474E-01
         -1   -1    0    0    0  501 -0.00000000000E+00  0.00000000000E+00  0.85997163790E+03  0.85997163790E+03  0.00000000000E+00 0.  1.
          2   -1    0    0  501    0  0.00000000000E+00 -0.00000000000E+00 -0.67542624757E+03  0.67542624757E+03  0.00000000000E+00 0. -1.
         24    2    1    2    0    0  0.39201829232E+03 -0.43453622548E+02 -0.14791260301E+03  0.42899273589E+03  0.81179249149E+02 0.  0.
        254    2    1    2    0    0 -0.39201829232E+03  0.43453622548E+02  0.33245799334E+03  0.11064051496E+04  0.97879388988E+03 0.  0.
         23    2    4    4    0    0 -0.46182269482E+03  0.41338719982E+03  0.54202264730E+02  0.63057939712E+03  0.10258319618E+03 0.  0.
         23    2    4    4    0    0  0.69804402503E+02 -0.36993357727E+03  0.27825572861E+03  0.47582575247E+03  0.85207922222E+02 0.  0.
          2    1    3    3  502    0  0.21077251263E+03  0.46658095627E+01 -0.10953594809E+03  0.23758145084E+03  0.00000000000E+00 0. -1.
         -1    1    3    3    0  502  0.18124577968E+03 -0.48119432111E+02 -0.38376654918E+02  0.19141128504E+03  0.00000000000E+00 0.  1.
         11    1    5    5    0    0 -0.36433338606E+03  0.31691171606E+03  0.84243603998E+02  0.49017225216E+03  0.00000000000E+00 0.  1.
        -11    1    5    5    0    0 -0.97489308761E+02  0.96475483760E+02 -0.30041339269E+02  0.14040714496E+03  0.00000000000E+00 0. -1.
          3    1    6    6  503    0  0.27651764134E+02 -0.81796504936E+02  0.10882683036E+03  0.13891928335E+03  0.00000000000E+00 0. -1.
         -3    1    6    6    0  503  0.42152638368E+02 -0.28813707234E+03  0.16942889825E+03  0.33690646912E+03  0.00000000000E+00 0.  1.
<mgrwt>
<rscale>  0 0.15242669E+04</rscale>
<asrwt>0</asrwt>
<pdfrwt beam="1">  1        2 0.10391173E+00 0.15242669E+04</pdfrwt>
<pdfrwt beam="2">  1       -1 0.13230333E+00 0.15242669E+04</pdfrwt>
<totfact> 0.22907454E+01</totfact>
</mgrwt>
</event>
<event>
12    6  0.1510140E-007  0.2682111E+04  0.7818608E-02  0.8340833E-01
          2   -1    0    0  501    0  0.00000000000E+00  0.00000000000E+00  0.29285306531E+04  0.29285306531E+04  0.00000000000E+00 0. -1.
         -1   -1    0    0    0  501 -0.00000000000E+00 -0.00000000000E+00 -0.61410671666E+03  0.61410671666E+03  0.00000000000E+00 0.  1.
         24    2    1    2    0    0 -0.10578482212E+03  0.45052857313E+03  0.24554267850E+04  0.24996774393E+04  0.71415547195E+02 0.  0.
        254    2    1    2    0    0  0.10578482212E+03 -0.45052857313E+03 -0.14100284849E+03  0.10429599305E+04  0.92396817561E+03 0.  0.
         23    2    4    4    0    0  0.36480990909E+03 -0.50357846704E+03 -0.32447821460E+03  0.70740909885E+03  0.91999886712E+02 0.  0.
         23    2    4    4    0    0 -0.25902508698E+03  0.53049893905E+02  0.18347536610E+03  0.33555083164E+03  0.94988755773E+02 0.  0.
          2    1    3    3  502    0 -0.10101124924E+03  0.28178082252E+03  0.15952800225E+04  0.16231210844E+04  0.00000000000E+00 0. -1.
         -1    1    3    3    0  502 -0.47735728800E+01  0.16874775061E+03  0.86014676243E+03  0.87655635486E+03  0.00000000000E+00 0.  1.
         11    1    5    5    0    0  0.11665246777E+03 -0.11196576867E+03 -0.11643128494E+03  0.19924953125E+03  0.00000000000E+00 0.  1.
        -11    1    5    5    0    0  0.24815744133E+03 -0.39161269837E+03 -0.20804692966E+03  0.50815956760E+03  0.00000000000E+00 0. -1.
          2    1    6    6  503    0 -0.26074886382E+03  0.52832777325E+02  0.15679461852E+03  0.30881357602E+03  0.00000000000E+00 0. -1.
         -2    1    6    6    0  503  0.17237768393E+01  0.21711658010E+00  0.26680747589E+02  0.26737255620E+02  0.00000000000E+00 0.  1.
<mgrwt>
<rscale>  0 0.26821114E+04</rscale>
<asrwt>0</asrwt>
<pdfrwt beam="1">  1        2 0.45054317E+00 0.26821114E+04</pdfrwt>
<pdfrwt beam="2">  1       -1 0.94477959E-01 0.26821114E+04</pdfrwt>
<totfact> 0.20883163E+00</totfact>
</mgrwt>
</event>
<event>
12    6  0.1510140E-007  0.1711196E+04  0.7818608E-02  0.8755004E-01
          2   -1    0    0  501    0  0.00000000000E+00  0.00000000000E+00  0.25807287302E+04  0.25807287302E+04  0.00000000000E+00 0. -1.
         -1   -1    0    0    0  501 -0.00000000000E+00 -0.00000000000E+00 -0.28365943534E+03  0.28365943534E+03  0.00000000000E+00 0.  1.
         24    2    1    2    0    0 -0.16083223645E+03  0.93994380591E+02  0.18092765037E+04  0.18205439024E+04  0.78719004420E+02 0.  0.
        254    2    1    2    0    0  0.16083223645E+03 -0.93994380591E+02  0.48779279115E+03  0.10438442632E+04  0.90386231629E+03 0.  0.
         23    2    4    4    0    0  0.28585942540E+03 -0.33036550319E+03 -0.37350439523E+02  0.44775875016E+03  0.90751673398E+02 0.  0.
         23    2    4    4    0    0 -0.12502718895E+03  0.23637112259E+03  0.52514323068E+03  0.59608551303E+03  0.89662815822E+02 0.  0.
          2    1    3    3  502    0 -0.20252148766E+02  0.41057704188E+02  0.64397009877E+03  0.64559536299E+03  0.00000000000E+00 0. -1.
         -1    1    3    3    0  502 -0.14058008769E+03  0.52936676404E+02  0.11653064050E+04  0.11749485394E+04  0.00000000000E+00 0.  1.
         11    1    5    5    0    0  0.26646374318E+03 -0.28611515139E+03 -0.76672793532E+01  0.39105446354E+03  0.00000000000E+00 0.  1.
        -11    1    5    5    0    0  0.19395682223E+02 -0.44250351798E+02 -0.29683160170E+02  0.56704286618E+02  0.00000000000E+00 0. -1.
          1    1    6    6  503    0 -0.91733777467E+02  0.79746906046E+02  0.21183255514E+03  0.24422875828E+03  0.00000000000E+00 0. -1.
         -1    1    6    6    0  503 -0.33293411481E+02  0.15662421655E+03  0.31331067553E+03  0.35185675475E+03  0.00000000000E+00 0.  1.
<mgrwt>
<rscale>  0 0.17111961E+04</rscale>
<asrwt>0</asrwt>
<pdfrwt beam="1">  1        2 0.39703517E+00 0.17111961E+04</pdfrwt>
<pdfrwt beam="2">  1       -1 0.43639915E-01 0.17111961E+04</pdfrwt>
<totfact> 0.17570484E+01</totfact>
</mgrwt>
</event>
<event>
12    6  0.1510140E-007  0.1249451E+04  0.7818608E-02  0.9070641E-01
         -1   -1    0    0    0  501 -0.00000000000E+00  0.00000000000E+00  0.38632046214E+03  0.38632046214E+03  0.00000000000E+00 0.  1.
          2   -1    0    0  501    0  0.00000000000E+00 -0.00000000000E+00 -0.10102539270E+04  0.10102539270E+04  0.00000000000E+00 0. -1.
         24    2    1    2    0    0  0.80467184479E+02 -0.26630745578E+03 -0.46329204042E+02  0.29294012565E+03  0.79201599012E+02 0.  0.
        254    2    1    2    0    0 -0.80467184479E+02  0.26630745578E+03 -0.57760426079E+03  0.11036342635E+04  0.89832470556E+03 0.  0.
         23    2    4    4    0    0  0.38862931779E+03  0.20805310136E+02 -0.19721359538E+03  0.44552505613E+03  0.90187393052E+02 0.  0.
         23    2    4    4    0    0 -0.46909650227E+03  0.24550214564E+03 -0.38039066540E+03  0.65810920733E+03  0.89932410665E+02 0.  0.
          4    1    3    3  502    0  0.77229215120E+02 -0.17134793082E+03 -0.16752577657E+01  0.18795550418E+03  0.00000000000E+00 0. -1.
         -3    1    3    3    0  502  0.32379693593E+01 -0.94959524957E+02 -0.44653946276E+02  0.10498462146E+03  0.00000000000E+00 0.  1.
         11    1    5    5    0    0  0.32375833366E+03 -0.54077909367E+01 -0.18938761498E+03  0.37512180891E+03  0.00000000000E+00 0. -1.
        -11    1    5    5    0    0  0.64870984130E+02  0.26213101072E+02 -0.78259804038E+01  0.70403247220E+02  0.00000000000E+00 0.  1.
          1    1    6    6  503    0 -0.40625242619E+03  0.20599739050E+03 -0.36150013198E+03  0.58151380388E+03  0.00000000000E+00 0. -1.
         -1    1    6    6    0  503 -0.62844076073E+02  0.39504755137E+02 -0.18890533424E+02  0.76595403445E+02  0.00000000000E+00 0.  1.
<mgrwt>
<rscale>  0 0.12494507E+04</rscale>
<asrwt>0</asrwt>
<pdfrwt beam="1">  1        2 0.15542368E+00 0.12494507E+04</pdfrwt>
<pdfrwt beam="2">  1       -1 0.59433919E-01 0.12494507E+04</pdfrwt>
<totfact> 0.79882150E+01</totfact>
</mgrwt>
</event>
<event>
12    6  0.1510140E-007  0.1948136E+04  0.7818608E-02  0.8631260E-01
          2   -1    0    0  501    0  0.00000000000E+00  0.00000000000E+00  0.15092832192E+04  0.15092832192E+04  0.00000000000E+00 0. -1.
         -1   -1    0    0    0  501 -0.00000000000E+00 -0.00000000000E+00 -0.62864847103E+03  0.62864847103E+03  0.00000000000E+00 0.  1.
         24    2    1    2    0    0 -0.62142422468E+03 -0.43957931165E+03  0.24924425203E+03  0.80499715468E+03  0.80620615419E+02 0.  0.
        254    2    1    2    0    0  0.62142422468E+03  0.43957931165E+03  0.63139049617E+03  0.13329345356E+04  0.89367918137E+03 0.  0.
         23    2    4    4    0    0  0.74123990935E+03  0.34651777599E+03  0.75875735920E+03  0.11194992081E+04  0.89747281250E+02 0.  0.
         23    2    4    4    0    0 -0.11981568466E+03  0.93061535655E+02 -0.12736686303E+03  0.21343532748E+03  0.79473728426E+02 0.  0.
          4    1    3    3  502    0 -0.38359042081E+03 -0.27879367516E+03  0.19552775812E+03  0.51293140715E+03  0.00000000000E+00 0. -1.
         -3    1    3    3    0  502 -0.23783380387E+03 -0.16078563649E+03  0.53716493913E+02  0.29206574753E+03  0.00000000000E+00 0.  1.
         11    1    5    5    0    0  0.49448676293E+03  0.26556345216E+03  0.55576399903E+03  0.78988273082E+03  0.00000000000E+00 0.  1.
        -11    1    5    5    0    0  0.24675314641E+03  0.80954323835E+02  0.20299336017E+03  0.32961647726E+03  0.00000000000E+00 0. -1.
          3    1    6    6  503    0 -0.22432498872E+02  0.18480857259E+02  0.86053110871E+01  0.30311886605E+02  0.00000000000E+00 0. -1.
         -3    1    6    6    0  503 -0.97383185792E+02  0.74580678396E+02 -0.13597217412E+03  0.18312344088E+03  0.00000000000E+00 0.  1.
<mgrwt>
<rscale>  0 0.19481361E+04</rscale>
<asrwt>0</asrwt>
<pdfrwt beam="1">  1        2 0.23219742E+00 0.19481361E+04</pdfrwt>
<pdfrwt beam="2">  1       -1 0.96715149E-01 0.19481361E+04</pdfrwt>
<totfact> 0.13710160E+01</totfact>
</mgrwt>
</event>
<event>
12    6  0.1510140E-007  0.1986774E+04  0.7818608E-02  0.8612829E-01
          2   -1    0    0  501    0  0.00000000000E+00  0.00000000000E+00  0.44075368603E+03  0.44075368603E+03  0.00000000000E+00 0. -1.
         -1   -1    0    0    0  501 -0.00000000000E+00 -0.00000000000E+00 -0.22389321612E+04  0.22389321612E+04  0.00000000000E+00 0.  1.
         24    2    1    2    0    0  0.24274035451E+03 -0.63115136297E+03 -0.16944417302E+03  0.70154353971E+03  0.78594450599E+02 0.  0.
        254    2    1    2    0    0 -0.24274035451E+03  0.63115136297E+03 -0.16287343021E+04  0.19781423075E+04  0.89610079737E+03 0.  0.
         23    2    4    4    0    0 -0.49457124082E+03  0.47710726138E+03 -0.14826050833E+04  0.16365446891E+04  0.89042884663E+02 0.  0.
         23    2    4    4    0    0  0.25183088631E+03  0.15404410159E+03 -0.14612921882E+03  0.34159761837E+03  0.90480957915E+02 0.  0.
          4    1    3    3  502    0  0.20477018055E+03 -0.58498574582E+03 -0.16617304531E+03  0.64167953890E+03  0.00000000000E+00 0. -1.
         -3    1    3    3    0  502  0.37970173962E+02 -0.46165617151E+02 -0.32711277022E+01  0.59864000819E+02  0.00000000000E+00 0.  1.
         11    1    5    5    0    0 -0.42952590213E+03  0.42923966832E+03 -0.12371199927E+04  0.13781164936E+04  0.00000000000E+00 0. -1.
        -11    1    5    5    0    0 -0.65045338689E+02  0.47867593053E+02 -0.24548509061E+03  0.25842819556E+03  0.00000000000E+00 0.  1.
          3    1    6    6  503    0  0.16239500288E+03  0.79681140916E+02 -0.13305021145E+03  0.22455195378E+03  0.00000000000E+00 0. -1.
         -3    1    6    6    0  503  0.89435883433E+02  0.74362960675E+02 -0.13079007370E+02  0.11704566459E+03  0.00000000000E+00 0.  1.
<mgrwt>
<rscale>  0 0.19867739E+04</rscale>
<asrwt>0</asrwt>
<pdfrwt beam="1">  1        2 0.67808258E-01 0.19867739E+04</pdfrwt>
<pdfrwt beam="2">  1       -1 0.34445111E+00 0.19867739E+04</pdfrwt>
<totfact> 0.12818714E+00</totfact>
</mgrwt>
</event>
<event>
12    6  0.1510140E-007  0.1669344E+04  0.7818608E-02  0.8779044E-01
          2   -1    0    0  501    0  0.00000000000E+00  0.00000000000E+00  0.22669382853E+04  0.22669382853E+04  0.00000000000E+00 0. -1.
         -3   -1    0    0    0  501 -0.00000000000E+00 -0.00000000000E+00 -0.30732088568E+03  0.30732088568E+03  0.00000000000E+00 0.  1.
         24    2    1    2    0    0  0.27661766444E+03 -0.44107267440E+03  0.27931609424E+03  0.59601884524E+03  0.78476410514E+02 0.  0.
        254    2    1    2    0    0 -0.27661766444E+03  0.44107267440E+03  0.16803013053E+04  0.19782403257E+04  0.90496401755E+03 0.  0.
         23    2    4    4    0    0 -0.56895400344E+03  0.13346714887E+03  0.11464355974E+04  0.12903467393E+04  0.95697392438E+02 0.  0.
         23    2    4    4    0    0  0.29233633901E+03  0.30760552553E+03  0.53386570798E+03  0.68789358637E+03  0.90018317951E+02 0.  0.
          4    1    3    3  502    0  0.10619674351E+03 -0.18943788071E+03  0.15899575450E+03  0.26915443323E+03  0.00000000000E+00 0. -1.
         -3    1    3    3    0  502  0.17042092093E+03 -0.25163479369E+03  0.12032033973E+03  0.32686441201E+03  0.00000000000E+00 0.  1.
         11    1    5    5    0    0 -0.53599361985E+03  0.10159078272E+03  0.10741666229E+04  0.12047588063E+04  0.00000000000E+00 0.  1.
        -11    1    5    5    0    0 -0.32960383591E+02  0.31876366151E+02  0.72268974440E+02  0.85587932982E+02  0.00000000000E+00 0. -1.
          4    1    6    6  503    0 -0.47836899813E+01  0.37117018930E+01  0.20778469632E+02  0.21642671301E+02  0.00000000000E+00 0. -1.
         -4    1    6    6    0  503  0.29712002899E+03  0.30389382364E+03  0.51308723835E+03  0.66625091507E+03  0.00000000000E+00 0.  1.
<mgrwt>
<rscale>  0 0.16693442E+04</rscale>
<asrwt>0</asrwt>
<pdfrwt beam="1">  1        2 0.34875973E+00 0.16693442E+04</pdfrwt>
<pdfrwt beam="2">  1       -3 0.47280138E-01 0.16693442E+04</pdfrwt>
<totfact> 0.12936816E+01</totfact>
</mgrwt>
</event>
<event>
12    6  0.1510140E-007  0.2358884E+04  0.7818608E-02  0.8455059E-01
         -1   -1    0    0    0  501 -0.00000000000E+00  0.00000000000E+00  0.15131917555E+04  0.15131917555E+04  0.00000000000E+00 0.  1.
          2   -1    0    0  501    0  0.00000000000E+00 -0.00000000000E+00 -0.91930415043E+03  0.91930415043E+03  0.00000000000E+00 0. -1.
         24    2    1    2    0    0  0.56724535340E+03  0.56340896351E+03 -0.37692224503E+03  0.88712294549E+03  0.75629296505E+02 0.  0.
        254    2    1    2    0    0 -0.56724535340E+03 -0.56340896351E+03  0.97080985013E+03  0.15453729605E+04  0.89805838940E+03 0.  0.
         23    2    4    4    0    0 -0.33961617068E+03  0.12083029346E+03  0.52239386967E+02  0.37440882251E+03  0.86682810394E+02 0.  0.
         23    2    4    4    0    0 -0.22762918272E+03 -0.68423925697E+03  0.91857046316E+03  0.11709641380E+04  0.85947140812E+02 0.  0.
          2    1    3    3  502    0  0.54771402602E+03  0.52212145738E+03 -0.36371665905E+03  0.83957803605E+03  0.00000000000E+00 0. -1.
         -1    1    3    3    0  502  0.19531327387E+02  0.41287506132E+02 -0.13205585976E+02  0.47544909434E+02  0.00000000000E+00 0.  1.
         11    1    5    5    0    0  0.91107775009E+00  0.13639301506E+02  0.33788962996E+01  0.14081106080E+02  0.00000000000E+00 0.  1.
        -11    1    5    5    0    0 -0.34052724843E+03  0.10719099195E+03  0.48860490668E+02  0.36032771643E+03  0.00000000000E+00 0. -1.
          4    1    6    6  503    0 -0.18710834480E+03 -0.52483681912E+03  0.65106629373E+03  0.85694255247E+03  0.00000000000E+00 0. -1.
         -4    1    6    6    0  503 -0.40520837915E+02 -0.15940243786E+03  0.26750416943E+03  0.31402158551E+03  0.00000000000E+00 0.  1.
<mgrwt>
<rscale>  0 0.23588840E+04</rscale>
<asrwt>0</asrwt>
<pdfrwt beam="1">  1        2 0.14143141E+00 0.23588840E+04</pdfrwt>
<pdfrwt beam="2">  1       -1 0.23279873E+00 0.23588840E+04</pdfrwt>
<totfact> 0.26481765E+00</totfact>
</mgrwt>
</event>
<event>
12    6  0.1510140E-007  0.2235289E+04  0.7818608E-02  0.8503882E-01
          2   -1    0    0  501    0  0.00000000000E+00  0.00000000000E+00  0.36524872472E+04  0.36524872472E+04  0.00000000000E+00 0. -1.
         -1   -1    0    0    0  501 -0.00000000000E+00 -0.00000000000E+00 -0.34199415668E+03  0.34199415668E+03  0.00000000000E+00 0.  1.
         24    2    1    2    0    0  0.84181829431E+03  0.35457594614E+03  0.16842316936E+04  0.19176900013E+04  0.80724229719E+02 0.  0.
        254    2    1    2    0    0 -0.84181829431E+03 -0.35457594614E+03  0.16262613969E+04  0.20767914025E+04  0.91321095937E+03 0.  0.
         23    2    4    4    0    0 -0.58235969412E+03 -0.83694280052E+02  0.15796652189E+04  0.16881072900E+04  0.90644761588E+02 0.  0.
         23    2    4    4    0    0 -0.25945860019E+03 -0.27088166609E+03  0.46596177951E+02  0.38868411251E+03  0.90600735535E+02 0.  0.
          4    1    3    3  502    0  0.75373719998E+03  0.34316107001E+03  0.15185419189E+04  0.17296961716E+04  0.00000000000E+00 0. -1.
         -3    1    3    3    0  502  0.88081094328E+02  0.11414876128E+02  0.16568977474E+03  0.18799382976E+03  0.00000000000E+00 0.  1.
         11    1    5    5    0    0 -0.12606864122E+03  0.10324395057E+02  0.27316737956E+03  0.30103207916E+03  0.00000000000E+00 0. -1.
        -11    1    5    5    0    0 -0.45629105290E+03 -0.94018675109E+02  0.13064978394E+04  0.13870752108E+04  0.00000000000E+00 0.  1.
          2    1    6    6  503    0 -0.14549314988E+02 -0.30729226609E+02  0.29890833177E+02  0.45270628918E+02  0.00000000000E+00 0. -1.
         -2    1    6    6    0  503 -0.24490928520E+03 -0.24015243948E+03  0.16705344774E+02  0.34341348359E+03  0.00000000000E+00 0.  1.
<mgrwt>
<rscale>  0 0.22352891E+04</rscale>
<asrwt>0</asrwt>
<pdfrwt beam="1">  1        2 0.56192109E+00 0.22352891E+04</pdfrwt>
<pdfrwt beam="2">  1       -1 0.52614488E-01 0.22352891E+04</pdfrwt>
<totfact> 0.23976194E+00</totfact>
</mgrwt>
</event>
<event>
12    6  0.1510140E-007  0.1381196E+04  0.7818608E-02  0.8967543E-01
          2   -1    0    0  501    0  0.00000000000E+00  0.00000000000E+00  0.15422608912E+04  0.15422608912E+04  0.00000000000E+00 0. -1.
         -1   -1    0    0    0  501 -0.00000000000E+00 -0.00000000000E+00 -0.30923795377E+03  0.30923795377E+03  0.00000000000E+00 0.  1.
         24    2    1    2    0    0  0.13873041023E+03  0.19205849141E+02 -0.12950999019E+03  0.20862132561E+03  0.84469098345E+02 0.  0.
        254    2    1    2    0    0 -0.13873041023E+03 -0.19205849141E+02  0.13625329276E+04  0.16428775193E+04  0.90715796496E+03 0.  0.
         23    2    4    4    0    0 -0.29376387799E+03 -0.10209690915E+03  0.14057700084E+04  0.14426542159E+04  0.91328392324E+02 0.  0.
         23    2    4    4    0    0  0.15503346776E+03  0.82891060009E+02 -0.43237080782E+02  0.20022330346E+03  0.85519717832E+02 0.  0.
          2    1    3    3  502    0  0.38293224772E+02 -0.23635556685E+02 -0.88012368860E+01  0.45852724826E+02  0.00000000000E+00 0. -1.
         -1    1    3    3    0  502  0.10043718546E+03  0.42841405826E+02 -0.12070875331E+03  0.16276860078E+03  0.00000000000E+00 0.  1.
         11    1    5    5    0    0 -0.65740243584E+02 -0.48847460947E+02  0.52216724648E+03  0.52855131005E+03  0.00000000000E+00 0.  1.
        -11    1    5    5    0    0 -0.22802363441E+03 -0.53249448203E+02  0.88360276192E+03  0.91410290583E+03  0.00000000000E+00 0. -1.
          3    1    6    6  503    0  0.12819955360E+03  0.97313413312E+02 -0.50905673709E+02  0.16880880774E+03  0.00000000000E+00 0. -1.
         -3    1    6    6    0  503  0.26833914163E+02 -0.14422353303E+02  0.76685929271E+01  0.31414495724E+02  0.00000000000E+00 0.  1.
<mgrwt>
<rscale>  0 0.13811960E+04</rscale>
<asrwt>0</asrwt>
<pdfrwt beam="1">  1        2 0.23727090E+00 0.13811960E+04</pdfrwt>
<pdfrwt beam="2">  1       -1 0.47575071E-01 0.13811960E+04</pdfrwt>
<totfact> 0.58851341E+01</totfact>
</mgrwt>
</event>
<event>
12    6  0.1510140E-007  0.2110403E+04  0.7818608E-02  0.8556674E-01
          2   -1    0    0  501    0  0.00000000000E+00  0.00000000000E+00  0.30707044361E+04  0.30707044361E+04  0.00000000000E+00 0. -1.
         -1   -1    0    0    0  501 -0.00000000000E+00 -0.00000000000E+00 -0.36260427558E+03  0.36260427558E+03  0.00000000000E+00 0.  1.
         24    2    1    2    0    0 -0.41211066383E+03 -0.28776594727E+03 -0.23198221553E+02  0.50939725587E+03  0.79391228462E+02 0.  0.
        254    2    1    2    0    0  0.41211066383E+03  0.28776594727E+03  0.27312983821E+04  0.29239114558E+04  0.91467092981E+03 0.  0.
         23    2    4    4    0    0  0.24054024611E+02 -0.12867038862E+03  0.29754721486E+02  0.16154849173E+03  0.89877175750E+02 0.  0.
         23    2    4    4    0    0  0.38805663922E+03  0.41643633589E+03  0.27015436606E+04  0.27623629641E+04  0.91125288227E+02 0.  0.
          2    1    3    3  502    0 -0.20260897558E+03 -0.95668665524E+02  0.17261322888E+01  0.22406666437E+03  0.00000000000E+00 0. -1.
         -1    1    3    3    0  502 -0.20950168825E+03 -0.19209728174E+03 -0.24924353842E+02  0.28533059150E+03  0.00000000000E+00 0.  1.
         11    1    5    5    0    0  0.54587466717E+02 -0.67569135862E+02 -0.44343159058E+00  0.86865276579E+02  0.00000000000E+00 0. -1.
        -11    1    5    5    0    0 -0.30533442106E+02 -0.61101252762E+02  0.30198153077E+02  0.74683215150E+02  0.00000000000E+00 0.  1.
          4    1    6    6  503    0  0.67565313411E+02  0.59815879632E+02  0.29390824216E+03  0.30744928987E+03  0.00000000000E+00 0. -1.
         -4    1    6    6    0  503  0.32049132581E+03  0.35662045626E+03  0.24076354184E+04  0.24549136742E+04  0.00000000000E+00 0.  1.
<mgrwt>
<rscale>  0 0.21104033E+04</rscale>
<asrwt>0</asrwt>
<pdfrwt beam="1">  1        2 0.47241605E+00 0.21104033E+04</pdfrwt>
<pdfrwt beam="2">  1       -1 0.55785275E-01 0.21104033E+04</pdfrwt>
<totfact> 0.53612411E+00</totfact>
</mgrwt>
</event>
<event>
12    6  0.1510140E-007  0.1644597E+04  0.7818608E-02  0.8793610E-01
          2   -1    0    0  501    0  0.00000000000E+00  0.00000000000E+00  0.12724012450E+04  0.12724012450E+04  0.00000000000E+00 0. -1.
         -1   -1    0    0    0  501 -0.00000000000E+00 -0.00000000000E+00 -0.53141604228E+03  0.53141604228E+03  0.00000000000E+00 0.  1.
         24    2    1    2    0    0 -0.18805546611E+03  0.54372514390E+03  0.34412193686E+03  0.67490133959E+03  0.77910335070E+02 0.  0.
        254    2    1    2    0    0  0.18805546611E+03 -0.54372514390E+03  0.39686326582E+03  0.11289159477E+04  0.88653757657E+03 0.  0.
         23    2    4    4    0    0 -0.18837304617E+03 -0.62527259835E+03  0.28415642352E+03  0.71783690162E+03  0.89970648121E+02 0.  0.
         23    2    4    4    0    0  0.37642851228E+03  0.81547454455E+02  0.11270684230E+03  0.41107904604E+03  0.89077144103E+02 0.  0.
          4    1    3    3  502    0 -0.17183919666E+03  0.40536628690E+03  0.27793852278E+03  0.52067298615E+03  0.00000000000E+00 0. -1.
         -3    1    3    3    0  502 -0.16216269450E+02  0.13835885700E+03  0.66183414082E+02  0.15422835344E+03  0.00000000000E+00 0.  1.
         11    1    5    5    0    0 -0.10933674056E+03 -0.31691801031E+03  0.98905417170E+02  0.34953373176E+03  0.00000000000E+00 0. -1.
        -11    1    5    5    0    0 -0.79036305616E+02 -0.30835458804E+03  0.18525100635E+03  0.36830316986E+03  0.00000000000E+00 0.  1.
          2    1    6    6  503    0  0.38771374692E+01 -0.48706960573E+01 -0.79104957151E+01  0.10066370622E+02  0.00000000000E+00 0. -1.
         -2    1    6    6    0  503  0.37255137481E+03  0.86418150512E+02  0.12061733801E+03  0.40101267541E+03  0.00000000000E+00 0.  1.
<mgrwt>
<rscale>  0 0.16445965E+04</rscale>
<asrwt>0</asrwt>
<pdfrwt beam="1">  1        2 0.19575404E+00 0.16445965E+04</pdfrwt>
<pdfrwt beam="2">  1       -1 0.81756314E-01 0.16445965E+04</pdfrwt>
<totfact> 0.27839241E+01</totfact>
</mgrwt>
</event>
<event>
12    6  0.1510140E-007  0.1637570E+04  0.7818608E-02  0.8797794E-01
          2   -1    0    0  501    0  0.00000000000E+00  0.00000000000E+00  0.13044225789E+04  0.13044225789E+04  0.00000000000E+00 0. -1.
         -1   -1    0    0    0  501 -0.00000000000E+00 -0.00000000000E+00 -0.51395070744E+03  0.51395070744E+03  0.00000000000E+00 0.  1.
         24    2    1    2    0    0  0.53952442620E+03  0.90830346601E+02  0.45198236709E+03  0.71415757042E+03  0.79976352122E+02 0.  0.
        254    2    1    2    0    0 -0.53952442620E+03 -0.90830346601E+02  0.33848950433E+03  0.11042157159E+04  0.89742991055E+03 0.  0.
         23    2    4    4    0    0 -0.85737841488E+02  0.70534079852E+02 -0.27932198677E+03  0.31509035309E+03  0.94525787114E+02 0.  0.
         23    2    4    4    0    0 -0.45378658471E+03 -0.16136442645E+03  0.61781149111E+03  0.78912536281E+03  0.95221095837E+02 0.  0.
          4    1    3    3  502    0  0.53982516713E+03  0.84701346300E+02  0.44391334981E+03  0.70402030601E+03  0.00000000000E+00 0. -1.
         -1    1    3    3    0  502 -0.30074093816E+00  0.61290003007E+01  0.80690172754E+01  0.10137264404E+02  0.00000000000E+00 0.  1.
         11    1    5    5    0    0 -0.77089455460E+02  0.52804826088E+02 -0.28017492845E+03  0.29534577081E+03  0.00000000000E+00 0. -1.
        -11    1    5    5    0    0 -0.86483860281E+01  0.17729253764E+02  0.85294167615E+00  0.19744582280E+02  0.00000000000E+00 0.  1.
          3    1    6    6  503    0 -0.35074819857E+03 -0.97874370228E+02  0.51247736221E+03  0.62867856487E+03  0.00000000000E+00 0. -1.
         -3    1    6    6    0  503 -0.10303838614E+03 -0.63490056225E+02  0.10533412890E+03  0.16044679794E+03  0.00000000000E+00 0.  1.
<mgrwt>
<rscale>  0 0.16375700E+04</rscale>
<asrwt>0</asrwt>
<pdfrwt beam="1">  1        2 0.20068039E+00 0.16375700E+04</pdfrwt>
<pdfrwt beam="2">  1       -1 0.79069340E-01 0.16375700E+04</pdfrwt>
<totfact> 0.28648851E+01</totfact>
</mgrwt>
</event>
<event>
12    6  0.1510140E-007  0.1885846E+04  0.7818608E-02  0.8661934E-01
          2   -1    0    0  501    0  0.00000000000E+00  0.00000000000E+00  0.13190616625E+04  0.13190616625E+04  0.00000000000E+00 0. -1.
         -1   -1    0    0    0  501 -0.00000000000E+00 -0.00000000000E+00 -0.67404253667E+03  0.67404253667E+03  0.00000000000E+00 0.  1.
         24    2    1    2    0    0 -0.49715439669E+03  0.52783754811E+03  0.25500179725E+03  0.77275708287E+03  0.79703332314E+02 0.  0.
        254    2    1    2    0    0  0.49715439669E+03 -0.52783754811E+03  0.39001732859E+03  0.12203471163E+04  0.90075445953E+03 0.  0.
         23    2    4    4    0    0  0.12253594109E+02  0.21995837332E+03 -0.47651200310E+01  0.24116849797E+03  0.98018883291E+02 0.  0.
         23    2    4    4    0    0  0.48490080258E+03 -0.74779592143E+03  0.39478244862E+03  0.97917861835E+03  0.92790389805E+02 0.  0.
          2    1    3    3  502    0 -0.11249836909E+03  0.14788899950E+03  0.96260074475E+02  0.20926786939E+03  0.00000000000E+00 0. -1.
         -1    1    3    3    0  502 -0.38465602760E+03  0.37994854861E+03  0.15874172278E+03  0.56348921348E+03  0.00000000000E+00 0.  1.
         11    1    5    5    0    0 -0.54172803177E+01 -0.51059476148E+01 -0.13309460596E+02  0.15249897326E+02  0.00000000000E+00 0.  1.
        -11    1    5    5    0    0  0.17670874427E+02  0.22506432094E+03  0.85443405651E+01  0.22591860065E+03  0.00000000000E+00 0. -1.
          3    1    6    6  503    0  0.41959470627E+03 -0.65027345850E+03  0.37569120426E+03  0.86026691748E+03  0.00000000000E+00 0. -1.
         -3    1    6    6    0  503  0.65306096316E+02 -0.97522462932E+02  0.19091244365E+02  0.11891170087E+03  0.00000000000E+00 0.  1.
<mgrwt>
<rscale>  0 0.18858459E+04</rscale>
<asrwt>0</asrwt>
<pdfrwt beam="1">  1        2 0.20293256E+00 0.18858459E+04</pdfrwt>
<pdfrwt beam="2">  1       -1 0.10369885E+00 0.18858459E+04</pdfrwt>
<totfact> 0.15095363E+01</totfact>
</mgrwt>
</event>
<event>
12    6  0.1510140E-007  0.2625625E+04  0.7818608E-02  0.8359549E-01
         -1   -1    0    0    0  501 -0.00000000000E+00  0.00000000000E+00  0.12604712976E+04  0.12604712976E+04  0.00000000000E+00 0.  1.
          2   -1    0    0  501    0  0.00000000000E+00 -0.00000000000E+00 -0.13673269334E+04  0.13673269334E+04  0.00000000000E+00 0. -1.
         24    2    1    2    0    0  0.24801842245E+03 -0.87708403371E+03  0.66424916191E+03  0.11306877301E+04  0.80238730739E+02 0.  0.
        254    2    1    2    0    0 -0.24801842245E+03  0.87708403371E+03 -0.77110479770E+03  0.14971105009E+04  0.90329823582E+03 0.  0.
         23    2    4    4    0    0 -0.34382593866E+03 -0.28229344425E+02 -0.30171392049E+03  0.46880975775E+03  0.98681949533E+02 0.  0.
         23    2    4    4    0    0  0.95807516213E+02  0.90531337813E+03 -0.46939087722E+03  0.10283007432E+04  0.91122060877E+02 0.  0.
          4    1    3    3  502    0  0.88705838685E+00 -0.24008334314E+01 -0.23884739186E+01  0.35008115355E+01  0.00000000000E+00 0. -1.
         -3    1    3    3    0  502  0.24713136406E+03 -0.87468320028E+03  0.66663763583E+03  0.11271869186E+04  0.00000000000E+00 0.  1.
         11    1    5    5    0    0 -0.23345886803E+03 -0.16756893557E+02 -0.26109137710E+03  0.35064589508E+03  0.00000000000E+00 0.  1.
        -11    1    5    5    0    0 -0.11036707064E+03 -0.11472450868E+02 -0.40622543387E+02  0.11816386267E+03  0.00000000000E+00 0. -1.
          2    1    6    6  503    0  0.99598245412E+02  0.85424762828E+03 -0.41981795856E+03  0.95702974835E+03  0.00000000000E+00 0. -1.
         -2    1    6    6    0  503 -0.37907291994E+01  0.51065749857E+02 -0.49572918661E+02  0.71270994808E+02  0.00000000000E+00 0.  1.
<mgrwt>
<rscale>  0 0.26256248E+04</rscale>
<asrwt>0</asrwt>
<pdfrwt beam="1">  1        2 0.21035799E+00 0.26256248E+04</pdfrwt>
<pdfrwt beam="2">  1       -1 0.19391866E+00 0.26256248E+04</pdfrwt>
<totfact> 0.25203799E+00</totfact>
</mgrwt>
</event>
<event>
12    6  0.1510140E-007  0.2365905E+04  0.7818608E-02  0.8452380E-01
         -1   -1    0    0    0  501 -0.00000000000E+00  0.00000000000E+00  0.97861774293E+03  0.97861774293E+03  0.00000000000E+00 0.  1.
          2   -1    0    0  501    0  0.00000000000E+00 -0.00000000000E+00 -0.14299517052E+04  0.14299517052E+04  0.00000000000E+00 0. -1.
         24    2    1    2    0    0  0.28765235959E+03  0.18108007389E+03  0.77668855107E+03  0.85156127808E+03  0.79860076616E+02 0.  0.
        254    2    1    2    0    0 -0.28765235959E+03 -0.18108007389E+03 -0.12280225133E+04  0.15570081700E+04  0.89481912985E+03 0.  0.
         23    2    4    4    0    0  0.32981529130E+02 -0.49152112895E+03 -0.68672320934E+03  0.85012400071E+03  0.91876269274E+02 0.  0.
         23    2    4    4    0    0 -0.32063388872E+03  0.31044105506E+03 -0.54129930398E+03  0.70688416932E+03  0.86605733498E+02 0.  0.
          4    1    3    3  502    0  0.11254032040E+03  0.33239487769E+02  0.31438479022E+03  0.33557113044E+03  0.00000000000E+00 0. -1.
         -1    1    3    3    0  502  0.17511203919E+03  0.14784058612E+03  0.46230376085E+03  0.51599014765E+03  0.00000000000E+00 0.  1.
         11    1    5    5    0    0  0.55451689514E+02 -0.31011170139E+03 -0.48030805663E+03  0.57440402720E+03  0.00000000000E+00 0. -1.
        -11    1    5    5    0    0 -0.22470160384E+02 -0.18140942757E+03 -0.20641515272E+03  0.27571997350E+03  0.00000000000E+00 0.  1.
          4    1    6    6  503    0 -0.77659148244E+01  0.40757292346E+02 -0.45808053784E+02  0.61804887379E+02  0.00000000000E+00 0. -1.
         -4    1    6    6    0  503 -0.31286797389E+03  0.26968376272E+03 -0.49549125020E+03  0.64507928194E+03  0.00000000000E+00 0.  1.
<mgrwt>
<rscale>  0 0.23659046E+04</rscale>
<asrwt>0</asrwt>
<pdfrwt beam="1">  1        2 0.21999257E+00 0.23659046E+04</pdfrwt>
<pdfrwt beam="2">  1       -1 0.15055658E+00 0.23659046E+04</pdfrwt>
<totfact> 0.49368546E+00</totfact>
</mgrwt>
</event>
<event>
12    6  0.1510140E-007  0.1425087E+04  0.7818608E-02  0.8935857E-01
          2   -1    0    0  501    0  0.00000000000E+00  0.00000000000E+00  0.17967743239E+04  0.17967743239E+04  0.00000000000E+00 0. -1.
         -1   -1    0    0    0  501 -0.00000000000E+00 -0.00000000000E+00 -0.28257208917E+03  0.28257208917E+03  0.00000000000E+00 0.  1.
         24    2    1    2    0    0 -0.29707292447E+02  0.36302991268E+03  0.15452701733E+03  0.40360553870E+03  0.79659218297E+02 0.  0.
        254    2    1    2    0    0  0.29707292447E+02 -0.36302991268E+03  0.13596752174E+04  0.16757408743E+04  0.90924008957E+03 0.  0.
         23    2    4    4    0    0 -0.22576740139E+03  0.69329370960E+01  0.11418961407E+04  0.11674731559E+04  0.89709466761E+02 0.  0.
         23    2    4    4    0    0  0.25547469383E+03 -0.36996284977E+03  0.21777907671E+03  0.50826771849E+03  0.93640365261E+02 0.  0.
          4    1    3    3  502    0 -0.23526686664E+02  0.19806449275E+03  0.42029615662E+02  0.20383703507E+03  0.00000000000E+00 0. -1.
         -3    1    3    3    0  502 -0.61806057821E+01  0.16496541993E+03  0.11249740166E+03  0.19976850362E+03  0.00000000000E+00 0.  1.
         11    1    5    5    0    0 -0.33277313717E+02 -0.23767109423E+02  0.11060297168E+03  0.11792061925E+03  0.00000000000E+00 0.  1.
        -11    1    5    5    0    0 -0.19249008767E+03  0.30700046519E+02  0.10312931690E+04  0.10495525366E+04  0.00000000000E+00 0. -1.
          2    1    6    6  503    0  0.23506760920E+00 -0.48797132643E+02  0.18461074241E+02  0.52173045465E+02  0.00000000000E+00 0.  1.
         -2    1    6    6    0  503  0.25523962622E+03 -0.32116571713E+03  0.19931800247E+03  0.45609467303E+03  0.00000000000E+00 0. -1.
<mgrwt>
<rscale>  0 0.14250870E+04</rscale>
<asrwt>0</asrwt>
<pdfrwt beam="1">  1        2 0.27642681E+00 0.14250870E+04</pdfrwt>
<pdfrwt beam="2">  1       -1 0.43472630E-01 0.14250870E+04</pdfrwt>
<totfact> 0.50091808E+01</totfact>
</mgrwt>
</event>
<event>
12    6  0.1510140E-007  0.3633900E+04  0.7818608E-02  0.8082770E-01
          2   -1    0    0  501    0  0.00000000000E+00  0.00000000000E+00  0.24037316997E+04  0.24037316997E+04  0.00000000000E+00 0. -1.
         -1   -1    0    0    0  501 -0.00000000000E+00 -0.00000000000E+00 -0.13734093702E+04  0.13734093702E+04  0.00000000000E+00 0.  1.
         24    2    1    2    0    0 -0.61799314788E+03  0.14601991331E+04 -0.16619100073E+03  0.15969598740E+04  0.92543780147E+02 0.  0.
        254    2    1    2    0    0  0.61799314788E+03 -0.14601991331E+04  0.11965133302E+04  0.21801811959E+04  0.89858158149E+03 0.  0.
         23    2    4    4    0    0  0.72600659980E+02 -0.37860348014E+03  0.81622940699E+03  0.90718955602E+03  0.90282859496E+02 0.  0.
         23    2    4    4    0    0  0.54539248790E+03 -0.10815956529E+04  0.38028392322E+03  0.12729916399E+04  0.92680799927E+02 0.  0.
          2    1    3    3  502    0 -0.13698578847E+03  0.39384932044E+03 -0.13395735106E+02  0.41720718974E+03  0.00000000000E+00 0. -1.
         -3    1    3    3    0  502 -0.48100735940E+03  0.10663498126E+04 -0.15279526563E+03  0.11797526842E+04  0.00000000000E+00 0.  1.
         11    1    5    5    0    0  0.14983467989E+02 -0.17860700820E+03  0.28537397447E+03  0.33699150285E+03  0.00000000000E+00 0.  1.
        -11    1    5    5    0    0  0.57617191991E+02 -0.19999647194E+03  0.53085543253E+03  0.57019805317E+03  0.00000000000E+00 0. -1.
          2    1    6    6  503    0  0.37868890550E+03 -0.72200419460E+03  0.29901351132E+03  0.86839186093E+03  0.00000000000E+00 0. -1.
         -2    1    6    6    0  503  0.16670358239E+03 -0.35959145833E+03  0.81270411908E+02  0.40459977896E+03  0.00000000000E+00 0.  1.
<mgrwt>
<rscale>  0 0.36339002E+04</rscale>
<asrwt>0</asrwt>
<pdfrwt beam="1">  1        2 0.36980488E+00 0.36339002E+04</pdfrwt>
<pdfrwt beam="2">  1       -1 0.21129375E+00 0.36339002E+04</pdfrwt>
<totfact> 0.46041235E-01</totfact>
</mgrwt>
</event>
<event>
12    6  0.1510140E-007  0.1366597E+04  0.7818608E-02  0.8978359E-01
         -1   -1    0    0    0  501 -0.00000000000E+00  0.00000000000E+00  0.10760008654E+04  0.10760008654E+04  0.00000000000E+00 0.  1.
          2   -1    0    0  501    0  0.00000000000E+00 -0.00000000000E+00 -0.43391866858E+03  0.43391866858E+03  0.00000000000E+00 0. -1.
         24    2    1    2    0    0  0.18166094500E+03 -0.34762101298E+03  0.33253915808E+03  0.52057998335E+03  0.81118184186E+02 0.  0.
        254    2    1    2    0    0 -0.18166094500E+03  0.34762101298E+03  0.30954303869E+03  0.98933955057E+03  0.85389389617E+03 0.  0.
         23    2    4    4    0    0 -0.18204994104E+03  0.29756586995E+03  0.58929207245E+03  0.69087725308E+03  0.91425402278E+02 0.  0.
         23    2    4    4    0    0  0.38899603894E+00  0.50055143029E+02 -0.27974903376E+03  0.29846229749E+03  0.91184167877E+02 0.  0.
          2    1    3    3  502    0  0.95937742619E+02 -0.22047331439E+03  0.15541268805E+03  0.28629641357E+03  0.00000000000E+00 0. -1.
         -1    1    3    3    0  502  0.85723202380E+02 -0.12714769859E+03  0.17712647003E+03  0.23428356978E+03  0.00000000000E+00 0.  1.
         11    1    5    5    0    0 -0.18013486634E+03  0.22596681937E+03  0.47468929524E+03  0.55573329983E+03  0.00000000000E+00 0. -1.
        -11    1    5    5    0    0 -0.19150746957E+01  0.71599050585E+02  0.11460277721E+03  0.13514395325E+03  0.00000000000E+00 0.  1.
          3    1    6    6  503    0  0.29523740076E+02  0.62313768451E+02 -0.15281077196E+03  0.16764781238E+03  0.00000000000E+00 0. -1.
         -3    1    6    6    0  503 -0.29134744037E+02 -0.12258625423E+02 -0.12693826180E+03  0.13081448511E+03  0.00000000000E+00 0.  1.
<mgrwt>
<rscale>  0 0.13665970E+04</rscale>
<asrwt>0</asrwt>
<pdfrwt beam="1">  1        2 0.66756719E-01 0.13665970E+04</pdfrwt>
<pdfrwt beam="2">  1       -1 0.16553859E+00 0.13665970E+04</pdfrwt>
<totfact> 0.21484882E+01</totfact>
</mgrwt>
</event>
<event>
12    6  0.1510140E-007  0.2308695E+04  0.7818608E-02  0.8474501E-01
         -1   -1    0    0    0  501 -0.00000000000E+00  0.00000000000E+00  0.24667878482E+03  0.24667878482E+03  0.00000000000E+00 0.  1.
          2   -1    0    0  501    0  0.00000000000E+00 -0.00000000000E+00 -0.54018373437E+04  0.54018373437E+04  0.00000000000E+00 0. -1.
         24    2    1    2    0    0  0.16044049242E+03 -0.60405210979E+03 -0.37720374953E+04  0.38242766911E+04  0.78773353674E+02 0.  0.
        254    2    1    2    0    0 -0.16044049242E+03  0.60405210979E+03 -0.13831210636E+04  0.18242394375E+04  0.10120304074E+04 0.  0.
         23    2    4    4    0    0  0.32776278711E+03  0.37460587321E+03 -0.24734188182E+03  0.56330771354E+03  0.91539984552E+02 0.  0.
         23    2    4    4    0    0 -0.48820327953E+03  0.22944623658E+03 -0.11357791818E+04  0.12609317239E+04  0.94691313826E+02 0.  0.
          2    1    3    3  502    0  0.14546183340E+03 -0.55832245638E+03 -0.33283188853E+04  0.33779564403E+04  0.00000000000E+00 0. -1.
         -1    1    3    3    0  502  0.14978659017E+02 -0.45729653409E+02 -0.44371860992E+03  0.44632025073E+03  0.00000000000E+00 0.  1.
         11    1    5    5    0    0  0.30140694032E+03  0.32040306998E+03 -0.18689628530E+03  0.47794821098E+03  0.00000000000E+00 0.  1.
        -11    1    5    5    0    0  0.26355846798E+02  0.54202803231E+02 -0.60445596514E+02  0.85359502555E+02  0.00000000000E+00 0. -1.
          3    1    6    6  503    0 -0.18819289776E+03  0.74941635562E+02 -0.32815357867E+03  0.38563919238E+03  0.00000000000E+00 0. -1.
         -3    1    6    6    0  503 -0.30001038177E+03  0.15450460102E+03 -0.80762560316E+03  0.87529253155E+03  0.00000000000E+00 0.  1.
<mgrwt>
<rscale>  0 0.23086955E+04</rscale>
<asrwt>0</asrwt>
<pdfrwt beam="1">  1        2 0.83105183E+00 0.23086955E+04</pdfrwt>
<pdfrwt beam="2">  1       -1 0.37950585E-01 0.23086955E+04</pdfrwt>
<totfact> 0.62982132E-02</totfact>
</mgrwt>
</event>
<event>
12    6  0.1510140E-007  0.1572161E+04  0.7818608E-02  0.8837836E-01
         -1   -1    0    0    0  501 -0.00000000000E+00  0.00000000000E+00  0.37892818187E+03  0.37892818187E+03  0.00000000000E+00 0.  1.
          2   -1    0    0  501    0  0.00000000000E+00 -0.00000000000E+00 -0.16307108644E+04  0.16307108644E+04  0.00000000000E+00 0. -1.
         24    2    1    2    0    0  0.71330625586E+02  0.12087994270E+03 -0.10736751599E+04  0.10861844829E+04  0.85547433369E+02 0.  0.
        254    2    1    2    0    0 -0.71330625586E+02 -0.12087994270E+03 -0.17810752262E+03  0.92345456330E+03  0.89517932403E+03 0.  0.
         23    2    4    4    0    0  0.35094440406E+03 -0.22830697843E+03 -0.21011319172E+03  0.47688178675E+03  0.89345587784E+02 0.  0.
         23    2    4    4    0    0 -0.42227502965E+03  0.10742703573E+03  0.32005669104E+02  0.44657277655E+03  0.92445190399E+02 0.  0.
          4    1    3    3  502    0  0.39430544553E+02  0.12297405551E+03 -0.76105470315E+03  0.77193370659E+03  0.00000000000E+00 0. -1.
         -3    1    3    3    0  502  0.31900081033E+02 -0.20941128139E+01 -0.31262045672E+03  0.31425077635E+03  0.00000000000E+00 0.  1.
         11    1    5    5    0    0  0.22095613074E+03 -0.92672012472E+02 -0.13056291360E+03  0.27286697861E+03  0.00000000000E+00 0.  1.
        -11    1    5    5    0    0  0.12998827332E+03 -0.13563496596E+03 -0.79550278127E+02  0.20401480814E+03  0.00000000000E+00 0. -1.
          2    1    6    6  503    0 -0.16273686723E+03  0.70600296658E+02 -0.22547513947E+02  0.17881856791E+03  0.00000000000E+00 0. -1.
         -2    1    6    6    0  503 -0.25953816242E+03  0.36826739076E+02  0.54553183051E+02  0.26775420864E+03  0.00000000000E+00 0.  1.
<mgrwt>
<rscale>  0 0.15721607E+04</rscale>
<asrwt>0</asrwt>
<pdfrwt beam="1">  1        2 0.25087859E+00 0.15721607E+04</pdfrwt>
<pdfrwt beam="2">  1       -1 0.58296644E-01 0.15721607E+04</pdfrwt>
<totfact> 0.34988740E+01</totfact>
</mgrwt>
</event>
<event>
12    6  0.1510140E-007  0.2568105E+04  0.7818608E-02  0.8379116E-01
         -1   -1    0    0    0  501 -0.00000000000E+00  0.00000000000E+00  0.14701808483E+04  0.14701808483E+04  0.00000000000E+00 0.  1.
          2   -1    0    0  501    0  0.00000000000E+00 -0.00000000000E+00 -0.11214888037E+04  0.11214888037E+04  0.00000000000E+00 0. -1.
         24    2    1    2    0    0  0.26613347082E+03  0.10284897158E+04  0.52323006149E+03  0.11877153052E+04  0.90993567103E+02 0.  0.
        254    2    1    2    0    0 -0.26613347082E+03 -0.10284897158E+04 -0.17453801693E+03  0.14039543468E+04  0.90111384906E+03 0.  0.
         23    2    4    4    0    0  0.18456383335E+03 -0.79456785278E+03  0.86827049389E+02  0.82557575370E+03  0.92922049748E+02 0.  0.
         23    2    4    4    0    0 -0.45069730417E+03 -0.23392186297E+03 -0.26136506632E+03  0.57837859315E+03  0.91447258862E+02 0.  0.
          4    1    3    3  502    0  0.29806356653E+01  0.12794040951E+03  0.67214580886E+02  0.14455252492E+03  0.00000000000E+00 0. -1.
         -3    1    3    3    0  502  0.26315283515E+03  0.90054930624E+03  0.45601548061E+03  0.10431627803E+04  0.00000000000E+00 0.  1.
         11    1    5    5    0    0  0.16853159936E+03 -0.59758906044E+03  0.38323428163E+02  0.62208059791E+03  0.00000000000E+00 0.  1.
        -11    1    5    5    0    0  0.16032233989E+02 -0.19697879234E+03  0.48503621226E+02  0.20349515579E+03  0.00000000000E+00 0. -1.
          2    1    6    6  503    0 -0.31150270312E+02 -0.47621245273E+02 -0.28657855318E+02  0.63713381744E+02  0.00000000000E+00 0. -1.
         -2    1    6    6    0  503 -0.41954703386E+03 -0.18630061770E+03 -0.23270721100E+03  0.51466521140E+03  0.00000000000E+00 0.  1.
<mgrwt>
<rscale>  0 0.25681054E+04</rscale>
<asrwt>0</asrwt>
<pdfrwt beam="1">  1        2 0.17253674E+00 0.25681054E+04</pdfrwt>
<pdfrwt beam="2">  1       -1 0.22618167E+00 0.25681054E+04</pdfrwt>
<totfact> 0.21376551E+00</totfact>
</mgrwt>
</event>
<event>
12    6  0.1510140E-007  0.1478666E+04  0.7818608E-02  0.8898765E-01
         -3   -1    0    0    0  501 -0.00000000000E+00  0.00000000000E+00  0.51832718806E+03  0.51832718806E+03  0.00000000000E+00 0.  1.
          4   -1    0    0  501    0  0.00000000000E+00 -0.00000000000E+00 -0.10545720676E+04  0.10545720676E+04  0.00000000000E+00 0. -1.
         24    2    1    2    0    0  0.17045312834E+03 -0.99249697118E+01  0.28924490405E+03  0.34485063601E+03  0.78144562510E+02 0.  0.
        254    2    1    2    0    0 -0.17045312834E+03  0.99249697118E+01 -0.82548978360E+03  0.12280486197E+04  0.89303821612E+03 0.  0.
         23    2    4    4    0    0  0.17409401720E+03 -0.25252240067E+03 -0.34130834991E+02  0.32130504497E+03  0.89418836730E+02 0.  0.
         23    2    4    4    0    0 -0.34454714555E+03  0.26244737038E+03 -0.79135894861E+03  0.90674357469E+03  0.91343127708E+02 0.  0.
          2    1    3    3  502    0  0.23461500083E+02  0.23286925807E+01  0.11106403801E+03  0.11353891551E+03  0.00000000000E+00 0. -1.
         -1    1    3    3    0  502  0.14699162826E+03 -0.12253662292E+02  0.17818086604E+03  0.23131172050E+03  0.00000000000E+00 0.  1.
         11    1    5    5    0    0  0.75537580092E+02 -0.18545597727E+03 -0.19388463134E+02  0.20118587926E+03  0.00000000000E+00 0. -1.
        -11    1    5    5    0    0  0.98556437112E+02 -0.67066423403E+02 -0.14742371857E+02  0.12011916572E+03  0.00000000000E+00 0.  1.
          3    1    6    6  503    0 -0.23821672611E+03  0.13312197039E+03 -0.53458210202E+03  0.60020554095E+03  0.00000000000E+00 0. -1.
         -3    1    6    6    0  503 -0.10633041944E+03  0.12932539999E+03 -0.25677684659E+03  0.30653803374E+03  0.00000000000E+00 0.  1.
<mgrwt>
<rscale>  0 0.14786661E+04</rscale>
<asrwt>0</asrwt>
<pdfrwt beam="1">  1        4 0.16224186E+00 0.14786661E+04</pdfrwt>
<pdfrwt beam="2">  1       -3 0.79742645E-01 0.14786661E+04</pdfrwt>
<totfact> 0.78022841E-01</totfact>
</mgrwt>
</event>
<event>
12    6  0.1510140E-007  0.2865273E+04  0.7818608E-02  0.8283285E-01
          2   -1    0    0  501    0  0.00000000000E+00  0.00000000000E+00  0.20382444753E+04  0.20382444753E+04  0.00000000000E+00 0. -1.
         -1   -1    0    0    0  501 -0.00000000000E+00 -0.00000000000E+00 -0.10069683422E+04  0.10069683422E+04  0.00000000000E+00 0.  1.
         24    2    1    2    0    0 -0.35311136267E+03  0.18689039880E+03  0.17678861975E+04  0.18142110074E+04  0.79525570683E+02 0.  0.
        254    2    1    2    0    0  0.35311136267E+03 -0.18689039880E+03 -0.73661006448E+03  0.12310018101E+04  0.90175130375E+03 0.  0.
         23    2    4    4    0    0  0.32261127629E+03 -0.51631280921E+03 -0.32915306605E+03  0.69804484703E+03  0.90928076145E+02 0.  0.
         23    2    4    4    0    0  0.30500086380E+02  0.32942241041E+03 -0.40745699842E+03  0.53295696308E+03  0.92588007777E+02 0.  0.
          4    1    3    3  502    0 -0.24644729379E+03  0.15090456487E+03  0.13988584756E+04  0.14283954253E+04  0.00000000000E+00 0. -1.
         -3    1    3    3    0  502 -0.10666406888E+03  0.35985833935E+02  0.36902772193E+03  0.38581558209E+03  0.00000000000E+00 0.  1.
         11    1    5    5    0    0  0.90759544119E+02 -0.78729525780E+02 -0.57124866849E+02  0.13303715079E+03  0.00000000000E+00 0.  1.
        -11    1    5    5    0    0  0.23185173217E+03 -0.43758328343E+03 -0.27202819920E+03  0.56500769624E+03  0.00000000000E+00 0. -1.
          4    1    6    6  503    0  0.18046753331E+02  0.28798852532E+03 -0.39255279778E+03  0.48719685454E+03  0.00000000000E+00 0. -1.
         -4    1    6    6    0  503  0.12453333049E+02  0.41433885087E+02 -0.14904200642E+02  0.45760108547E+02  0.00000000000E+00 0.  1.
<mgrwt>
<rscale>  0 0.28652732E+04</rscale>
<asrwt>0</asrwt>
<pdfrwt beam="1">  1        2 0.31357607E+00 0.28652732E+04</pdfrwt>
<pdfrwt beam="2">  1       -1 0.15491821E+00 0.28652732E+04</pdfrwt>
<totfact> 0.20015637E+00</totfact>
</mgrwt>
</event>
<event>
12    6  0.1510140E-007  0.1464370E+04  0.7818608E-02  0.8908498E-01
          2   -1    0    0  501    0  0.00000000000E+00  0.00000000000E+00  0.83149475610E+03  0.83149475610E+03  0.00000000000E+00 0. -1.
         -1   -1    0    0    0  501 -0.00000000000E+00 -0.00000000000E+00 -0.64473642377E+03  0.64473642377E+03  0.00000000000E+00 0.  1.
         24    2    1    2    0    0 -0.30412192211E+03 -0.27417930308E+03  0.65899941239E+02  0.42235417391E+03  0.79848683249E+02 0.  0.
        254    2    1    2    0    0  0.30412192211E+03  0.27417930308E+03  0.12085839109E+03  0.10538770060E+04  0.96352766397E+03 0.  0.
         23    2    4    4    0    0  0.58049551274E+03  0.55550714381E+02 -0.13973993852E+03  0.60723399222E+03  0.95629225225E+02 0.  0.
         23    2    4    4    0    0 -0.27637359063E+03  0.21862858870E+03  0.26059832960E+03  0.44664301373E+03  0.86009714171E+02 0.  0.
          4    1    3    3  502    0 -0.80203707049E+02 -0.31183894102E+02  0.23557959457E+02  0.89219097337E+02  0.00000000000E+00 0. -1.
         -3    1    3    3    0  502 -0.22391821506E+03 -0.24299540898E+03  0.42341981782E+02  0.33313507658E+03  0.00000000000E+00 0.  1.
         11    1    5    5    0    0  0.15830327342E+03  0.38630333132E+02 -0.76442393392E+02  0.17998796771E+03  0.00000000000E+00 0. -1.
        -11    1    5    5    0    0  0.42219223932E+03  0.16920381249E+02 -0.63297545123E+02  0.42724602451E+03  0.00000000000E+00 0.  1.
          1    1    6    6  503    0 -0.78743531525E+02  0.18227289264E+02  0.67630058744E+02  0.10538786779E+03  0.00000000000E+00 0. -1.
         -1    1    6    6    0  503 -0.19763005910E+03  0.20040129944E+03  0.19296827086E+03  0.34125514595E+03  0.00000000000E+00 0.  1.
<mgrwt>
<rscale>  0 0.14643701E+04</rscale>
<asrwt>0</asrwt>
<pdfrwt beam="1">  1        2 0.12792227E+00 0.14643701E+04</pdfrwt>
<pdfrwt beam="2">  1       -1 0.99190219E-01 0.14643701E+04</pdfrwt>
<totfact> 0.35132044E+01</totfact>
</mgrwt>
</event>
<event>
12    6  0.1510140E-007  0.2162840E+04  0.7818608E-02  0.8534056E-01
          2   -1    0    0  501    0  0.00000000000E+00  0.00000000000E+00  0.20268177824E+04  0.20268177824E+04  0.00000000000E+00 0. -1.
         -1   -1    0    0    0  501 -0.00000000000E+00 -0.00000000000E+00 -0.57699783433E+03  0.57699783433E+03  0.00000000000E+00 0.  1.
         24    2    1    2    0    0 -0.13747713570E+03 -0.40619928609E+03  0.15378885689E+04  0.15985014101E+04  0.78788863094E+02 0.  0.
        254    2    1    2    0    0  0.13747713570E+03  0.40619928609E+03 -0.88068620815E+02  0.10053142066E+04  0.90498770666E+03 0.  0.
         23    2    4    4    0    0  0.20547174457E+03  0.66146787544E+03 -0.15880762237E+03  0.71677857888E+03  0.93772502209E+02 0.  0.
         23    2    4    4    0    0 -0.67994608869E+02 -0.25526858934E+03  0.70739001557E+02  0.28853562774E+03  0.91997187966E+02 0.  0.
          4    1    3    3  502    0 -0.14631702077E+03 -0.37259238804E+03  0.13831525135E+04  0.14399113285E+04  0.00000000000E+00 0. -1.
         -3    1    3    3    0  502  0.88398850721E+01 -0.33606898055E+02  0.15473605536E+03  0.15859008164E+03  0.00000000000E+00 0.  1.
         11    1    5    5    0    0  0.74073402843E+02  0.38024033889E+03 -0.10870430244E+03  0.40235085398E+03  0.00000000000E+00 0.  1.
        -11    1    5    5    0    0  0.13139834172E+03  0.28122753654E+03 -0.50103319930E+02  0.31442772490E+03  0.00000000000E+00 0. -1.
          3    1    6    6  503    0 -0.29777657894E+02 -0.78360693154E+02 -0.19843673289E+02  0.86144521073E+02  0.00000000000E+00 0. -1.
         -3    1    6    6    0  503 -0.38216950975E+02 -0.17690789619E+03  0.90582674846E+02  0.20239110667E+03  0.00000000000E+00 0.  1.
<mgrwt>
<rscale>  0 0.21628402E+04</rscale>
<asrwt>0</asrwt>
<pdfrwt beam="1">  1        2 0.31181812E+00 0.21628402E+04</pdfrwt>
<pdfrwt beam="2">  1       -1 0.88768899E-01 0.21628402E+04</pdfrwt>
<totfact> 0.83881429E+00</totfact>
</mgrwt>
</event>
<event>
12    6  0.1510140E-007  0.1653852E+04  0.7818608E-02  0.8788131E-01
          4   -1    0    0  501    0  0.00000000000E+00  0.00000000000E+00  0.54382258056E+03  0.54382258056E+03  0.00000000000E+00 0. -1.
         -3   -1    0    0    0  501 -0.00000000000E+00 -0.00000000000E+00 -0.12574071554E+04  0.12574071554E+04  0.00000000000E+00 0.  1.
         24    2    1    2    0    0  0.15155581973E+03 -0.99559159667E+02  0.32567558366E+03  0.38149638204E+03  0.81201668412E+02 0.  0.
        254    2    1    2    0    0 -0.15155581973E+03  0.99559159667E+02 -0.10392601585E+04  0.14197333539E+04  0.95010521859E+03 0.  0.
         23    2    4    4    0    0 -0.48132557140E+02 -0.34802921412E+03 -0.11238748425E+03  0.38117936314E+03  0.96050420780E+02 0.  0.
         23    2    4    4    0    0 -0.10342326259E+03  0.44758837379E+03 -0.92687267422E+03  0.10385539907E+04  0.92031048485E+02 0.  0.
          4    1    3    3  502    0  0.42343286577E+02 -0.65961719940E+02  0.18021809712E+03  0.19652599051E+03  0.00000000000E+00 0. -1.
         -3    1    3    3    0  502  0.10921253316E+03 -0.33597439727E+02  0.14545748653E+03  0.18497039153E+03  0.00000000000E+00 0.  1.
         11    1    5    5    0    0 -0.67550555744E+02 -0.33259364891E+03 -0.10622682110E+03  0.35562023340E+03  0.00000000000E+00 0. -1.
        -11    1    5    5    0    0  0.19417998604E+02 -0.15435565207E+02 -0.61606631514E+01  0.25559129748E+02  0.00000000000E+00 0.  1.
          1    1    6    6  503    0 -0.84147212756E+02  0.35888660962E+03 -0.81501283509E+03  0.89449777716E+03  0.00000000000E+00 0. -1.
         -1    1    6    6    0  503 -0.19276049838E+02  0.88701764164E+02 -0.11185983914E+03  0.14405621359E+03  0.00000000000E+00 0.  1.
<mgrwt>
<rscale>  0 0.16538518E+04</rscale>
<asrwt>0</asrwt>
<pdfrwt beam="1">  1        4 0.83665013E-01 0.16538518E+04</pdfrwt>
<pdfrwt beam="2">  1       -3 0.19344725E+00 0.16538518E+04</pdfrwt>
<totfact> 0.44172333E-01</totfact>
</mgrwt>
</event>
<event>
12    6  0.1510140E-007  0.2034886E+04  0.7818608E-02  0.8590482E-01
         -1   -1    0    0    0  501 -0.00000000000E+00  0.00000000000E+00  0.72784917003E+03  0.72784917003E+03  0.00000000000E+00 0.  1.
          2   -1    0    0  501    0  0.00000000000E+00 -0.00000000000E+00 -0.14222598595E+04  0.14222598595E+04  0.00000000000E+00 0. -1.
         24    2    1    2    0    0 -0.39631829804E+03  0.62533402216E+03  0.84731018566E+02  0.74944548639E+03  0.79864628800E+02 0.  0.
        254    2    1    2    0    0  0.39631829804E+03 -0.62533402216E+03 -0.77914170806E+03  0.14006635432E+04  0.89815685003E+03 0.  0.
         23    2    4    4    0    0 -0.28949236028E+02 -0.11222472566E+03 -0.70873277050E+03  0.72422652675E+03  0.93645473733E+02 0.  0.
         23    2    4    4    0    0  0.42526753407E+03 -0.51310929650E+03 -0.70408937562E+02  0.67643701641E+03  0.92065156225E+02 0.  0.
          4    1    3    3  502    0 -0.72311177916E+02  0.69392108546E+02  0.24445575997E+02  0.10315889378E+03  0.00000000000E+00 0. -1.
         -3    1    3    3    0  502 -0.32400712013E+03  0.55594191362E+03  0.60285442569E+02  0.64628659261E+03  0.00000000000E+00 0.  1.
         11    1    5    5    0    0 -0.57367888877E+02 -0.78123934935E+02 -0.58030186174E+03  0.58834061106E+03  0.00000000000E+00 0. -1.
        -11    1    5    5    0    0  0.28418652849E+02 -0.34100790723E+02 -0.12843090876E+03  0.13588591569E+03  0.00000000000E+00 0.  1.
          1    1    6    6  503    0  0.21547348056E+03 -0.26615928546E+03 -0.82255492027E+02  0.35218681411E+03  0.00000000000E+00 0. -1.
         -1    1    6    6    0  503  0.20979405351E+03 -0.24695001104E+03  0.11846554466E+02  0.32425020231E+03  0.00000000000E+00 0.  1.
<mgrwt>
<rscale>  0 0.20348864E+04</rscale>
<asrwt>0</asrwt>
<pdfrwt beam="1">  1        2 0.21880921E+00 0.20348864E+04</pdfrwt>
<pdfrwt beam="2">  1       -1 0.11197680E+00 0.20348864E+04</pdfrwt>
<totfact> 0.10853667E+01</totfact>
</mgrwt>
</event>
<event>
12    6  0.1510140E-007  0.2288538E+04  0.7818608E-02  0.8482454E-01
         -1   -1    0    0    0  501 -0.00000000000E+00  0.00000000000E+00  0.55212803368E+03  0.55212803368E+03  0.00000000000E+00 0.  1.
          2   -1    0    0  501    0  0.00000000000E+00 -0.00000000000E+00 -0.23714635733E+04  0.23714635733E+04  0.00000000000E+00 0. -1.
         24    2    1    2    0    0  0.11680111020E+03 -0.19187900554E+03  0.43090460533E+03  0.49263001013E+03  0.80904238906E+02 0.  0.
        254    2    1    2    0    0 -0.11680111020E+03  0.19187900554E+03 -0.22502401450E+04  0.24309615969E+04  0.89192685986E+03 0.  0.
         23    2    4    4    0    0 -0.44331378597E+03  0.30462969601E+03 -0.15783478247E+04  0.16701032303E+04  0.93469671259E+02 0.  0.
         23    2    4    4    0    0  0.32651267577E+03 -0.11275069047E+03 -0.67189232022E+03  0.76085836657E+03  0.90238120440E+02 0.  0.
          4    1    3    3  502    0  0.98116343954E+02 -0.83838748802E+02  0.23833639995E+03  0.27103503886E+03  0.00000000000E+00 0. -1.
         -3    1    3    3    0  502  0.18684766250E+02 -0.10804025674E+03  0.19256820538E+03  0.22159497127E+03  0.00000000000E+00 0.  1.
         11    1    5    5    0    0 -0.30797381388E+02  0.37311393048E+02 -0.83431954492E+02  0.96444335146E+02  0.00000000000E+00 0. -1.
        -11    1    5    5    0    0 -0.41251640458E+03  0.26731830296E+03 -0.14949158703E+04  0.15736588951E+04  0.00000000000E+00 0.  1.
          1    1    6    6  503    0  0.26820641088E+02 -0.23073588344E+02 -0.28435460402E+02  0.45390667276E+02  0.00000000000E+00 0. -1.
         -1    1    6    6    0  503  0.29969203468E+03 -0.89677102121E+02 -0.64345685982E+03  0.71546769930E+03  0.00000000000E+00 0.  1.
<mgrwt>
<rscale>  0 0.22885380E+04</rscale>
<asrwt>0</asrwt>
<pdfrwt beam="1">  1        2 0.36484054E+00 0.22885380E+04</pdfrwt>
<pdfrwt beam="2">  1       -1 0.84942776E-01 0.22885380E+04</pdfrwt>
<totfact> 0.58434351E+00</totfact>
</mgrwt>
</event>
<event>
12    6  0.1510140E-007  0.1398085E+04  0.7818608E-02  0.8955206E-01
         -1   -1    0    0    0  501 -0.00000000000E+00  0.00000000000E+00  0.57259943241E+03  0.57259943241E+03  0.00000000000E+00 0.  1.
          2   -1    0    0  501    0  0.00000000000E+00 -0.00000000000E+00 -0.85340727630E+03  0.85340727630E+03  0.00000000000E+00 0. -1.
         24    2    1    2    0    0 -0.36360922180E+03  0.16798084579E+03 -0.27239940762E+02  0.40946899595E+03  0.80582960607E+02 0.  0.
        254    2    1    2    0    0  0.36360922180E+03 -0.16798084579E+03 -0.25356790313E+03  0.10165377128E+04  0.89923467974E+03 0.  0.
         23    2    4    4    0    0  0.38556343452E+03  0.21061162234E+03  0.13140529997E+03  0.46733784038E+03  0.90115962432E+02 0.  0.
         23    2    4    4    0    0 -0.21954212719E+02 -0.37859246813E+03 -0.38497320309E+03  0.54919987239E+03  0.97989225671E+02 0.  0.
          4    1    3    3  502    0 -0.89339661633E+02  0.80706596631E+02 -0.15725364369E+02  0.12141835514E+03  0.00000000000E+00 0. -1.
         -3    1    3    3    0  502 -0.27426956017E+03  0.87274249156E+02 -0.11514576393E+02  0.28805064081E+03  0.00000000000E+00 0.  1.
         11    1    5    5    0    0  0.95032422690E+02  0.94225310560E+02  0.58083229298E+02  0.14588773779E+03  0.00000000000E+00 0.  1.
        -11    1    5    5    0    0  0.29053101183E+03  0.11638631178E+03  0.73322070670E+02  0.32145010259E+03  0.00000000000E+00 0. -1.
          4    1    6    6  503    0 -0.52021650966E+02 -0.23166422362E+03 -0.19554925350E+03  0.30759401038E+03  0.00000000000E+00 0. -1.
         -4    1    6    6    0  503  0.30067438247E+02 -0.14692824451E+03 -0.18942394960E+03  0.24160586201E+03  0.00000000000E+00 0.  1.
<mgrwt>
<rscale>  0 0.13980852E+04</rscale>
<asrwt>0</asrwt>
<pdfrwt beam="1">  1        2 0.13129343E+00 0.13980852E+04</pdfrwt>
<pdfrwt beam="2">  1       -1 0.88092220E-01 0.13980852E+04</pdfrwt>
<totfact> 0.44432259E+01</totfact>
</mgrwt>
</event>
<event>
12    6  0.1510140E-007  0.1448460E+04  0.7818608E-02  0.8919469E-01
          2   -1    0    0  501    0  0.00000000000E+00  0.00000000000E+00  0.49373118161E+03  0.49373118161E+03  0.00000000000E+00 0. -1.
         -1   -1    0    0    0  501 -0.00000000000E+00 -0.00000000000E+00 -0.10623375561E+04  0.10623375561E+04  0.00000000000E+00 0.  1.
         24    2    1    2    0    0  0.11656630950E+03  0.13315429959E+03 -0.54178781281E+03  0.57548489453E+03  0.79567944040E+02 0.  0.
        254    2    1    2    0    0 -0.11656630950E+03 -0.13315429959E+03 -0.26818561681E+02  0.98058384317E+03  0.96410977913E+03 0.  0.
         23    2    4    4    0    0 -0.25880462462E+03 -0.15192433788E+03 -0.43600001777E+03  0.53715817601E+03  0.91553549356E+02 0.  0.
         23    2    4    4    0    0  0.14223831512E+03  0.18770038288E+02  0.40918145609E+03  0.44342566715E+03  0.92805202756E+02 0.  0.
          2    1    3    3  502    0  0.37011104282E+02  0.46917487666E+02 -0.85229718822E+02  0.10409215849E+03  0.00000000000E+00 0. -1.
         -1    1    3    3    0  502  0.79555205214E+02  0.86236811928E+02 -0.45655809399E+03  0.47139273604E+03  0.00000000000E+00 0.  1.
         11    1    5    5    0    0 -0.23618783126E+03 -0.11517720868E+03 -0.40937685673E+03  0.48645646451E+03  0.00000000000E+00 0. -1.
        -11    1    5    5    0    0 -0.22616793354E+02 -0.36747129197E+02 -0.26623161043E+02  0.50701711507E+02  0.00000000000E+00 0.  1.
          4    1    6    6  503    0  0.14919279733E+03  0.23296234887E+02  0.40799761684E+03  0.43504397557E+03  0.00000000000E+00 0. -1.
         -4    1    6    6    0  503 -0.69544822068E+01 -0.45261965992E+01  0.11838392492E+01  0.83816915827E+01  0.00000000000E+00 0.  1.
<mgrwt>
<rscale>  0 0.14484601E+04</rscale>
<asrwt>0</asrwt>
<pdfrwt beam="1">  1        2 0.75958645E-01 0.14484601E+04</pdfrwt>
<pdfrwt beam="2">  1       -1 0.16343654E+00 0.14484601E+04</pdfrwt>
<totfact> 0.19078110E+01</totfact>
</mgrwt>
</event>
<event>
12    6  0.1510140E-007  0.1552260E+04  0.7818608E-02  0.8850425E-01
         -1   -1    0    0    0  501 -0.00000000000E+00  0.00000000000E+00  0.51161082095E+03  0.51161082095E+03  0.00000000000E+00 0.  1.
          2   -1    0    0  501    0  0.00000000000E+00 -0.00000000000E+00 -0.11774147519E+04  0.11774147519E+04  0.00000000000E+00 0. -1.
         24    2    1    2    0    0  0.91959525956E+01 -0.20712706446E+03 -0.72114890459E+03  0.75435115474E+03  0.77483776997E+02 0.  0.
        254    2    1    2    0    0 -0.91959525956E+01  0.20712706446E+03  0.55344973663E+02  0.93467441807E+03  0.90970710414E+03 0.  0.
         23    2    4    4    0    0  0.17701446614E+03  0.37199466485E+03  0.34271539196E+03  0.54382917363E+03  0.92640046987E+02 0.  0.
         23    2    4    4    0    0 -0.18621041873E+03 -0.16486760039E+03 -0.28737041830E+03  0.39084524444E+03  0.91228296517E+02 0.  0.
          2    1    3    3  502    0  0.81440127680E+01 -0.19209665928E+03 -0.71009356526E+03  0.73566318575E+03  0.00000000000E+00 0. -1.
         -1    1    3    3    0  502  0.10519398276E+01 -0.15030405181E+02 -0.11055339330E+02  0.18687968991E+02  0.00000000000E+00 0.  1.
         11    1    5    5    0    0  0.13646115977E+03  0.33844438855E+03  0.26945015695E+03  0.45361838515E+03  0.00000000000E+00 0. -1.
        -11    1    5    5    0    0  0.40553306360E+02  0.33550276304E+02  0.73265235015E+02  0.90210788483E+02  0.00000000000E+00 0.  1.
          1    1    6    6  503    0 -0.12851274767E+03 -0.16095381278E+03 -0.20883556955E+03  0.29331544670E+03  0.00000000000E+00 0. -1.
         -1    1    6    6    0  503 -0.57697671065E+02 -0.39137876097E+01 -0.78534848750E+02  0.97529797744E+02  0.00000000000E+00 0.  1.
<mgrwt>
<rscale>  0 0.15522605E+04</rscale>
<asrwt>0</asrwt>
<pdfrwt beam="1">  1        2 0.18114073E+00 0.15522605E+04</pdfrwt>
<pdfrwt beam="2">  1       -1 0.78709358E-01 0.15522605E+04</pdfrwt>
<totfact> 0.34636601E+01</totfact>
</mgrwt>
</event>
<event>
12    6  0.1510140E-007  0.2226802E+04  0.7818608E-02  0.8507355E-01
          2   -1    0    0  501    0  0.00000000000E+00  0.00000000000E+00  0.20253898569E+04  0.20253898569E+04  0.00000000000E+00 0. -1.
         -1   -1    0    0    0  501 -0.00000000000E+00 -0.00000000000E+00 -0.61206059397E+03  0.61206059397E+03  0.00000000000E+00 0.  1.
         24    2    1    2    0    0 -0.81934027266E+03 -0.30047688945E+03  0.21844640275E+03  0.90325173186E+03  0.80870369965E+02 0.  0.
        254    2    1    2    0    0  0.81934027266E+03  0.30047688945E+03  0.11948828602E+04  0.17341987190E+04  0.90448620995E+03 0.  0.
         23    2    4    4    0    0 -0.40272514374E+02  0.37583413233E+03  0.38933741767E+03  0.55026332076E+03  0.91284866980E+02 0.  0.
         23    2    4    4    0    0  0.85961278703E+03 -0.75357242880E+02  0.80554544252E+03  0.11839353983E+04  0.90480437738E+02 0.  0.
          4    1    3    3  502    0 -0.52641059542E+03 -0.22911562745E+03  0.16186553219E+03  0.59649185763E+03  0.00000000000E+00 0. -1.
         -3    1    3    3    0  502 -0.29292967724E+03 -0.71361262002E+02  0.56580870556E+02  0.30675987423E+03  0.00000000000E+00 0.  1.
         11    1    5    5    0    0 -0.37470839205E+02  0.38052459594E+03  0.38776610223E+03  0.54457835243E+03  0.00000000000E+00 0.  1.
        -11    1    5    5    0    0 -0.28016751689E+01 -0.46904636097E+01  0.15713154401E+01  0.56849683234E+01  0.00000000000E+00 0. -1.
          3    1    6    6  503    0  0.52957650902E+03 -0.79278956376E+02  0.53791868645E+03  0.75900786890E+03  0.00000000000E+00 0. -1.
         -3    1    6    6    0  503  0.33003627802E+03  0.39217134969E+01  0.26762675607E+03  0.42492752936E+03  0.00000000000E+00 0.  1.
<mgrwt>
<rscale>  0 0.22268016E+04</rscale>
<asrwt>0</asrwt>
<pdfrwt beam="1">  1        2 0.31159844E+00 0.22268016E+04</pdfrwt>
<pdfrwt beam="2">  1       -1 0.94163169E-01 0.22268016E+04</pdfrwt>
<totfact> 0.73320432E+00</totfact>
</mgrwt>
</event>
<event>
12    6  0.1510140E-007  0.2557741E+04  0.7818608E-02  0.8382699E-01
         -1   -1    0    0    0  501 -0.00000000000E+00  0.00000000000E+00  0.22256678373E+04  0.22256678373E+04  0.00000000000E+00 0.  1.
          2   -1    0    0  501    0  0.00000000000E+00 -0.00000000000E+00 -0.73484014493E+03  0.73484014493E+03  0.00000000000E+00 0. -1.
         24    2    1    2    0    0 -0.35877268665E+03 -0.75903592531E+03  0.15071309805E+04  0.17270016003E+04  0.78976947832E+02 0.  0.
        254    2    1    2    0    0  0.35877268665E+03  0.75903592531E+03 -0.16303288169E+02  0.12335063819E+04  0.90355897455E+03 0.  0.
         23    2    4    4    0    0  0.59520848996E+03  0.70102667556E+03  0.13150575811E+03  0.93330993577E+03  0.89789339205E+02 0.  0.
         23    2    4    4    0    0 -0.23643580331E+03  0.58009249757E+02 -0.14780904628E+03  0.30019644617E+03  0.94886405691E+02 0.  0.
          4    1    3    3  502    0 -0.13139738369E+03 -0.34776977123E+03  0.61382948007E+03  0.71763202049E+03  0.00000000000E+00 0. -1.
         -3    1    3    3    0  502 -0.22737530296E+03 -0.41126615409E+03  0.89330150042E+03  0.10093695798E+04  0.00000000000E+00 0.  1.
         11    1    5    5    0    0  0.11711626575E+03  0.19520812676E+03  0.21410272441E+02  0.22865002126E+03  0.00000000000E+00 0. -1.
        -11    1    5    5    0    0  0.47809222421E+03  0.50581854880E+03  0.11009548567E+03  0.70465991452E+03  0.00000000000E+00 0.  1.
          3    1    6    6  503    0 -0.18017143880E+03  0.28769002457E+01 -0.12072253521E+03  0.21689618352E+03  0.00000000000E+00 0. -1.
         -3    1    6    6    0  503 -0.56264364507E+02  0.55132349511E+02 -0.27086511067E+02  0.83300262651E+02  0.00000000000E+00 0.  1.
<mgrwt>
<rscale>  0 0.25577413E+04</rscale>
<asrwt>0</asrwt>
<pdfrwt beam="1">  1        2 0.11305233E+00 0.25577413E+04</pdfrwt>
<pdfrwt beam="2">  1       -1 0.34241043E+00 0.25577413E+04</pdfrwt>
<totfact> 0.68013506E-01</totfact>
</mgrwt>
</event>
<event>
12    6  0.1510140E-007  0.3018956E+04  0.7818608E-02  0.8238339E-01
         -1   -1    0    0    0  501 -0.00000000000E+00  0.00000000000E+00  0.10050419817E+04  0.10050419817E+04  0.00000000000E+00 0.  1.
          2   -1    0    0  501    0  0.00000000000E+00 -0.00000000000E+00 -0.22670926367E+04  0.22670926367E+04  0.00000000000E+00 0. -1.
         24    2    1    2    0    0  0.19760083331E+03 -0.97001970691E+03 -0.16341111242E+04  0.19122686109E+04  0.80422341987E+02 0.  0.
        254    2    1    2    0    0 -0.19760083331E+03  0.97001970691E+03  0.37206046920E+03  0.13598660074E+04  0.85488142118E+03 0.  0.
         23    2    4    4    0    0 -0.26151445061E+03 -0.38940362691E+02  0.30309676963E+01  0.27979027110E+03  0.91472669750E+02 0.  0.
         23    2    4    4    0    0  0.63913617305E+02  0.10089600696E+04  0.36902950150E+03  0.10800757363E+04  0.91079364742E+02 0.  0.
          4    1    3    3  502    0  0.18971388990E+03 -0.91712638245E+03 -0.15761817398E+04  0.18334287655E+04  0.00000000000E+00 0. -1.
         -3    1    3    3    0  502  0.78869434124E+01 -0.52893324459E+02 -0.57929384380E+02  0.78839845404E+02  0.00000000000E+00 0.  1.
         11    1    5    5    0    0 -0.54073735644E+02  0.19956440071E+02  0.25412342596E+02  0.62992186365E+02  0.00000000000E+00 0. -1.
        -11    1    5    5    0    0 -0.20744071497E+03 -0.58896802762E+02 -0.22381374900E+02  0.21679808474E+03  0.00000000000E+00 0.  1.
          4    1    6    6  503    0  0.82410391638E+02  0.68773403361E+03  0.23370184099E+03  0.73101718456E+03  0.00000000000E+00 0. -1.
         -4    1    6    6    0  503 -0.18496774333E+02  0.32122603599E+03  0.13532766051E+03  0.34905855176E+03  0.00000000000E+00 0.  1.
<mgrwt>
<rscale>  0 0.30189556E+04</rscale>
<asrwt>0</asrwt>
<pdfrwt beam="1">  1        2 0.34878348E+00 0.30189556E+04</pdfrwt>
<pdfrwt beam="2">  1       -1 0.15462184E+00 0.30189556E+04</pdfrwt>
<totfact> 0.14773556E+00</totfact>
</mgrwt>
</event>
<event>
12    6  0.1510140E-007  0.2309443E+04  0.7818608E-02  0.8474207E-01
         -1   -1    0    0    0  501 -0.00000000000E+00  0.00000000000E+00  0.56040709528E+03  0.56040709528E+03  0.00000000000E+00 0.  1.
          2   -1    0    0  501    0  0.00000000000E+00 -0.00000000000E+00 -0.23793085442E+04  0.23793085442E+04  0.00000000000E+00 0. -1.
         24    2    1    2    0    0  0.23864263733E+03  0.74780368967E+03 -0.15130312212E+04  0.17063659487E+04  0.79124002466E+02 0.  0.
        254    2    1    2    0    0 -0.23864263733E+03 -0.74780368967E+03 -0.30587022766E+03  0.12333496908E+04  0.90079642367E+03 0.  0.
         23    2    4    4    0    0 -0.54807986577E+03 -0.60838241518E+03 -0.31256986812E+03  0.88112998965E+03  0.90384920406E+02 0.  0.
         23    2    4    4    0    0  0.30943722844E+03 -0.13942127449E+03  0.66996404569E+01  0.35221970112E+03  0.93936907277E+02 0.  0.
          4    1    3    3  502    0  0.23234086702E+03  0.69217427102E+03 -0.14381016634E+04  0.16128310185E+04  0.00000000000E+00 0. -1.
         -3    1    3    3    0  502  0.63017703173E+01  0.55629418648E+02 -0.74929557835E+02  0.93534930189E+02  0.00000000000E+00 0.  1.
         11    1    5    5    0    0 -0.12886399332E+03 -0.95382219568E+02 -0.78329015447E+02  0.17843522983E+03  0.00000000000E+00 0. -1.
        -11    1    5    5    0    0 -0.41921587245E+03 -0.51300019561E+03 -0.23424085267E+03  0.70269475982E+03  0.00000000000E+00 0.  1.
          1    1    6    6  503    0  0.29016946567E+02 -0.49942702982E+02  0.31985913747E+01  0.57848835390E+02  0.00000000000E+00 0. -1.
         -1    1    6    6    0  503  0.28042028187E+03 -0.89478571508E+02  0.35010490822E+01  0.29437086573E+03  0.00000000000E+00 0.  1.
<mgrwt>
<rscale>  0 0.23094427E+04</rscale>
<asrwt>0</asrwt>
<pdfrwt beam="1">  1        2 0.36604748E+00 0.23094427E+04</pdfrwt>
<pdfrwt beam="2">  1       -1 0.86216474E-01 0.23094427E+04</pdfrwt>
<totfact> 0.55892489E+00</totfact>
</mgrwt>
</event>
<event>
12    6  0.1510140E-007  0.1941182E+04  0.7818608E-02  0.8634624E-01
         -1   -1    0    0    0  501 -0.00000000000E+00  0.00000000000E+00  0.15657149266E+04  0.15657149266E+04  0.00000000000E+00 0.  1.
          2   -1    0    0  501    0  0.00000000000E+00 -0.00000000000E+00 -0.60167232447E+03  0.60167232447E+03  0.00000000000E+00 0. -1.
         24    2    1    2    0    0 -0.56100176675E+03  0.51103812015E+03  0.41086065452E+03  0.86712089701E+03  0.84907184977E+02 0.  0.
        254    2    1    2    0    0  0.56100176675E+03 -0.51103812015E+03  0.55318194760E+03  0.13002663540E+04  0.89933274251E+03 0.  0.
         23    2    4    4    0    0  0.46759929707E+03 -0.34925817692E+02  0.64010750355E+03  0.79889896792E+03  0.92914097295E+02 0.  0.
         23    2    4    4    0    0  0.93402469679E+02 -0.47611230246E+03 -0.86925555949E+02  0.50136738612E+03  0.91685646070E+02 0.  0.
          2    1    3    3  502    0 -0.50092866745E+03  0.48294846646E+03  0.38966082561E+03  0.79749878379E+03  0.00000000000E+00 0. -1.
         -1    1    3    3    0  502 -0.60073099298E+02  0.28089653690E+02  0.21199828905E+02  0.69622113221E+02  0.00000000000E+00 0.  1.
         11    1    5    5    0    0  0.12168304014E+03 -0.46821404919E+02  0.20444796247E+03  0.24248293873E+03  0.00000000000E+00 0. -1.
        -11    1    5    5    0    0  0.34591625693E+03  0.11895587227E+02  0.43565954108E+03  0.55641602919E+03  0.00000000000E+00 0.  1.
          4    1    6    6  503    0  0.74336127327E+02 -0.39633899162E+03 -0.10643312855E+03  0.41705930869E+03  0.00000000000E+00 0. -1.
         -4    1    6    6    0  503  0.19066342351E+02 -0.79773310835E+02  0.19507572604E+02  0.84308077437E+02  0.00000000000E+00 0.  1.
<mgrwt>
<rscale>  0 0.19411825E+04</rscale>
<asrwt>0</asrwt>
<pdfrwt beam="1">  1        2 0.92564974E-01 0.19411825E+04</pdfrwt>
<pdfrwt beam="2">  1       -1 0.24087922E+00 0.19411825E+04</pdfrwt>
<totfact> 0.42154864E+00</totfact>
</mgrwt>
</event>
<event>
12    6  0.1510140E-007  0.1149779E+04  0.7818608E-02  0.9157987E-01
          2   -1    0    0  501    0  0.00000000000E+00  0.00000000000E+00  0.27010269622E+04  0.27010269622E+04  0.00000000000E+00 0. -1.
         -1   -1    0    0    0  501 -0.00000000000E+00 -0.00000000000E+00 -0.12236014188E+03  0.12236014188E+03  0.00000000000E+00 0.  1.
         24    2    1    2    0    0  0.20780602292E+03  0.20748631053E+02  0.47141844094E+03  0.52262474313E+03  0.85366426816E+02 0.  0.
        254    2    1    2    0    0 -0.20780602292E+03 -0.20748631053E+02  0.21072483794E+04  0.23007623610E+04  0.89966541576E+03 0.  0.
         23    2    4    4    0    0  0.23134754760E+03 -0.18919015889E+03  0.31383219239E+03  0.44445734266E+03  0.98676645979E+02 0.  0.
         23    2    4    4    0    0 -0.43915357052E+03  0.16844152783E+03  0.17934161870E+04  0.18563050183E+04  0.91094974491E+02 0.  0.
          2    1    3    3  502    0  0.68837599374E+02 -0.10217569056E+02  0.24897736227E+03  0.25852029075E+03  0.00000000000E+00 0. -1.
         -1    1    3    3    0  502  0.13896842354E+03  0.30966200109E+02  0.22244107867E+03  0.26410445238E+03  0.00000000000E+00 0.  1.
         11    1    5    5    0    0  0.42204701309E+02 -0.49690130860E+02  0.19994851640E+02  0.68191935077E+02  0.00000000000E+00 0.  1.
        -11    1    5    5    0    0  0.18914284629E+03 -0.13950002803E+03  0.29383734075E+03  0.37626540758E+03  0.00000000000E+00 0. -1.
          4    1    6    6  503    0 -0.32261936814E+03  0.83902201053E+02  0.11766586672E+04  0.12229670703E+04  0.00000000000E+00 0. -1.
         -4    1    6    6    0  503 -0.11653420238E+03  0.84539326780E+02  0.61675751982E+03  0.63333794798E+03  0.00000000000E+00 0.  1.
<mgrwt>
<rscale>  0 0.11497792E+04</rscale>
<asrwt>0</asrwt>
<pdfrwt beam="1">  1        2 0.41554257E+00 0.11497792E+04</pdfrwt>
<pdfrwt beam="2">  1       -1 0.18824639E-01 0.11497792E+04</pdfrwt>
<totfact> 0.68403203E+01</totfact>
</mgrwt>
</event>
<event>
12    6  0.1510140E-007  0.1655290E+04  0.7818608E-02  0.8787283E-01
          2   -1    0    0  501    0  0.00000000000E+00  0.00000000000E+00  0.11078317284E+04  0.11078317284E+04  0.00000000000E+00 0. -1.
         -1   -1    0    0    0  501 -0.00000000000E+00 -0.00000000000E+00 -0.61832131466E+03  0.61832131466E+03  0.00000000000E+00 0.  1.
         24    2    1    2    0    0  0.11598801473E+03 -0.15856448289E+03 -0.39627243859E+03  0.44947139777E+03  0.79979853946E+02 0.  0.
        254    2    1    2    0    0 -0.11598801473E+03  0.15856448289E+03  0.88578285231E+03  0.12766816453E+04  0.89816972066E+03 0.  0.
         23    2    4    4    0    0 -0.44415136863E+03  0.27747400114E+02  0.77010420151E+03  0.89383081925E+03  0.88502518560E+02 0.  0.
         23    2    4    4    0    0  0.32816335390E+03  0.13081708278E+03  0.11567865080E+03  0.38285082601E+03  0.91590986089E+02 0.  0.
          4    1    3    3  502    0  0.62576271302E+02 -0.38448401978E+02 -0.20168871075E+03  0.21464483546E+03  0.00000000000E+00 0. -1.
         -3    1    3    3    0  502  0.53411743427E+02 -0.12011608092E+03 -0.19458372784E+03  0.23482656232E+03  0.00000000000E+00 0.  1.
         11    1    5    5    0    0 -0.30363243782E+03 -0.39440077680E+01  0.58665863824E+03  0.66058804888E+03  0.00000000000E+00 0. -1.
        -11    1    5    5    0    0 -0.14051893081E+03  0.31691407883E+02  0.18344556327E+03  0.23324277038E+03  0.00000000000E+00 0.  1.
          1    1    6    6  503    0  0.29490222505E+03  0.13423969070E+03  0.12630652794E+03  0.34776566233E+03  0.00000000000E+00 0. -1.
         -1    1    6    6    0  503  0.33261128855E+02 -0.34226079160E+01 -0.10627877143E+02  0.35085163677E+02  0.00000000000E+00 0.  1.
<mgrwt>
<rscale>  0 0.16552897E+04</rscale>
<asrwt>0</asrwt>
<pdfrwt beam="1">  1        2 0.17043565E+00 0.16552897E+04</pdfrwt>
<pdfrwt beam="2">  1       -1 0.95126356E-01 0.16552897E+04</pdfrwt>
<totfact> 0.25053816E+01</totfact>
</mgrwt>
</event>
<event>
12    6  0.1510140E-007  0.1085862E+04  0.7818608E-02  0.9219082E-01
         -1   -1    0    0    0  501 -0.00000000000E+00  0.00000000000E+00  0.95338409708E+03  0.95338409708E+03  0.00000000000E+00 0.  1.
          2   -1    0    0  501    0  0.00000000000E+00 -0.00000000000E+00 -0.30918719557E+03  0.30918719557E+03  0.00000000000E+00 0. -1.
         24    2    1    2    0    0 -0.49337024606E+02 -0.54249723921E+02  0.25801728698E+03  0.27720944529E+03  0.69964145372E+02 0.  0.
        254    2    1    2    0    0  0.49337024606E+02  0.54249723921E+02  0.38617961453E+03  0.98536184735E+03  0.90356300333E+03 0.  0.
         23    2    4    4    0    0 -0.32091241574E+02  0.46556168024E+03  0.16069442613E+03  0.50140521728E+03  0.88357045159E+02 0.  0.
         23    2    4    4    0    0  0.81428266181E+02 -0.41131195632E+03  0.22548518840E+03  0.48395663007E+03  0.86961840239E+02 0.  0.
          4    1    3    3  502    0 -0.32869917487E+02 -0.50000787998E+02  0.88435770771E+02  0.10677731888E+03  0.00000000000E+00 0. -1.
         -3    1    3    3    0  502 -0.16467107119E+02 -0.42489359225E+01  0.16958151621E+03  0.17043212641E+03  0.00000000000E+00 0.  1.
         11    1    5    5    0    0 -0.71157880028E+01  0.18972471655E+03  0.11127885149E+03  0.22006609302E+03  0.00000000000E+00 0.  1.
        -11    1    5    5    0    0 -0.24975453572E+02  0.27583696369E+03  0.49415574636E+02  0.28133912426E+03  0.00000000000E+00 0. -1.
          3    1    6    6  503    0  0.35816708455E+02 -0.17617771901E+03  0.14599174752E+03  0.23159234794E+03  0.00000000000E+00 0. -1.
         -3    1    6    6    0  503  0.45611557726E+02 -0.23513423731E+03  0.79493440881E+02  0.25236428213E+03  0.00000000000E+00 0.  1.
<mgrwt>
<rscale>  0 0.10858622E+04</rscale>
<asrwt>0</asrwt>
<pdfrwt beam="1">  1        2 0.47567261E-01 0.10858622E+04</pdfrwt>
<pdfrwt beam="2">  1       -1 0.14667448E+00 0.10858622E+04</pdfrwt>
<totfact> 0.44796657E+01</totfact>
</mgrwt>
</event>
<event>
12    6  0.1510140E-007  0.2374699E+04  0.7818608E-02  0.8449037E-01
          2   -1    0    0  501    0  0.00000000000E+00  0.00000000000E+00  0.10899585847E+04  0.10899585847E+04  0.00000000000E+00 0. -1.
         -1   -1    0    0    0  501 -0.00000000000E+00 -0.00000000000E+00 -0.12934424089E+04  0.12934424089E+04  0.00000000000E+00 0.  1.
         24    2    1    2    0    0 -0.20520199853E+03  0.82884406898E+03 -0.64455989627E+03  0.10729231257E+04  0.81340168273E+02 0.  0.
        254    2    1    2    0    0  0.20520199853E+03 -0.82884406898E+03  0.44107607207E+03  0.13104778680E+04  0.89090616237E+03 0.  0.
         23    2    4    4    0    0  0.33025769079E+03 -0.15406110944E+02  0.32721574238E+03  0.47428608207E+03  0.92572431096E+02 0.  0.
         23    2    4    4    0    0 -0.12505569226E+03 -0.81343795804E+03  0.11386032968E+03  0.83619178589E+03  0.94510794950E+02 0.  0.
          2    1    3    3  502    0 -0.18657821497E+02  0.31728047360E+02 -0.45342834343E+02  0.58401677361E+02  0.00000000000E+00 0. -1.
         -1    1    3    3    0  502 -0.18654417703E+03  0.79711602162E+03 -0.59921706193E+03  0.10145214484E+04  0.00000000000E+00 0.  1.
         11    1    5    5    0    0  0.33295035474E+03 -0.21606765772E+02  0.30861621036E+03  0.45449615658E+03  0.00000000000E+00 0.  1.
        -11    1    5    5    0    0 -0.26926639477E+01  0.62006548275E+01  0.18599532021E+02  0.19789925488E+02  0.00000000000E+00 0. -1.
          1    1    6    6  503    0 -0.81599501521E+01 -0.24907256998E+03  0.66377184758E+02  0.25789466951E+03  0.00000000000E+00 0. -1.
         -1    1    6    6    0  503 -0.11689574211E+03 -0.56436538806E+03  0.47483144924E+02  0.57829711638E+03  0.00000000000E+00 0.  1.
<mgrwt>
<rscale>  0 0.23746989E+04</rscale>
<asrwt>0</asrwt>
<pdfrwt beam="1">  1        2 0.16768594E+00 0.23746989E+04</pdfrwt>
<pdfrwt beam="2">  1       -1 0.19899114E+00 0.23746989E+04</pdfrwt>
<totfact> 0.34722495E+00</totfact>
</mgrwt>
</event>
<event>
12    6  0.1510140E-007  0.2289194E+04  0.7818608E-02  0.8482194E-01
         -3   -1    0    0    0  501 -0.00000000000E+00  0.00000000000E+00  0.11232479985E+04  0.11232479985E+04  0.00000000000E+00 0.  1.
          2   -1    0    0  501    0  0.00000000000E+00 -0.00000000000E+00 -0.11663522274E+04  0.11663522274E+04  0.00000000000E+00 0. -1.
         24    2    1    2    0    0 -0.15387093604E+03 -0.15689032035E+03 -0.95045194367E+03  0.97854188627E+03  0.76775571394E+02 0.  0.
        254    2    1    2    0    0  0.15387093604E+03  0.15689032035E+03  0.90734771477E+03  0.13110583396E+04  0.92049076945E+03 0.  0.
         23    2    4    4    0    0 -0.23091800842E+03  0.38630643285E+03  0.29174700033E+03  0.54408614799E+03  0.91420115698E+02 0.  0.
         23    2    4    4    0    0  0.38478894446E+03 -0.22941611250E+03  0.61560071444E+03  0.76697219157E+03  0.92670483833E+02 0.  0.
          4    1    3    3  502    0 -0.13173069153E+03 -0.16306088543E+03 -0.84479665504E+03  0.87041554203E+03  0.00000000000E+00 0. -1.
         -3    1    3    3    0  502 -0.22140244510E+02  0.61705650773E+01 -0.10565528864E+03  0.10812634424E+03  0.00000000000E+00 0.  1.
         11    1    5    5    0    0 -0.10878537272E+03  0.21930553470E+03  0.10874764684E+03  0.26787165875E+03  0.00000000000E+00 0.  1.
        -11    1    5    5    0    0 -0.12213263570E+03  0.16700089815E+03  0.18299935349E+03  0.27621448924E+03  0.00000000000E+00 0. -1.
          2    1    6    6  503    0  0.45692574385E+02 -0.11716349749E+02  0.29247874299E+02  0.55502453607E+02  0.00000000000E+00 0. -1.
         -2    1    6    6    0  503  0.33909637007E+03 -0.21769976275E+03  0.58635284014E+03  0.71146973797E+03  0.00000000000E+00 0.  1.
<mgrwt>
<rscale>  0 0.22891944E+04</rscale>
<asrwt>0</asrwt>
<pdfrwt beam="1">  1        2 0.17943880E+00 0.22891944E+04</pdfrwt>
<pdfrwt beam="2">  1       -3 0.17280738E+00 0.22891944E+04</pdfrwt>
<totfact> 0.25148707E+00</totfact>
</mgrwt>
</event>
<event>
12    6  0.1510140E-007  0.1389400E+04  0.7818608E-02  0.8961527E-01
          2   -1    0    0  501    0  0.00000000000E+00  0.00000000000E+00  0.42813724041E+03  0.42813724041E+03  0.00000000000E+00 0. -1.
         -1   -1    0    0    0  501 -0.00000000000E+00 -0.00000000000E+00 -0.11272275644E+04  0.11272275644E+04  0.00000000000E+00 0.  1.
         24    2    1    2    0    0  0.16078429761E+03 -0.35871790829E+03 -0.26041394042E+03  0.47829906063E+03  0.80152622831E+02 0.  0.
        254    2    1    2    0    0 -0.16078429761E+03  0.35871790829E+03 -0.43867638358E+03  0.10770657442E+04  0.90172252922E+03 0.  0.
         23    2    4    4    0    0 -0.16762106708E+03 -0.17757784234E+03  0.12973909830E+03  0.29020975254E+03  0.88083793195E+02 0.  0.
         23    2    4    4    0    0  0.68367694682E+01  0.53629575063E+03 -0.56841548188E+03  0.78685599164E+03  0.91576841952E+02 0.  0.
          2    1    3    3  502    0  0.77440625323E+02 -0.21514363467E+03 -0.10778321086E+03  0.25278657902E+03  0.00000000000E+00 0. -1.
         -1    1    3    3    0  502  0.83343672289E+02 -0.14357427362E+03 -0.15263072955E+03  0.22551248161E+03  0.00000000000E+00 0.  1.
         11    1    5    5    0    0 -0.10078894832E+03 -0.73730130307E+02  0.10740280734E+03  0.16471158807E+03  0.00000000000E+00 0.  1.
        -11    1    5    5    0    0 -0.66832118758E+02 -0.10384771204E+03  0.22336290954E+02  0.12549816447E+03  0.00000000000E+00 0. -1.
          3    1    6    6  503    0 -0.41168724108E+00  0.20320794040E+03 -0.15313508038E+03  0.25444840218E+03  0.00000000000E+00 0. -1.
         -3    1    6    6    0  503  0.72484567093E+01  0.33308781023E+03 -0.41528040150E+03  0.53240758947E+03  0.00000000000E+00 0.  1.
<mgrwt>
<rscale>  0 0.13894000E+04</rscale>
<asrwt>0</asrwt>
<pdfrwt beam="1">  1        2 0.65867268E-01 0.13894000E+04</pdfrwt>
<pdfrwt beam="2">  1       -1 0.17341962E+00 0.13894000E+04</pdfrwt>
<totfact> 0.19052567E+01</totfact>
</mgrwt>
</event>
<event>
12    6  0.1510140E-007  0.2545694E+04  0.7818608E-02  0.8386885E-01
         -1   -1    0    0    0  501 -0.00000000000E+00  0.00000000000E+00  0.14142596295E+04  0.14142596295E+04  0.00000000000E+00 0.  1.
          2   -1    0    0  501    0  0.00000000000E+00 -0.00000000000E+00 -0.11455742936E+04  0.11455742936E+04  0.00000000000E+00 0. -1.
         24    2    1    2    0    0  0.38576024061E+03  0.81099636385E+03 -0.54341038000E+03  0.10529324604E+04  0.82739710363E+02 0.  0.
        254    2    1    2    0    0 -0.38576024061E+03 -0.81099636385E+03  0.81209571589E+03  0.15069014627E+04  0.89706549431E+03 0.  0.
         23    2    4    4    0    0 -0.60465806935E+03 -0.81447785630E+03  0.73472219127E+03  0.12557225578E+04  0.89648672758E+02 0.  0.
         23    2    4    4    0    0  0.21889782874E+03  0.34814924552E+01  0.77373524612E+02  0.25117890491E+03  0.95790394843E+02 0.  0.
          2    1    3    3  502    0  0.31697300760E+03  0.72411619858E+03 -0.46366083528E+03  0.91640467413E+03  0.00000000000E+00 0. -1.
         -1    1    3    3    0  502  0.68787233011E+02  0.86880165267E+02 -0.79749544716E+02  0.13652778627E+03  0.00000000000E+00 0.  1.
         11    1    5    5    0    0 -0.57282136595E+03 -0.75237512929E+03  0.70671439535E+03  0.11805244127E+04  0.00000000000E+00 0.  1.
        -11    1    5    5    0    0 -0.31836703396E+02 -0.62102727012E+02  0.28007795921E+02  0.75198145042E+02  0.00000000000E+00 0. -1.
          3    1    6    6  503    0  0.16266162870E+01 -0.20687501595E+00 -0.14977103829E+02  0.15066596063E+02  0.00000000000E+00 0. -1.
         -3    1    6    6    0  503  0.21727121245E+03  0.36883674711E+01  0.92350628441E+02  0.23611230885E+03  0.00000000000E+00 0.  1.
<mgrwt>
<rscale>  0 0.25456940E+04</rscale>
<asrwt>0</asrwt>
<pdfrwt beam="1">  1        2 0.17624220E+00 0.25456940E+04</pdfrwt>
<pdfrwt beam="2">  1       -1 0.21757840E+00 0.25456940E+04</pdfrwt>
<totfact> 0.23635809E+00</totfact>
</mgrwt>
</event>
<event>
12    6  0.1510140E-007  0.1813583E+04  0.7818608E-02  0.8699109E-01
         -1   -1    0    0    0  501 -0.00000000000E+00  0.00000000000E+00  0.32238988387E+03  0.32238988387E+03  0.00000000000E+00 0.  1.
          2   -1    0    0  501    0  0.00000000000E+00 -0.00000000000E+00 -0.25505475370E+04  0.25505475370E+04  0.00000000000E+00 0. -1.
         24    2    1    2    0    0  0.22187768160E+03 -0.49832075499E+03 -0.19845281697E+03  0.58545449786E+03  0.76290025893E+02 0.  0.
        254    2    1    2    0    0 -0.22187768160E+03  0.49832075499E+03 -0.20297048361E+04  0.22874829230E+04  0.90295244651E+03 0.  0.
         23    2    4    4    0    0  0.16452343641E+03 -0.39537205962E+02 -0.50323154996E+02  0.19835486753E+03  0.90449332567E+02 0.  0.
         23    2    4    4    0    0 -0.38640111801E+03  0.53785796095E+03 -0.19793816811E+04  0.20891280555E+04  0.88922338579E+02 0.  0.
          4    1    3    3  502    0  0.13214932484E+03 -0.29008981814E+03 -0.75776987499E+02  0.32765484657E+03  0.00000000000E+00 0. -1.
         -3    1    3    3    0  502  0.89728356759E+02 -0.20823093685E+03 -0.12267582947E+03  0.25779965129E+03  0.00000000000E+00 0.  1.
         11    1    5    5    0    0  0.33055997301E+01 -0.55397070309E+01 -0.31921626022E+02  0.32566939547E+02  0.00000000000E+00 0.  1.
        -11    1    5    5    0    0  0.16121783668E+03 -0.33997498931E+02 -0.18401528973E+02  0.16578792798E+03  0.00000000000E+00 0. -1.
          2    1    6    6  503    0 -0.10171937407E+03  0.86918249939E+02 -0.44769009492E+03  0.46725585531E+03  0.00000000000E+00 0.  1.
         -2    1    6    6    0  503 -0.28468174394E+03  0.45093971101E+03 -0.15316915862E+04  0.16218722001E+04  0.00000000000E+00 0. -1.
<mgrwt>
<rscale>  0 0.18135829E+04</rscale>
<asrwt>0</asrwt>
<pdfrwt beam="1">  1        2 0.39239192E+00 0.18135829E+04</pdfrwt>
<pdfrwt beam="2">  1       -1 0.49598445E-01 0.18135829E+04</pdfrwt>
<totfact> 0.14256180E+01</totfact>
</mgrwt>
</event>
<event>
12    6  0.1510140E-007  0.2299018E+04  0.7818608E-02  0.8478309E-01
         -1   -1    0    0    0  501 -0.00000000000E+00  0.00000000000E+00  0.17774953473E+04  0.17774953473E+04  0.00000000000E+00 0.  1.
          2   -1    0    0  501    0  0.00000000000E+00 -0.00000000000E+00 -0.74338905374E+03  0.74338905374E+03  0.00000000000E+00 0. -1.
         24    2    1    2    0    0  0.87003645633E+03  0.25829596695E+01  0.91531463277E+03  0.12653019649E+04  0.78854793315E+02 0.  0.
        254    2    1    2    0    0 -0.87003645633E+03 -0.25829596695E+01  0.11879166078E+03  0.12555824361E+04  0.89744397498E+03 0.  0.
         23    2    4    4    0    0  0.20644241955E+02  0.14809190871E+03 -0.22478828096E+03  0.28481977101E+03  0.90747631087E+02 0.  0.
         23    2    4    4    0    0 -0.89068069828E+03 -0.15067486838E+03  0.34357994174E+03  0.97076266512E+03  0.91202814485E+02 0.  0.
          4    1    3    3  502    0  0.43656881346E+03  0.13484729271E+02  0.51362075552E+03  0.67422581329E+03  0.00000000000E+00 0. -1.
         -3    1    3    3    0  502  0.43346764287E+03 -0.10901769602E+02  0.40169387725E+03  0.59107615162E+03  0.00000000000E+00 0.  1.
         11    1    5    5    0    0 -0.36768731232E+01  0.42592230121E+01  0.81927282261E+01  0.99388717880E+01  0.00000000000E+00 0. -1.
        -11    1    5    5    0    0  0.24321115078E+02  0.14383268570E+03 -0.23298100919E+03  0.27488089922E+03  0.00000000000E+00 0.  1.
          2    1    6    6  503    0 -0.12172447345E+03 -0.35678162152E+02  0.79173185897E+02  0.14952649283E+03  0.00000000000E+00 0. -1.
         -2    1    6    6    0  503 -0.76895622483E+03 -0.11499670623E+03  0.26440675585E+03  0.82123617229E+03  0.00000000000E+00 0.  1.
<mgrwt>
<rscale>  0 0.22990177E+04</rscale>
<asrwt>0</asrwt>
<pdfrwt beam="1">  1        2 0.11436755E+00 0.22990177E+04</pdfrwt>
<pdfrwt beam="2">  1       -1 0.27346082E+00 0.22990177E+04</pdfrwt>
<totfact> 0.19256022E+00</totfact>
</mgrwt>
</event>
<event>
12    6  0.1510140E-007  0.2075687E+04  0.7818608E-02  0.8572030E-01
         -1   -1    0    0    0  501 -0.00000000000E+00  0.00000000000E+00  0.10430092490E+04  0.10430092490E+04  0.00000000000E+00 0.  1.
          2   -1    0    0  501    0  0.00000000000E+00 -0.00000000000E+00 -0.10327037447E+04  0.10327037447E+04  0.00000000000E+00 0. -1.
         24    2    1    2    0    0 -0.42232757807E+03  0.73007629236E+03  0.10730669224E+02  0.84715173614E+03  0.78606239689E+02 0.  0.
        254    2    1    2    0    0  0.42232757807E+03 -0.73007629236E+03 -0.42516491349E+00  0.12285612576E+04  0.89330319991E+03 0.  0.
         23    2    4    4    0    0  0.14294491333E+03 -0.80334680509E+03 -0.22531779825E+03  0.85150348106E+03  0.92145160224E+02 0.  0.
         23    2    4    4    0    0  0.27938266474E+03  0.73270512729E+02  0.22489263334E+03  0.37705777651E+03  0.90402593470E+02 0.  0.
          4    1    3    3  502    0 -0.38320532735E+03  0.68746572462E+03 -0.54901605188E+01  0.78707406723E+03  0.00000000000E+00 0. -1.
         -3    1    3    3    0  502 -0.39122250722E+02  0.42610567737E+02  0.16220829743E+02  0.60077668912E+02  0.00000000000E+00 0.  1.
         11    1    5    5    0    0  0.46368703786E+02 -0.51161784858E+03 -0.13342540242E+03  0.53075909572E+03  0.00000000000E+00 0. -1.
        -11    1    5    5    0    0  0.96576209547E+02 -0.29172895650E+03 -0.91892395828E+02  0.32074438534E+03  0.00000000000E+00 0.  1.
          3    1    6    6  503    0  0.15093642877E+03  0.76500069400E+02  0.93698519344E+02  0.19342564121E+03  0.00000000000E+00 0. -1.
         -3    1    6    6    0  503  0.12844623597E+03 -0.32295566709E+01  0.13119411399E+03  0.18363213531E+03  0.00000000000E+00 0.  1.
<mgrwt>
<rscale>  0 0.20756874E+04</rscale>
<asrwt>0</asrwt>
<pdfrwt beam="1">  1        2 0.15887750E+00 0.20756874E+04</pdfrwt>
<pdfrwt beam="2">  1       -1 0.16046296E+00 0.20756874E+04</pdfrwt>
<totfact> 0.73289133E+00</totfact>
</mgrwt>
</event>
<event>
12    6  0.1510140E-007  0.1876740E+04  0.7818608E-02  0.8666522E-01
         -1   -1    0    0    0  501 -0.00000000000E+00  0.00000000000E+00  0.96120791533E+03  0.96120791533E+03  0.00000000000E+00 0.  1.
          2   -1    0    0  501    0  0.00000000000E+00 -0.00000000000E+00 -0.91607432175E+03  0.91607432175E+03  0.00000000000E+00 0. -1.
         24    2    1    2    0    0  0.66192559111E+03 -0.31541009911E+02  0.31719587609E+03  0.73898294052E+03  0.79638176166E+02 0.  0.
        254    2    1    2    0    0 -0.66192559111E+03  0.31541009911E+02 -0.27206228251E+03  0.11382992966E+04  0.88462821541E+03 0.  0.
         23    2    4    4    0    0 -0.65418967566E+03  0.28617772796E+03 -0.41604567692E+03  0.83141485949E+03  0.91076009832E+02 0.  0.
         23    2    4    4    0    0 -0.77359154473E+01 -0.25463671805E+03  0.14398339441E+03  0.30688443707E+03  0.92450728943E+02 0.  0.
          2    1    3    3  502    0  0.22062387926E+02 -0.52085038341E+01  0.28760579123E+02  0.36620327480E+02  0.00000000000E+00 0. -1.
         -1    1    3    3    0  502  0.63986320318E+03 -0.26332506077E+02  0.28843529696E+03  0.70236261304E+03  0.00000000000E+00 0.  1.
         11    1    5    5    0    0 -0.59077388036E+03  0.25669053905E+03 -0.40429436944E+03  0.76049835484E+03  0.00000000000E+00 0. -1.
        -11    1    5    5    0    0 -0.63415795303E+02  0.29487188909E+02 -0.11751307478E+02  0.70916504646E+02  0.00000000000E+00 0.  1.
          4    1    6    6  503    0 -0.19954557117E+02 -0.44751126025E+01  0.87018856641E+01  0.22224621407E+02  0.00000000000E+00 0.  1.
         -4    1    6    6    0  503  0.12218641670E+02 -0.25016160545E+03  0.13528150874E+03  0.28465981566E+03  0.00000000000E+00 0. -1.
<mgrwt>
<rscale>  0 0.18767396E+04</rscale>
<asrwt>0</asrwt>
<pdfrwt beam="1">  1        2 0.14093451E+00 0.18767396E+04</pdfrwt>
<pdfrwt beam="2">  1       -1 0.14787814E+00 0.18767396E+04</pdfrwt>
<totfact> 0.11101361E+01</totfact>
</mgrwt>
</event>
<event>
12    6  0.1510140E-007  0.2005976E+04  0.7818608E-02  0.8603832E-01
         -1   -1    0    0    0  501 -0.00000000000E+00  0.00000000000E+00  0.16359221158E+04  0.16359221158E+04  0.00000000000E+00 0.  1.
          2   -1    0    0  501    0  0.00000000000E+00 -0.00000000000E+00 -0.61493435106E+03  0.61493435106E+03  0.00000000000E+00 0. -1.
         24    2    1    2    0    0 -0.34721860830E+03  0.13749159907E+03 -0.38381501848E+03  0.54149439674E+03  0.80234104481E+02 0.  0.
        254    2    1    2    0    0  0.34721860830E+03 -0.13749159907E+03  0.14048027832E+04  0.17093620701E+04  0.89943489218E+03 0.  0.
         23    2    4    4    0    0  0.21489015158E+03 -0.74252277304E+02  0.14933361100E+04  0.15133102574E+04  0.91455014755E+02 0.  0.
         23    2    4    4    0    0  0.13232845672E+03 -0.63239321770E+02 -0.88533326762E+02  0.19605181276E+03  0.95331689717E+02 0.  0.
          4    1    3    3  502    0 -0.33593591356E+03  0.11739632588E+03 -0.34096838288E+03  0.49284305156E+03  0.00000000000E+00 0. -1.
         -3    1    3    3    0  502 -0.11282694744E+02  0.20095273199E+02 -0.42846635593E+02  0.48651345174E+02  0.00000000000E+00 0.  1.
         11    1    5    5    0    0 -0.52514047345E+01 -0.16234438763E+01  0.65038632482E+01  0.85154599908E+01  0.00000000000E+00 0. -1.
        -11    1    5    5    0    0  0.22014155632E+03 -0.72628833428E+02  0.14868322467E+04  0.15047947974E+04  0.00000000000E+00 0.  1.
          4    1    6    6  503    0  0.58732936400E+02 -0.61168916867E+02 -0.88301357039E+02  0.12242681023E+03  0.00000000000E+00 0. -1.
         -4    1    6    6    0  503  0.73595520320E+02 -0.20704049034E+01 -0.23196972309E+00  0.73625002531E+02  0.00000000000E+00 0.  1.
<mgrwt>
<rscale>  0 0.20059758E+04</rscale>
<asrwt>0</asrwt>
<pdfrwt beam="1">  1        2 0.94605286E-01 0.20059758E+04</pdfrwt>
<pdfrwt beam="2">  1       -1 0.25168032E+00 0.20059758E+04</pdfrwt>
<totfact> 0.34697403E+00</totfact>
</mgrwt>
</event>
<event>
12    6  0.1510140E-007  0.1013303E+04  0.7818608E-02  0.9294073E-01
         -1   -1    0    0    0  501 -0.00000000000E+00  0.00000000000E+00  0.91124091716E+03  0.91124091716E+03  0.00000000000E+00 0.  1.
          2   -1    0    0  501    0  0.00000000000E+00 -0.00000000000E+00 -0.28169933314E+03  0.28169933314E+03  0.00000000000E+00 0. -1.
         24    2    1    2    0    0 -0.19449439819E+02  0.73905229422E+02  0.20297994909E+03  0.23083459996E+03  0.79015752610E+02 0.  0.
        254    2    1    2    0    0  0.19449439819E+02 -0.73905229422E+02  0.42656163494E+03  0.96210565034E+03  0.85898323055E+03 0.  0.
         23    2    4    4    0    0  0.12937813215E+03 -0.30638393221E+03  0.56138134392E+03  0.65895229838E+03  0.91974470594E+02 0.  0.
         23    2    4    4    0    0 -0.10992869233E+03  0.23247870279E+03 -0.13481970899E+03  0.30315335196E+03  0.87148931265E+02 0.  0.
          2    1    3    3  502    0 -0.49900840014E+01 -0.32806615287E+01 -0.54606431741E+01  0.80921135856E+01  0.00000000000E+00 0. -1.
         -1    1    3    3    0  502 -0.14459355818E+02  0.77185890950E+02  0.20844059226E+03  0.22274248637E+03  0.00000000000E+00 0.  1.
         11    1    5    5    0    0 -0.21946978272E+01 -0.36550753880E+02  0.25197007236E+02  0.44448436209E+02  0.00000000000E+00 0.  1.
        -11    1    5    5    0    0  0.13157282998E+03 -0.26983317833E+03  0.53618433669E+03  0.61450386217E+03  0.00000000000E+00 0. -1.
          4    1    6    6  503    0 -0.61196972092E+02  0.20821833507E+03 -0.10515577128E+03  0.24115903609E+03  0.00000000000E+00 0. -1.
         -4    1    6    6    0  503 -0.48731720240E+02  0.24260367719E+02 -0.29663937711E+02  0.61994315868E+02  0.00000000000E+00 0.  1.
<mgrwt>
<rscale>  0 0.10133034E+04</rscale>
<asrwt>0</asrwt>
<pdfrwt beam="1">  1        2 0.43338359E-01 0.10133034E+04</pdfrwt>
<pdfrwt beam="2">  1       -1 0.14019091E+00 0.10133034E+04</pdfrwt>
<totfact> 0.56278878E+01</totfact>
</mgrwt>
</event>
<event>
12    6  0.1510140E-007  0.1792998E+04  0.7818608E-02  0.8710032E-01
         -1   -1    0    0    0  501 -0.00000000000E+00  0.00000000000E+00  0.86100040871E+03  0.86100040871E+03  0.00000000000E+00 0.  1.
          2   -1    0    0  501    0  0.00000000000E+00 -0.00000000000E+00 -0.93346162935E+03  0.93346162935E+03  0.00000000000E+00 0. -1.
         24    2    1    2    0    0  0.49813647936E+03  0.36353927892E+03 -0.30806829502E+03  0.69393236729E+03  0.79594576449E+02 0.  0.
        254    2    1    2    0    0 -0.49813647936E+03 -0.36353927892E+03  0.23560707438E+03  0.11005296708E+04  0.88054193730E+03 0.  0.
         23    2    4    4    0    0  0.10100289918E+02  0.13863127383E+03  0.33413914130E+03  0.37397987228E+03  0.94293866088E+02 0.  0.
         23    2    4    4    0    0 -0.50823676927E+03 -0.50217055275E+03 -0.98532066922E+02  0.72654979848E+03  0.87670769179E+02 0.  0.
          2    1    3    3  502    0  0.33663093002E+03  0.28484510274E+03 -0.23795292484E+03  0.50107754893E+03  0.00000000000E+00 0. -1.
         -1    1    3    3    0  502  0.16150554934E+03  0.78694176179E+02 -0.70115370179E+02  0.19285481837E+03  0.00000000000E+00 0.  1.
         11    1    5    5    0    0 -0.21383480151E+01  0.98891727518E+02  0.11845212690E+03  0.15432126448E+03  0.00000000000E+00 0. -1.
        -11    1    5    5    0    0  0.12238637933E+02  0.39739546312E+02  0.21568701440E+03  0.21965860780E+03  0.00000000000E+00 0.  1.
          3    1    6    6  503    0 -0.49618573845E+03 -0.49961267045E+03 -0.10610409450E+03  0.71208931068E+03  0.00000000000E+00 0. -1.
         -3    1    6    6    0  503 -0.12051030824E+02 -0.25578822972E+01  0.75720275755E+01  0.14460487798E+02  0.00000000000E+00 0.  1.
<mgrwt>
<rscale>  0 0.17929984E+04</rscale>
<asrwt>0</asrwt>
<pdfrwt beam="1">  1        2 0.14360948E+00 0.17929984E+04</pdfrwt>
<pdfrwt beam="2">  1       -1 0.13246160E+00 0.17929984E+04</pdfrwt>
<totfact> 0.14513847E+01</totfact>
</mgrwt>
</event>
<event>
12    6  0.1510140E-007  0.2373338E+04  0.7818608E-02  0.8449554E-01
         -1   -1    0    0    0  501 -0.00000000000E+00  0.00000000000E+00  0.84625446069E+03  0.84625446069E+03  0.00000000000E+00 0.  1.
          2   -1    0    0  501    0  0.00000000000E+00 -0.00000000000E+00 -0.16640181774E+04  0.16640181774E+04  0.00000000000E+00 0. -1.
         24    2    1    2    0    0 -0.28402174346E+03  0.92694312947E+03 -0.34499430234E+02  0.97346096944E+03  0.80895811463E+02 0.  0.
        254    2    1    2    0    0  0.28402174346E+03 -0.92694312947E+03 -0.78326428651E+03  0.15368116687E+04  0.89910802826E+03 0.  0.
         23    2    4    4    0    0  0.13016626427E+03 -0.91458735756E+03 -0.23308810067E+03  0.95737964023E+03  0.93980965566E+02 0.  0.
         23    2    4    4    0    0  0.15385547920E+03 -0.12355771906E+02 -0.55017618584E+03  0.57943202846E+03  0.96038880457E+02 0.  0.
          4    1    3    3  502    0 -0.17516530730E+03  0.43788829680E+03 -0.68074081753E+01  0.47167296527E+03  0.00000000000E+00 0. -1.
         -3    1    3    3    0  502 -0.10885643616E+03  0.48905483266E+03 -0.27692022059E+02  0.50178800417E+03  0.00000000000E+00 0.  1.
         11    1    5    5    0    0  0.50258696577E+02 -0.12384912548E+03 -0.27579471814E+02  0.13647406248E+03  0.00000000000E+00 0. -1.
        -11    1    5    5    0    0  0.79907567688E+02 -0.79073823208E+03 -0.20550862885E+03  0.82090557775E+03  0.00000000000E+00 0.  1.
          3    1    6    6  503    0  0.57121761291E+02 -0.51894013894E+02 -0.24388727397E+03  0.25580634609E+03  0.00000000000E+00 0. -1.
         -3    1    6    6    0  503  0.96733717904E+02  0.39538241988E+02 -0.30628891187E+03  0.32362568237E+03  0.00000000000E+00 0.  1.
<mgrwt>
<rscale>  0 0.23733376E+04</rscale>
<asrwt>0</asrwt>
<pdfrwt beam="1">  1        2 0.25600279E+00 0.23733376E+04</pdfrwt>
<pdfrwt beam="2">  1       -1 0.13019300E+00 0.23733376E+04</pdfrwt>
<totfact> 0.53249381E+00</totfact>
</mgrwt>
</event>
<event>
12    6  0.1510140E-007  0.1466355E+04  0.7818608E-02  0.8907140E-01
         -1   -1    0    0    0  501 -0.00000000000E+00  0.00000000000E+00  0.56232026471E+03  0.56232026471E+03  0.00000000000E+00 0.  1.
          2   -1    0    0  501    0  0.00000000000E+00 -0.00000000000E+00 -0.95594891337E+03  0.95594891337E+03  0.00000000000E+00 0. -1.
         24    2    1    2    0    0 -0.61931751106E+02  0.23667258459E+03  0.27266619921E+03  0.37476434321E+03  0.79069606399E+02 0.  0.
        254    2    1    2    0    0  0.61931751106E+02 -0.23667258459E+03 -0.66629484786E+03  0.11435048349E+04  0.89655174361E+03 0.  0.
         23    2    4    4    0    0  0.24751054406E+03 -0.44204075565E+03 -0.12856034060E+03  0.53055247873E+03  0.91086071593E+02 0.  0.
         23    2    4    4    0    0 -0.18557879295E+03  0.20536817106E+03 -0.53773450727E+03  0.61295235613E+03  0.99682578753E+02 0.  0.
          2    1    3    3  502    0 -0.29105034538E+02  0.85245185994E+02  0.48624761811E+02  0.10236313903E+03  0.00000000000E+00 0. -1.
         -1    1    3    3    0  502 -0.32826716568E+02  0.15142739860E+03  0.22404143740E+03  0.27240120418E+03  0.00000000000E+00 0.  1.
         11    1    5    5    0    0  0.23396155923E+03 -0.34925787540E+03 -0.95170623034E+02  0.43101800683E+03  0.00000000000E+00 0.  1.
        -11    1    5    5    0    0  0.13548984831E+02 -0.92782880247E+02 -0.33389717562E+02  0.99534471897E+02  0.00000000000E+00 0. -1.
          4    1    6    6  503    0  0.50835228514E+01 -0.60507108294E+01 -0.64627428474E+01  0.10208836919E+02  0.00000000000E+00 0. -1.
         -4    1    6    6    0  503 -0.19066231580E+03  0.21141888188E+03 -0.53127176442E+03  0.60274351922E+03  0.00000000000E+00 0.  1.
<mgrwt>
<rscale>  0 0.14663553E+04</rscale>
<asrwt>0</asrwt>
<pdfrwt beam="1">  1        2 0.14706906E+00 0.14663553E+04</pdfrwt>
<pdfrwt beam="2">  1       -1 0.86510810E-01 0.14663553E+04</pdfrwt>
<totfact> 0.39193077E+01</totfact>
</mgrwt>
</event>
<event>
12    6  0.1510140E-007  0.1410355E+04  0.7818608E-02  0.8946357E-01
         -3   -1    0    0    0  501 -0.00000000000E+00  0.00000000000E+00  0.18810912074E+03  0.18810912074E+03  0.00000000000E+00 0.  1.
          2   -1    0    0  501    0  0.00000000000E+00 -0.00000000000E+00 -0.26435459659E+04  0.26435459659E+04  0.00000000000E+00 0. -1.
         24    2    1    2    0    0 -0.29815390443E+03  0.27485900155E+03 -0.80291531115E+03  0.90301957099E+03  0.79549527001E+02 0.  0.
        254    2    1    2    0    0  0.29815390443E+03 -0.27485900155E+03 -0.16525215340E+04  0.19286355156E+04  0.90794510316E+03 0.  0.
         23    2    4    4    0    0 -0.96209161491E+02 -0.22997795419E+03 -0.42507776044E+02  0.26791533020E+03  0.88462709445E+02 0.  0.
         23    2    4    4    0    0  0.39436306592E+03 -0.44881047360E+02 -0.16100137579E+04  0.16607201854E+04  0.91163026146E+02 0.  0.
          4    1    3    3  502    0 -0.25440989427E+03  0.19615539636E+03 -0.66133853557E+03  0.73523465129E+03  0.00000000000E+00 0. -1.
         -3    1    3    3    0  502 -0.43744010157E+02  0.78703605192E+02 -0.14157677558E+03  0.16778491970E+03  0.00000000000E+00 0.  1.
         11    1    5    5    0    0 -0.75003482873E+02 -0.80311601834E+02  0.33867018598E+01  0.10994064572E+03  0.00000000000E+00 0. -1.
        -11    1    5    5    0    0 -0.21205678618E+02 -0.14966635235E+03 -0.45894477904E+02  0.15797468447E+03  0.00000000000E+00 0.  1.
          2    1    6    6  503    0  0.25008668895E+03 -0.68295265897E+02 -0.95188163328E+03  0.98655270467E+03  0.00000000000E+00 0. -1.
         -2    1    6    6    0  503  0.14427637697E+03  0.23414218537E+02 -0.65813212465E+03  0.67416748073E+03  0.00000000000E+00 0.  1.
<mgrwt>
<rscale>  0 0.14103547E+04</rscale>
<asrwt>0</asrwt>
<pdfrwt beam="1">  1        2 0.40669937E+00 0.14103547E+04</pdfrwt>
<pdfrwt beam="2">  1       -3 0.28939866E-01 0.14103547E+04</pdfrwt>
<totfact> 0.21130750E+01</totfact>
</mgrwt>
</event>
<event>
12    6  0.1510140E-007  0.1507552E+04  0.7818608E-02  0.8879447E-01
          2   -1    0    0  501    0  0.00000000000E+00  0.00000000000E+00  0.10809490602E+04  0.10809490602E+04  0.00000000000E+00 0. -1.
         -1   -1    0    0    0  501 -0.00000000000E+00 -0.00000000000E+00 -0.52562883141E+03  0.52562883141E+03  0.00000000000E+00 0.  1.
         24    2    1    2    0    0  0.12214855147E+03  0.14568618557E+03 -0.25911606477E+03  0.33184269177E+03  0.82666219019E+02 0.  0.
        254    2    1    2    0    0 -0.12214855147E+03 -0.14568618557E+03  0.81443629361E+03  0.12747351999E+04  0.96202838846E+03 0.  0.
         23    2    4    4    0    0 -0.18662425652E+03  0.11529270536E+03  0.93588486027E+03  0.96593630155E+03  0.95033919929E+02 0.  0.
         23    2    4    4    0    0  0.64475705055E+02 -0.26097889093E+03 -0.12144856666E+03  0.30879889834E+03  0.91323092455E+02 0.  0.
          2    1    3    3  502    0  0.16286960679E+02  0.21150190119E+02 -0.10085897639E+03  0.10433182040E+03  0.00000000000E+00 0. -1.
         -1    1    3    3    0  502  0.10586159079E+03  0.12453599545E+03 -0.15825708838E+03  0.22751087137E+03  0.00000000000E+00 0.  1.
         11    1    5    5    0    0 -0.91084203926E+02  0.43236485245E+02  0.24785932972E+03  0.26758171311E+03  0.00000000000E+00 0.  1.
        -11    1    5    5    0    0 -0.95540052598E+02  0.72056220117E+02  0.68802553055E+03  0.69835458845E+03  0.00000000000E+00 0. -1.
          1    1    6    6  503    0  0.46442933190E+02 -0.25841905545E+03 -0.10074469704E+03  0.28122384011E+03  0.00000000000E+00 0. -1.
         -1    1    6    6    0  503  0.18032771866E+02 -0.25598354792E+01 -0.20703869626E+02  0.27575058229E+02  0.00000000000E+00 0.  1.
<mgrwt>
<rscale>  0 0.15075516E+04</rscale>
<asrwt>0</asrwt>
<pdfrwt beam="1">  1        2 0.16629985E+00 0.15075516E+04</pdfrwt>
<pdfrwt beam="2">  1       -1 0.80865974E-01 0.15075516E+04</pdfrwt>
<totfact> 0.37596480E+01</totfact>
</mgrwt>
</event>
<event>
12    6  0.1510140E-007  0.1644162E+04  0.7818608E-02  0.8793868E-01
          2   -1    0    0  501    0  0.00000000000E+00  0.00000000000E+00  0.78909952158E+03  0.78909952158E+03  0.00000000000E+00 0. -1.
         -1   -1    0    0    0  501 -0.00000000000E+00 -0.00000000000E+00 -0.85644112264E+03  0.85644112264E+03  0.00000000000E+00 0.  1.
         24    2    1    2    0    0 -0.23710038707E+03  0.13934836431E+03  0.43345235148E+03  0.51984696125E+03  0.82008304043E+02 0.  0.
        254    2    1    2    0    0  0.23710038707E+03 -0.13934836431E+03 -0.50079395254E+03  0.11256936830E+04  0.96992635019E+03 0.  0.
         23    2    4    4    0    0 -0.59461689089E+02 -0.46010866799E+03 -0.48628090313E+03  0.67935924843E+03  0.99117066382E+02 0.  0.
         23    2    4    4    0    0  0.29656207616E+03  0.32076030368E+03 -0.14513049406E+02  0.44633443453E+03  0.90374561751E+02 0.  0.
          4    1    3    3  502    0 -0.18545520745E+03  0.13529648463E+03  0.38851804126E+03  0.45127047445E+03  0.00000000000E+00 0. -1.
         -3    1    3    3    0  502 -0.51645179620E+02  0.40518796712E+01  0.44934310223E+02  0.68576486802E+02  0.00000000000E+00 0.  1.
         11    1    5    5    0    0 -0.10339521522E+02 -0.34777492871E+03 -0.39579209072E+03  0.52697787982E+03  0.00000000000E+00 0. -1.
        -11    1    5    5    0    0 -0.49122167567E+02 -0.11233373928E+03 -0.90488812408E+02  0.15238136861E+03  0.00000000000E+00 0.  1.
          3    1    6    6  503    0  0.29928499304E+03  0.30222964479E+03 -0.50961281912E+01  0.42537070394E+03  0.00000000000E+00 0. -1.
         -3    1    6    6    0  503 -0.27229168752E+01  0.18530658892E+02 -0.94169212147E+01  0.20963730594E+02  0.00000000000E+00 0.  1.
<mgrwt>
<rscale>  0 0.16441621E+04</rscale>
<asrwt>0</asrwt>
<pdfrwt beam="1">  1        2 0.12139993E+00 0.16441621E+04</pdfrwt>
<pdfrwt beam="2">  1       -1 0.13176017E+00 0.16441621E+04</pdfrwt>
<totfact> 0.18763688E+01</totfact>
</mgrwt>
</event>
<event>
12    6  0.1510140E-007  0.1233266E+04  0.7818608E-02  0.9084227E-01
          2   -1    0    0  501    0  0.00000000000E+00  0.00000000000E+00  0.30608388698E+03  0.30608388698E+03  0.00000000000E+00 0. -1.
         -1   -1    0    0    0  501 -0.00000000000E+00 -0.00000000000E+00 -0.12422623303E+04  0.12422623303E+04  0.00000000000E+00 0.  1.
         24    2    1    2    0    0 -0.14644220936E+03  0.12572793125E+03 -0.48543900471E+03  0.52830935458E+03  0.78783967046E+02 0.  0.
        254    2    1    2    0    0  0.14644220936E+03 -0.12572793125E+03 -0.45073943860E+03  0.10200368627E+04  0.89445867784E+03 0.  0.
         23    2    4    4    0    0  0.22209371032E+03 -0.48289999981E+03 -0.24786006228E+03  0.59295580876E+03  0.87429712839E+02 0.  0.
         23    2    4    4    0    0 -0.75651500967E+02  0.35717206857E+03 -0.20287937632E+03  0.42708105393E+03  0.89124346456E+02 0.  0.
          2    1    3    3  502    0 -0.98807673481E+01  0.35638829905E+02 -0.15805136348E+03  0.16232063719E+03  0.00000000000E+00 0. -1.
         -1    1    3    3    0  502 -0.13656144201E+03  0.90089101341E+02 -0.32738764123E+03  0.36598871739E+03  0.00000000000E+00 0.  1.
         11    1    5    5    0    0  0.21567535221E+03 -0.41250893655E+03 -0.23373287725E+03  0.52087478168E+03  0.00000000000E+00 0. -1.
        -11    1    5    5    0    0  0.64183581125E+01 -0.70391063265E+02 -0.14127185034E+02  0.72081027083E+02  0.00000000000E+00 0.  1.
          1    1    6    6  503    0 -0.44410962574E+02  0.33260215896E+03 -0.17426214243E+03  0.37810557259E+03  0.00000000000E+00 0. -1.
         -1    1    6    6    0  503 -0.31240538393E+02  0.24569909607E+02 -0.28617233891E+02  0.48975481343E+02  0.00000000000E+00 0.  1.
<mgrwt>
<rscale>  0 0.12332664E+04</rscale>
<asrwt>0</asrwt>
<pdfrwt beam="1">  1        2 0.47089830E-01 0.12332664E+04</pdfrwt>
<pdfrwt beam="2">  1       -1 0.19111728E+00 0.12332664E+04</pdfrwt>
<totfact> 0.21016776E+01</totfact>
</mgrwt>
</event>
<event>
12    6  0.1510140E-007  0.1197152E+04  0.7818608E-02  0.9115353E-01
         -1   -1    0    0    0  501 -0.00000000000E+00  0.00000000000E+00  0.33887778627E+03  0.33887778627E+03  0.00000000000E+00 0.  1.
          2   -1    0    0  501    0  0.00000000000E+00 -0.00000000000E+00 -0.10572936658E+04  0.10572936658E+04  0.00000000000E+00 0. -1.
         24    2    1    2    0    0 -0.14964366685E+02 -0.20534434609E+03  0.33904779206E+01  0.22198474516E+03  0.82918628798E+02 0.  0.
        254    2    1    2    0    0  0.14964366685E+02  0.20534434609E+03 -0.72180635740E+03  0.11741867069E+04  0.90295059236E+03 0.  0.
         23    2    4    4    0    0 -0.26856091629E+03 -0.15635281299E+03 -0.61264616577E+03  0.69243413495E+03  0.86939858129E+02 0.  0.
         23    2    4    4    0    0  0.28352528297E+03  0.36169715908E+03 -0.10916019163E+03  0.48175257191E+03  0.94647620847E+02 0.  0.
          2    1    3    3  502    0  0.29313885306E+02 -0.57978614272E+02 -0.15957913981E+02  0.66899017955E+02  0.00000000000E+00 0. -1.
         -1    1    3    3    0  502 -0.44278251991E+02 -0.14736573182E+03  0.19348391902E+02  0.15508572721E+03  0.00000000000E+00 0.  1.
         11    1    5    5    0    0 -0.79967459447E+02 -0.30631586896E+02 -0.25519355218E+03  0.26917807816E+03  0.00000000000E+00 0. -1.
        -11    1    5    5    0    0 -0.18859345684E+03 -0.12572122610E+03 -0.35745261359E+03  0.42325605679E+03  0.00000000000E+00 0.  1.
          2    1    6    6  503    0  0.10895853382E+03  0.19336764052E+03 -0.86422708486E+02  0.23818457347E+03  0.00000000000E+00 0.  1.
         -2    1    6    6    0  503  0.17456674915E+03  0.16832951856E+03 -0.22737483144E+02  0.24356799844E+03  0.00000000000E+00 0. -1.
<mgrwt>
<rscale>  0 0.11971522E+04</rscale>
<asrwt>0</asrwt>
<pdfrwt beam="1">  1        2 0.16266056E+00 0.11971522E+04</pdfrwt>
<pdfrwt beam="2">  1       -1 0.52135044E-01 0.11971522E+04</pdfrwt>
<totfact> 0.96570131E+01</totfact>
</mgrwt>
</event>
<event>
12    6  0.1510140E-007  0.1844387E+04  0.7818608E-02  0.8683045E-01
          2   -1    0    0  501    0  0.00000000000E+00  0.00000000000E+00  0.12113397106E+04  0.12113397106E+04  0.00000000000E+00 0. -1.
         -1   -1    0    0    0  501 -0.00000000000E+00 -0.00000000000E+00 -0.70206609978E+03  0.70206609978E+03  0.00000000000E+00 0.  1.
         24    2    1    2    0    0 -0.22020214860E+03  0.12994695338E+03  0.91979137464E+03  0.95784018834E+03  0.77887461083E+02 0.  0.
        254    2    1    2    0    0  0.22020214860E+03 -0.12994695338E+03 -0.41051776380E+03  0.95556562205E+03  0.82413932482E+03 0.  0.
         23    2    4    4    0    0  0.53902566289E+02  0.29105009252E+03 -0.38316851949E+03  0.49273457260E+03  0.91398039913E+02 0.  0.
         23    2    4    4    0    0  0.16629958231E+03 -0.42099704590E+03 -0.27349244317E+02  0.46283104946E+03  0.92577186386E+02 0.  0.
          2    1    3    3  502    0 -0.15603633534E+03  0.10060504193E+03  0.52662018092E+03  0.55838833025E+03  0.00000000000E+00 0. -1.
         -1    1    3    3    0  502 -0.64165813265E+02  0.29341911449E+02  0.39317119372E+03  0.39945185809E+03  0.00000000000E+00 0.  1.
         11    1    5    5    0    0 -0.19193359860E+02  0.46540967026E+02 -0.36141293209E+02  0.61972895279E+02  0.00000000000E+00 0. -1.
        -11    1    5    5    0    0  0.73095926149E+02  0.24450912549E+03 -0.34702722628E+03  0.43076167732E+03  0.00000000000E+00 0.  1.
          2    1    6    6  503    0  0.78410382668E+02 -0.12763034148E+03 -0.44026270265E+02  0.15612816738E+03  0.00000000000E+00 0. -1.
         -2    1    6    6    0  503  0.87889199647E+02 -0.29336670442E+03  0.16677025948E+02  0.30670288208E+03  0.00000000000E+00 0.  1.
<mgrwt>
<rscale>  0 0.18443867E+04</rscale>
<asrwt>0</asrwt>
<pdfrwt beam="1">  1        2 0.18635996E+00 0.18443867E+04</pdfrwt>
<pdfrwt beam="2">  1       -1 0.10801017E+00 0.18443867E+04</pdfrwt>
<totfact> 0.15938880E+01</totfact>
</mgrwt>
</event>
<event>
12    6  0.1510140E-007  0.1204897E+04  0.7818608E-02  0.9108581E-01
          2   -1    0    0  501    0  0.00000000000E+00  0.00000000000E+00  0.99246491977E+03  0.99246491977E+03  0.00000000000E+00 0. -1.
         -1   -1    0    0    0  501 -0.00000000000E+00 -0.00000000000E+00 -0.36569976137E+03  0.36569976137E+03  0.00000000000E+00 0.  1.
         24    2    1    2    0    0 -0.25076895722E+03 -0.83097639779E+01  0.16838315582E+03  0.31243862728E+03  0.79441088644E+02 0.  0.
        254    2    1    2    0    0  0.25076895722E+03  0.83097639779E+01  0.45838200258E+03  0.10457260539E+04  0.90580063885E+03 0.  0.
         23    2    4    4    0    0  0.13711961650E+03 -0.12974328069E+03 -0.24075352603E+03  0.31854194361E+03  0.88722045909E+02 0.  0.
         23    2    4    4    0    0  0.11364934072E+03  0.13805304466E+03  0.69913552861E+03  0.72718411025E+03  0.89618229430E+02 0.  0.
          4    1    3    3  502    0 -0.17120139903E+03 -0.22654665111E+02  0.73239757270E+02  0.18758255496E+03  0.00000000000E+00 0. -1.
         -3    1    3    3    0  502 -0.79567558193E+02  0.14344901134E+02  0.95143398554E+02  0.12485607231E+03  0.00000000000E+00 0.  1.
         11    1    5    5    0    0  0.12530907993E+03 -0.13745733627E+03 -0.24100344739E+03  0.30443315598E+03  0.00000000000E+00 0.  1.
        -11    1    5    5    0    0  0.11810536568E+02  0.77140555866E+01  0.24992135775E+00  0.14108787627E+02  0.00000000000E+00 0. -1.
          4    1    6    6  503    0  0.28446561301E+02  0.88480648798E+02  0.44496735885E+03  0.45457010736E+03  0.00000000000E+00 0.  1.
         -4    1    6    6    0  503  0.85202779421E+02  0.49572395866E+02  0.25416816976E+03  0.27261400289E+03  0.00000000000E+00 0. -1.
<mgrwt>
<rscale>  0 0.12048970E+04</rscale>
<asrwt>0</asrwt>
<pdfrwt beam="1">  1        2 0.15268691E+00 0.12048970E+04</pdfrwt>
<pdfrwt beam="2">  1       -1 0.56261502E-01 0.12048970E+04</pdfrwt>
<totfact> 0.91615421E+01</totfact>
</mgrwt>
</event>
<event>
12    6  0.1510140E-007  0.1867602E+04  0.7818608E-02  0.8671153E-01
         -1   -1    0    0    0  501 -0.00000000000E+00  0.00000000000E+00  0.78862873630E+03  0.78862873630E+03  0.00000000000E+00 0.  1.
          2   -1    0    0  501    0  0.00000000000E+00 -0.00000000000E+00 -0.11056963067E+04  0.11056963067E+04  0.00000000000E+00 0. -1.
         24    2    1    2    0    0 -0.24342389425E+03  0.48355295628E+03 -0.60128007354E+03  0.81330721108E+03  0.82778251615E+02 0.  0.
        254    2    1    2    0    0  0.24342389425E+03 -0.48355295628E+03  0.28421250310E+03  0.10810178320E+04  0.89148424118E+03 0.  0.
         23    2    4    4    0    0 -0.28238608674E+03 -0.44366187207E+02  0.24702373621E+03  0.38884695555E+03  0.92037861951E+02 0.  0.
         23    2    4    4    0    0  0.52580998099E+03 -0.43918676907E+03  0.37188766889E+02  0.69217087641E+03  0.91413147431E+02 0.  0.
          4    1    3    3  502    0 -0.14866226804E+03  0.27635782420E+03 -0.40668301210E+03  0.51367809888E+03  0.00000000000E+00 0. -1.
         -3    1    3    3    0  502 -0.94761626204E+02  0.20719513208E+03 -0.19459706145E+03  0.29962911221E+03  0.00000000000E+00 0.  1.
         11    1    5    5    0    0 -0.18610967250E+03 -0.43172788052E+02  0.10717985178E+03  0.21906213833E+03  0.00000000000E+00 0.  1.
        -11    1    5    5    0    0 -0.96276414247E+02 -0.11933991556E+01  0.13984388443E+03  0.16978481721E+03  0.00000000000E+00 0. -1.
          2    1    6    6  503    0  0.20841935772E+03 -0.22238847913E+03 -0.97816343118E+01  0.30494416652E+03  0.00000000000E+00 0. -1.
         -2    1    6    6    0  503  0.31739062328E+03 -0.21679828994E+03  0.46970401201E+02  0.38722670989E+03  0.00000000000E+00 0.  1.
<mgrwt>
<rscale>  0 0.18676015E+04</rscale>
<asrwt>0</asrwt>
<pdfrwt beam="1">  1        2 0.17010712E+00 0.18676015E+04</pdfrwt>
<pdfrwt beam="2">  1       -1 0.12132750E+00 0.18676015E+04</pdfrwt>
<totfact> 0.13946593E+01</totfact>
</mgrwt>
</event>
<event>
12    6  0.1510140E-007  0.1877186E+04  0.7818608E-02  0.8666296E-01
          2   -1    0    0  501    0  0.00000000000E+00  0.00000000000E+00  0.83954795904E+03  0.83954795904E+03  0.00000000000E+00 0. -1.
         -1   -1    0    0    0  501 -0.00000000000E+00 -0.00000000000E+00 -0.10493232068E+04  0.10493232068E+04  0.00000000000E+00 0.  1.
         24    2    1    2    0    0 -0.22189180602E+03  0.66502738813E+03 -0.19345699196E+03  0.73172285787E+03  0.80593625314E+02 0.  0.
        254    2    1    2    0    0  0.22189180602E+03 -0.66502738813E+03 -0.16318255846E+02  0.11571483080E+04  0.92045017287E+03 0.  0.
         23    2    4    4    0    0 -0.28351037177E+03 -0.70534539011E+02 -0.17908911077E+03  0.35552634236E+03  0.94724961977E+02 0.  0.
         23    2    4    4    0    0  0.50540217779E+03 -0.59449284912E+03  0.16277085492E+03  0.80162196566E+03  0.85148785333E+02 0.  0.
          4    1    3    3  502    0 -0.23240589933E+02  0.27503399385E+02 -0.22392824166E+02  0.42402836843E+02  0.00000000000E+00 0. -1.
         -3    1    3    3    0  502 -0.19865121608E+03  0.63752398875E+03 -0.17106416779E+03  0.68932002102E+03  0.00000000000E+00 0.  1.
         11    1    5    5    0    0 -0.13465369248E+03 -0.43390948843E+02 -0.33149822143E+02  0.14530417079E+03  0.00000000000E+00 0.  1.
        -11    1    5    5    0    0 -0.14885667929E+03 -0.27143590168E+02 -0.14593928863E+03  0.21022217157E+03  0.00000000000E+00 0. -1.
          3    1    6    6  503    0  0.37746277079E+02 -0.17211977457E+02  0.15122048072E+02  0.44155519918E+02  0.00000000000E+00 0. -1.
         -3    1    6    6    0  503  0.46765590071E+03 -0.57728087167E+03  0.14764880685E+03  0.75746644574E+03  0.00000000000E+00 0.  1.
<mgrwt>
<rscale>  0 0.18771864E+04</rscale>
<asrwt>0</asrwt>
<pdfrwt beam="1">  1        2 0.12916123E+00 0.18771864E+04</pdfrwt>
<pdfrwt beam="2">  1       -1 0.16143434E+00 0.18771864E+04</pdfrwt>
<totfact> 0.98522311E+00</totfact>
</mgrwt>
</event>
<event>
12    6  0.1510140E-007  0.1602993E+04  0.7818608E-02  0.8818712E-01
         -1   -1    0    0    0  501 -0.00000000000E+00  0.00000000000E+00  0.10108755615E+04  0.10108755615E+04  0.00000000000E+00 0.  1.
          2   -1    0    0  501    0  0.00000000000E+00 -0.00000000000E+00 -0.63548504684E+03  0.63548504684E+03  0.00000000000E+00 0. -1.
         24    2    1    2    0    0  0.81411766380E+02  0.28053418085E+03 -0.34085107698E+03  0.45615857388E+03  0.81079501184E+02 0.  0.
        254    2    1    2    0    0 -0.81411766380E+02 -0.28053418085E+03  0.71624159159E+03  0.11902020344E+04  0.90457258575E+03 0.  0.
         23    2    4    4    0    0 -0.41645548392E+03  0.71574150158E+02  0.47035984252E+03  0.63890944502E+03  0.91699882322E+02 0.  0.
         23    2    4    4    0    0  0.33504371754E+03 -0.35210833101E+03  0.24588174907E+03  0.55129258941E+03  0.85035964025E+02 0.  0.
          4    1    3    3  502    0  0.73259377812E+02  0.16876875291E+03 -0.16221662630E+03  0.24528363632E+03  0.00000000000E+00 0. -1.
         -3    1    3    3    0  502  0.81523885684E+01  0.11176542794E+03 -0.17863445067E+03  0.21087493756E+03  0.00000000000E+00 0.  1.
         11    1    5    5    0    0 -0.35015004807E+02  0.53711840607E+01  0.87624738122E+02  0.94514522222E+02  0.00000000000E+00 0.  1.
        -11    1    5    5    0    0 -0.38144047912E+03  0.66202966097E+02  0.38273510440E+03  0.54439492280E+03  0.00000000000E+00 0. -1.
          4    1    6    6  503    0  0.22614862270E+03 -0.28751890147E+03  0.19784957434E+03  0.41587831431E+03  0.00000000000E+00 0. -1.
         -4    1    6    6    0  503  0.10889509485E+03 -0.64589429540E+02  0.48032174736E+02  0.13541427510E+03  0.00000000000E+00 0.  1.
<mgrwt>
<rscale>  0 0.16029926E+04</rscale>
<asrwt>0</asrwt>
<pdfrwt beam="1">  1        2 0.97766930E-01 0.16029926E+04</pdfrwt>
<pdfrwt beam="2">  1       -1 0.15551932E+00 0.16029926E+04</pdfrwt>
<totfact> 0.16011818E+01</totfact>
</mgrwt>
</event>
<event>
12    6  0.1510140E-007  0.1818517E+04  0.7818608E-02  0.8696514E-01
          2   -1    0    0  501    0  0.00000000000E+00  0.00000000000E+00  0.11808551352E+04  0.11808551352E+04  0.00000000000E+00 0. -1.
         -1   -1    0    0    0  501 -0.00000000000E+00 -0.00000000000E+00 -0.70012906121E+03  0.70012906121E+03  0.00000000000E+00 0.  1.
         24    2    1    2    0    0 -0.40045070101E+03 -0.44660994852E+03 -0.15670126073E+03  0.62634814184E+03  0.89081421292E+02 0.  0.
        254    2    1    2    0    0  0.40045070101E+03  0.44660994852E+03  0.63742733474E+03  0.12546360546E+04  0.89887530411E+03 0.  0.
         23    2    4    4    0    0 -0.94968159153E+02  0.89125629137E+01 -0.16451479295E+03  0.21128956968E+03  0.92085721611E+02 0.  0.
         23    2    4    4    0    0  0.49541886016E+03  0.43769738561E+03  0.80194212770E+03  0.10433464849E+04  0.91879611566E+02 0.  0.
          2    1    3    3  502    0 -0.17571399898E+03 -0.23596871367E+03 -0.11338211244E+03  0.31529691830E+03  0.00000000000E+00 0. -1.
         -1    1    3    3    0  502 -0.22473670203E+03 -0.21064123485E+03 -0.43319148287E+02  0.31105122354E+03  0.00000000000E+00 0.  1.
         11    1    5    5    0    0 -0.27098705679E+02  0.23494011241E+02 -0.12784659457E+03  0.13278200238E+03  0.00000000000E+00 0. -1.
        -11    1    5    5    0    0 -0.67869453473E+02 -0.14581448328E+02 -0.36668198381E+02  0.78507567295E+02  0.00000000000E+00 0.  1.
          1    1    6    6  503    0  0.20435161602E+03  0.18180151143E+03  0.40385232052E+03  0.48775820784E+03  0.00000000000E+00 0. -1.
         -1    1    6    6    0  503  0.29106724414E+03  0.25589587418E+03  0.39808980718E+03  0.55558827707E+03  0.00000000000E+00 0.  1.
<mgrwt>
<rscale>  0 0.18185170E+04</rscale>
<asrwt>0</asrwt>
<pdfrwt beam="1">  1        2 0.18167002E+00 0.18185170E+04</pdfrwt>
<pdfrwt beam="2">  1       -1 0.10771216E+00 0.18185170E+04</pdfrwt>
<totfact> 0.16768360E+01</totfact>
</mgrwt>
</event>
<event>
12    6  0.1510140E-007  0.1310015E+04  0.7818608E-02  0.9021660E-01
          2   -1    0    0  501    0  0.00000000000E+00  0.00000000000E+00  0.64876680443E+03  0.64876680443E+03  0.00000000000E+00 0. -1.
         -1   -1    0    0    0  501 -0.00000000000E+00 -0.00000000000E+00 -0.66130849107E+03  0.66130849107E+03  0.00000000000E+00 0.  1.
         24    2    1    2    0    0 -0.11257490559E+03 -0.98442972015E+02  0.30272212785E+03  0.34533864788E+03  0.72484252924E+02 0.  0.
        254    2    1    2    0    0  0.11257490559E+03  0.98442972015E+02 -0.31526381449E+03  0.96473664763E+03  0.89942281405E+03 0.  0.
         23    2    4    4    0    0 -0.26604879428E+03  0.14809387098E+03 -0.44899911047E+03  0.55039590431E+03  0.92853081424E+02 0.  0.
         23    2    4    4    0    0  0.37862369986E+03 -0.49650898961E+02  0.13373529597E+03  0.41434074331E+03  0.89286081311E+02 0.  0.
          2    1    3    3  502    0 -0.71346244862E+02 -0.98309995745E+02  0.19209695807E+03  0.22728040659E+03  0.00000000000E+00 0. -1.
         -1    1    3    3    0  502 -0.41228660725E+02 -0.13297627023E+00  0.11062516978E+03  0.11805824129E+03  0.00000000000E+00 0.  1.
         11    1    5    5    0    0 -0.19905357936E+03  0.12226280390E+03 -0.40082454190E+03  0.46392977277E+03  0.00000000000E+00 0.  1.
        -11    1    5    5    0    0 -0.66995214913E+02  0.25831067073E+02 -0.48174568569E+02  0.86466131544E+02  0.00000000000E+00 0. -1.
          3    1    6    6  503    0  0.29275789980E+03 -0.46120615665E+02  0.62895327678E+02  0.30296884547E+03  0.00000000000E+00 0. -1.
         -3    1    6    6    0  503  0.85865800065E+02 -0.35302832963E+01  0.70839968293E+02  0.11137189784E+03  0.00000000000E+00 0.  1.
<mgrwt>
<rscale>  0 0.13100153E+04</rscale>
<asrwt>0</asrwt>
<pdfrwt beam="1">  1        2 0.99810277E-01 0.13100153E+04</pdfrwt>
<pdfrwt beam="2">  1       -1 0.10173977E+00 0.13100153E+04</pdfrwt>
<totfact> 0.46223577E+01</totfact>
</mgrwt>
</event>
<event>
12    6  0.1691544E-007  0.2469471E+04  0.7818608E-02  0.8413943E-01
         -1   -1    0    0    0  501 -0.00000000000E+00  0.00000000000E+00  0.10145540571E+04  0.10145540571E+04  0.00000000000E+00 0.  1.
          2   -1    0    0  501    0  0.00000000000E+00 -0.00000000000E+00 -0.15027009977E+04  0.15027009977E+04  0.00000000000E+00 0. -1.
         24    2    1    2    0    0  0.10477530521E+03  0.92424947813E+02 -0.12874630126E+04  0.12974790845E+04  0.79816856285E+02 0.  0.
        254    2    1    2    0    0 -0.10477530521E+03 -0.92424947813E+02  0.79931607202E+03  0.12197759703E+04  0.91072882857E+03 0.  0.
         23    2    4    4    0    0 -0.44907965236E+02 -0.17035821162E+03  0.97613534255E+03  0.99620121193E+03  0.92401309870E+02 0.  0.
         23    2    4    4    0    0 -0.59867339969E+02  0.77933263811E+02 -0.17681927054E+03  0.22357475837E+03  0.95199402015E+02 0.  0.
          4    1    3    3  502    0  0.11031080169E+03  0.55608006758E+02 -0.10116670942E+04  0.10191815505E+04  0.00000000000E+00 0. -1.
         -3    1    3    3    0  502 -0.55354964886E+01  0.36816941055E+02 -0.27579591840E+03  0.27829753408E+03  0.00000000000E+00 0.  1.
         11    1    5    5    0    0 -0.30172347849E+02 -0.41283760565E+01  0.11012133682E+03  0.11425464055E+03  0.00000000000E+00 0. -1.
        -11    1    5    5    0    0 -0.14735617387E+02 -0.16622983557E+03  0.86601400573E+03  0.88194657138E+03  0.00000000000E+00 0.  1.
          1    1    6    6  503    0  0.23282630237E+02  0.43141217528E+01 -0.47778783327E+02  0.53324522065E+02  0.00000000000E+00 0. -1.
         -1    1    6    6    0  503 -0.83149970207E+02  0.73619142059E+02 -0.12904048721E+03  0.17025023630E+03  0.00000000000E+00 0.  1.
<mgrwt>
<rscale>  0 0.24694707E+04</rscale>
<asrwt>0</asrwt>
<pdfrwt beam="1">  1        2 0.23118477E+00 0.24694707E+04</pdfrwt>
<pdfrwt beam="2">  1       -1 0.15608524E+00 0.24694707E+04</pdfrwt>
<totfact> 0.40329720E+00</totfact>
</mgrwt>
</event>
<event>
12    6  0.1510140E-007  0.2678131E+04  0.7818608E-02  0.8342136E-01
         -1   -1    0    0    0  501 -0.00000000000E+00  0.00000000000E+00  0.97805116821E+03  0.97805116821E+03  0.00000000000E+00 0.  1.
          2   -1    0    0  501    0  0.00000000000E+00 -0.00000000000E+00 -0.18333357314E+04  0.18333357314E+04  0.00000000000E+00 0. -1.
         24    2    1    2    0    0 -0.83080832221E+03  0.26772275007E+03  0.46384157837E+03  0.99177685071E+03  0.80959079856E+02 0.  0.
        254    2    1    2    0    0  0.83080832221E+03 -0.26772275007E+03 -0.13191261416E+04  0.18196100489E+04  0.89942704738E+03 0.  0.
         23    2    4    4    0    0  0.58244981754E+03  0.24835606619E+03 -0.48631842588E+03  0.80475425048E+03  0.10097161361E+03 0.  0.
         23    2    4    4    0    0  0.24835850468E+03 -0.51607881625E+03 -0.83280771573E+03  0.10148557985E+04  0.91347188518E+02 0.  0.
          4    1    3    3  502    0 -0.25411758553E+03  0.55121637181E+02  0.10795216212E+03  0.28154539859E+03  0.00000000000E+00 0. -1.
         -3    1    3    3    0  502 -0.57669073669E+03  0.21260111289E+03  0.35588941625E+03  0.71023145212E+03  0.00000000000E+00 0.  1.
         11    1    5    5    0    0  0.11845216852E+03  0.81322165671E+02 -0.15081288734E+03  0.20829963477E+03  0.00000000000E+00 0.  1.
        -11    1    5    5    0    0  0.46399764902E+03  0.16703390052E+03 -0.33550553854E+03  0.59645461571E+03  0.00000000000E+00 0. -1.
          3    1    6    6  503    0  0.24407110560E+03 -0.45023967241E+03 -0.76159476557E+03  0.91777614599E+03  0.00000000000E+00 0. -1.
         -3    1    6    6    0  503  0.42873990788E+01 -0.65839143846E+02 -0.71212950158E+02  0.97079652469E+02  0.00000000000E+00 0.  1.
<mgrwt>
<rscale>  0 0.26781308E+04</rscale>
<asrwt>0</asrwt>
<pdfrwt beam="1">  1        2 0.28205165E+00 0.26781308E+04</pdfrwt>
<pdfrwt beam="2">  1       -1 0.15046941E+00 0.26781308E+04</pdfrwt>
<totfact> 0.28614111E+00</totfact>
</mgrwt>
</event>
<event>
12    6  0.2425732E-007  0.1965370E+04  0.7818608E-02  0.8622985E-01
          2   -1    0    0  501    0  0.00000000000E+00  0.00000000000E+00  0.19406660470E+04  0.19406660470E+04  0.00000000000E+00 0. -1.
         -1   -1    0    0    0  501 -0.00000000000E+00 -0.00000000000E+00 -0.49759706552E+03  0.49759706552E+03  0.00000000000E+00 0.  1.
         24    2    1    2    0    0  0.72025936996E+03 -0.24015158874E+02  0.97109778970E+03  0.12143109680E+04  0.11031736945E+03 0.  0.
        254    2    1    2    0    0 -0.72025936996E+03  0.24015158874E+02  0.47197119174E+03  0.12239521445E+04  0.86945486267E+03 0.  0.
         23    2    4    4    0    0 -0.88071937863E+03 -0.16290591243E+02  0.52182652113E+03  0.10279020294E+04  0.91365511697E+02 0.  0.
         23    2    4    4    0    0  0.16046000866E+03  0.40305750117E+02 -0.49855329385E+02  0.19605011502E+03  0.92618172399E+02 0.  0.
          2    1    3    3  502    0  0.71496226708E+03 -0.29788169953E+02  0.93517860069E+03  0.11775471938E+04  0.00000000000E+00 0. -1.
         -1    1    3    3    0  502  0.52971028783E+01  0.57730110782E+01  0.35919189003E+02  0.36763774214E+02  0.00000000000E+00 0.  1.
         11    1    5    5    0    0 -0.25665721361E+03  0.29842860039E+02  0.12615666454E+03  0.28753960702E+03  0.00000000000E+00 0.  1.
        -11    1    5    5    0    0 -0.62406216501E+03 -0.46133451282E+02  0.39566985659E+03  0.74036242242E+03  0.00000000000E+00 0. -1.
          3    1    6    6  503    0  0.10112818028E+03  0.64959802800E+02 -0.53785589879E+02  0.13167981814E+03  0.00000000000E+00 0. -1.
         -3    1    6    6    0  503  0.59331828380E+02 -0.24654052683E+02  0.39302604941E+01  0.64370296878E+02  0.00000000000E+00 0.  1.
<mgrwt>
<rscale>  0 0.19653699E+04</rscale>
<asrwt>0</asrwt>
<pdfrwt beam="1">  1        2 0.29856400E+00 0.19653699E+04</pdfrwt>
<pdfrwt beam="2">  1       -1 0.76553396E-01 0.19653699E+04</pdfrwt>
<totfact> 0.13095428E+01</totfact>
</mgrwt>
</event>
<event>
12    6  0.1510140E-007  0.3845539E+04  0.7818608E-02  0.8036452E-01
         -1   -1    0    0    0  501 -0.00000000000E+00  0.00000000000E+00  0.18265960522E+04  0.18265960522E+04  0.00000000000E+00 0.  1.
          2   -1    0    0  501    0  0.00000000000E+00 -0.00000000000E+00 -0.20240065935E+04  0.20240065935E+04  0.00000000000E+00 0. -1.
         24    2    1    2    0    0 -0.77134472414E+03  0.13685470969E+04  0.78866950091E+03  0.17596005938E+04  0.79377755580E+02 0.  0.
        254    2    1    2    0    0  0.77134472414E+03 -0.13685470969E+04 -0.98608004217E+03  0.20910020519E+04  0.96542316722E+03 0.  0.
         23    2    4    4    0    0  0.26966598059E+02 -0.95978043863E+03 -0.34976522052E+03  0.10260498407E+04  0.92395229019E+02 0.  0.
         23    2    4    4    0    0  0.74437812608E+03 -0.40876665824E+03 -0.63631482165E+03  0.10649522112E+04  0.89653134097E+02 0.  0.
          4    1    3    3  502    0 -0.12357075397E+03  0.27401087905E+03  0.16861978550E+03  0.34465101935E+03  0.00000000000E+00 0. -1.
         -3    1    3    3    0  502 -0.64777397017E+03  0.10945362178E+04  0.62004971540E+03  0.14149495744E+04  0.00000000000E+00 0.  1.
         11    1    5    5    0    0 -0.14033963236E+01 -0.31956644547E+03 -0.71888551135E+02  0.32755556228E+03  0.00000000000E+00 0. -1.
        -11    1    5    5    0    0  0.28369994383E+02 -0.64021399316E+03 -0.27787666938E+03  0.69849427844E+03  0.00000000000E+00 0.  1.
          3    1    6    6  503    0  0.11475123927E+03 -0.10179762061E+03 -0.10877136223E+03  0.18804736562E+03  0.00000000000E+00 0. -1.
         -3    1    6    6    0  503  0.62962688681E+03 -0.30696903764E+03 -0.52754345942E+03  0.87690484560E+03  0.00000000000E+00 0.  1.
<mgrwt>
<rscale>  0 0.38455389E+04</rscale>
<asrwt>0</asrwt>
<pdfrwt beam="1">  1        2 0.31138563E+00 0.38455389E+04</pdfrwt>
<pdfrwt beam="2">  1       -1 0.28101478E+00 0.38455389E+04</pdfrwt>
<totfact> 0.25809560E-01</totfact>
</mgrwt>
</event>
<event>
12    6  0.1510140E-007  0.2030851E+04  0.7818608E-02  0.8592331E-01
          2   -1    0    0  501    0  0.00000000000E+00  0.00000000000E+00  0.15144254633E+04  0.15144254633E+04  0.00000000000E+00 0. -1.
         -3   -1    0    0    0  501 -0.00000000000E+00 -0.00000000000E+00 -0.68084476456E+03  0.68084476456E+03  0.00000000000E+00 0.  1.
         24    2    1    2    0    0  0.40631229725E+03 -0.68235514803E+03  0.30932643239E+03  0.85704764554E+03  0.90275101850E+02 0.  0.
        254    2    1    2    0    0 -0.40631229725E+03  0.68235514803E+03  0.52425426638E+03  0.13382225824E+04  0.94090324325E+03 0.  0.
         23    2    4    4    0    0  0.13790087458E+03  0.42589432031E+03 -0.98449472450E+02  0.46774750911E+03  0.93235242099E+02 0.  0.
         23    2    4    4    0    0 -0.54421317183E+03  0.25646082772E+03  0.62270373883E+03  0.87047507324E+03  0.89592266573E+02 0.  0.
          2    1    3    3  502    0  0.14732783622E+03 -0.21036229884E+03  0.14092924832E+03  0.29294852983E+03  0.00000000000E+00 0. -1.
         -1    1    3    3    0  502  0.25898446103E+03 -0.47199284919E+03  0.16839718407E+03  0.56409911571E+03  0.00000000000E+00 0.  1.
         11    1    5    5    0    0  0.12560167578E+03  0.41812099781E+03 -0.10875150436E+03  0.44991981449E+03  0.00000000000E+00 0.  1.
        -11    1    5    5    0    0  0.12299198809E+02  0.77733225004E+01  0.10302031912E+02  0.17827694623E+02  0.00000000000E+00 0. -1.
          4    1    6    6  503    0 -0.49776381914E+03  0.21345556574E+03  0.58300564077E+03  0.79575604011E+03  0.00000000000E+00 0.  1.
         -4    1    6    6    0  503 -0.46449352685E+02  0.43005261977E+02  0.39698098056E+02  0.74719033130E+02  0.00000000000E+00 0. -1.
<mgrwt>
<rscale>  0 0.20308507E+04</rscale>
<asrwt>0</asrwt>
<pdfrwt beam="1">  1        2 0.23298853E+00 0.20308507E+04</pdfrwt>
<pdfrwt beam="2">  1       -3 0.10474535E+00 0.20308507E+04</pdfrwt>
<totfact> 0.57525699E+00</totfact>
</mgrwt>
</event>
<event>
12    6  0.1510140E-007  0.1569499E+04  0.7818608E-02  0.8839508E-01
         -1   -1    0    0    0  501 -0.00000000000E+00  0.00000000000E+00  0.87000373543E+03  0.87000373543E+03  0.00000000000E+00 0.  1.
          2   -1    0    0  501    0  0.00000000000E+00 -0.00000000000E+00 -0.70784937334E+03  0.70784937334E+03  0.00000000000E+00 0. -1.
         24    2    1    2    0    0  0.19968998926E+03 -0.27561067888E+03  0.45319836001E+03  0.57244643883E+03  0.80429059991E+02 0.  0.
        254    2    1    2    0    0 -0.19968998926E+03  0.27561067888E+03 -0.29104399792E+03  0.10054066699E+04  0.90016588756E+03 0.  0.
         23    2    4    4    0    0 -0.52625998652E+03  0.20414535897E+03 -0.31031463399E+02  0.57204848417E+03  0.87473513276E+02 0.  0.
         23    2    4    4    0    0  0.32656999726E+03  0.71465319908E+02 -0.26001253452E+03  0.43335818577E+03  0.91856104890E+02 0.  0.
          4    1    3    3  502    0 -0.34829127210E+00 -0.38579043559E+02  0.37620161030E+02  0.53886365851E+02  0.00000000000E+00 0. -1.
         -3    1    3    3    0  502  0.20003828053E+03 -0.23703163532E+03  0.41557819898E+03  0.51856007298E+03  0.00000000000E+00 0.  1.
         11    1    5    5    0    0 -0.38443616428E+03  0.10833161566E+03 -0.34139509606E+02  0.40086457748E+03  0.00000000000E+00 0. -1.
        -11    1    5    5    0    0 -0.14182382224E+03  0.95813743309E+02  0.31080462070E+01  0.17118390670E+03  0.00000000000E+00 0.  1.
          1    1    6    6  503    0  0.21830337093E+03  0.63889327147E+02 -0.22339556397E+03  0.31881622588E+03  0.00000000000E+00 0. -1.
         -1    1    6    6    0  503  0.10826662633E+03  0.75759927611E+01 -0.36616970551E+02  0.11454195989E+03  0.00000000000E+00 0.  1.
<mgrwt>
<rscale>  0 0.15694988E+04</rscale>
<asrwt>0</asrwt>
<pdfrwt beam="1">  1        2 0.10889990E+00 0.15694988E+04</pdfrwt>
<pdfrwt beam="2">  1       -1 0.13384673E+00 0.15694988E+04</pdfrwt>
<totfact> 0.20884686E+01</totfact>
</mgrwt>
</event>
<event>
12    6  0.1510140E-007  0.1637041E+04  0.7818608E-02  0.8798110E-01
          2   -1    0    0  501    0  0.00000000000E+00  0.00000000000E+00  0.64391574476E+03  0.64391574476E+03  0.00000000000E+00 0. -1.
         -1   -1    0    0    0  501 -0.00000000000E+00 -0.00000000000E+00 -0.10404714353E+04  0.10404714353E+04  0.00000000000E+00 0.  1.
         24    2    1    2    0    0  0.21826377202E+03 -0.13675047220E+02 -0.68553952951E+03  0.72681254904E+03  0.10230324450E+03 0.  0.
        254    2    1    2    0    0 -0.21826377202E+03  0.13675047220E+02  0.28898383899E+03  0.95757463100E+03  0.88634724214E+03 0.  0.
         23    2    4    4    0    0 -0.66671426067E+01 -0.52691399291E+02 -0.30203419500E+03  0.31985521096E+03  0.90894811073E+02 0.  0.
         23    2    4    4    0    0 -0.21159662941E+03  0.66366446511E+02  0.59101803399E+03  0.63771942003E+03  0.90587545424E+02 0.  0.
          2    1    3    3  502    0  0.85642552910E+02  0.40435164010E+02 -0.21452817410E+03  0.23450370326E+03  0.00000000000E+00 0. -1.
         -1    1    3    3    0  502  0.13262121911E+03 -0.54110211230E+02 -0.47101135540E+03  0.49230884578E+03  0.00000000000E+00 0.  1.
         11    1    5    5    0    0 -0.48807702752E+00 -0.28197402214E+02 -0.29087481971E+03  0.29223875932E+03  0.00000000000E+00 0.  1.
        -11    1    5    5    0    0 -0.61790655792E+01 -0.24493997077E+02 -0.11159375295E+02  0.27616451641E+02  0.00000000000E+00 0. -1.
          1    1    6    6  503    0 -0.36040278921E+02  0.94836528799E+00  0.21067782772E+03  0.21374037568E+03  0.00000000000E+00 0. -1.
         -1    1    6    6    0  503 -0.17555635049E+03  0.65418081223E+02  0.38034020627E+03  0.42397904435E+03  0.00000000000E+00 0.  1.
<mgrwt>
<rscale>  0 0.16370412E+04</rscale>
<asrwt>0</asrwt>
<pdfrwt beam="1">  1        2 0.99063963E-01 0.16370412E+04</pdfrwt>
<pdfrwt beam="2">  1       -1 0.16007252E+00 0.16370412E+04</pdfrwt>
<totfact> 0.14501928E+01</totfact>
</mgrwt>
</event>
<event>
12    6  0.1510140E-007  0.2035735E+04  0.7818608E-02  0.8590093E-01
         -1   -1    0    0    0  501 -0.00000000000E+00  0.00000000000E+00  0.10039008628E+04  0.10039008628E+04  0.00000000000E+00 0.  1.
          2   -1    0    0  501    0  0.00000000000E+00 -0.00000000000E+00 -0.10320280966E+04  0.10320280966E+04  0.00000000000E+00 0. -1.
         24    2    1    2    0    0 -0.16988089047E+03 -0.15197775038E+03  0.77556414752E+03  0.81126421655E+03  0.68506412681E+02 0.  0.
        254    2    1    2    0    0  0.16988089047E+03  0.15197775038E+03 -0.80369138127E+03  0.12246647428E+04  0.89550384836E+03 0.  0.
         23    2    4    4    0    0 -0.12153806284E+03  0.28935795794E+01 -0.86612825410E+03  0.87943292769E+03  0.91892590736E+02 0.  0.
         23    2    4    4    0    0  0.29141895332E+03  0.14908417080E+03  0.62436872828E+02  0.34523181513E+03  0.90197265788E+02 0.  0.
          2    1    3    3  502    0 -0.29903357365E+02 -0.68921570208E+02  0.25702053345E+03  0.26777592916E+03  0.00000000000E+00 0. -1.
         -1    1    3    3    0  502 -0.13997753311E+03 -0.83056180173E+02  0.51854361407E+03  0.54348828739E+03  0.00000000000E+00 0.  1.
         11    1    5    5    0    0 -0.68866441765E+02 -0.38024444060E+02 -0.33390115790E+03  0.34304289585E+03  0.00000000000E+00 0. -1.
        -11    1    5    5    0    0 -0.52671621079E+02  0.40918023640E+02 -0.53222709620E+03  0.53639003184E+03  0.00000000000E+00 0.  1.
          1    1    6    6  503    0  0.27373016306E+03  0.12233508372E+03  0.32882097773E+02  0.30162113194E+03  0.00000000000E+00 0. -1.
         -1    1    6    6    0  503  0.17688790262E+02  0.26749087077E+02  0.29554775056E+02  0.43610683198E+02  0.00000000000E+00 0.  1.
<mgrwt>
<rscale>  0 0.20357347E+04</rscale>
<asrwt>0</asrwt>
<pdfrwt beam="1">  1        2 0.15877355E+00 0.20357347E+04</pdfrwt>
<pdfrwt beam="2">  1       -1 0.15444629E+00 0.20357347E+04</pdfrwt>
<totfact> 0.81825384E+00</totfact>
</mgrwt>
</event>
<event>
12    6  0.1510140E-007  0.1104227E+04  0.7818608E-02  0.9201082E-01
         -1   -1    0    0    0  501 -0.00000000000E+00  0.00000000000E+00  0.36019540823E+03  0.36019540823E+03  0.00000000000E+00 0.  1.
          2   -1    0    0  501    0  0.00000000000E+00 -0.00000000000E+00 -0.84628897404E+03  0.84628897404E+03  0.00000000000E+00 0. -1.
         24    2    1    2    0    0 -0.15447813549E+03 -0.43686319729E+02 -0.24247214021E+02  0.18082655269E+03  0.79613603693E+02 0.  0.
        254    2    1    2    0    0  0.15447813549E+03  0.43686319729E+02 -0.46184635178E+03  0.10256578296E+04  0.90160963940E+03 0.  0.
         23    2    4    4    0    0  0.27351908807E+03 -0.21869660229E+03  0.11045278134E+03  0.37847744124E+03  0.91675848660E+02 0.  0.
         23    2    4    4    0    0 -0.11904095258E+03  0.26238292202E+03 -0.57229913312E+03  0.64718038834E+03  0.91107689716E+02 0.  0.
          4    1    3    3  502    0 -0.15739585683E+00 -0.65730018024E+01  0.15815484691E+02  0.17127716782E+02  0.00000000000E+00 0. -1.
         -3    1    3    3    0  502 -0.15432073964E+03 -0.37113317927E+02 -0.40062698713E+02  0.16369883591E+03  0.00000000000E+00 0.  1.
         11    1    5    5    0    0  0.23940071927E+03 -0.18932178810E+03  0.60358378089E+02  0.31112469789E+03  0.00000000000E+00 0. -1.
        -11    1    5    5    0    0  0.34118368807E+02 -0.29374814189E+02  0.50094403254E+02  0.67352743344E+02  0.00000000000E+00 0.  1.
          3    1    6    6  503    0 -0.12691859996E+03  0.19302498772E+03 -0.41209088776E+03  0.47242552500E+03  0.00000000000E+00 0. -1.
         -3    1    6    6    0  503  0.78776473837E+01  0.69357934303E+02 -0.16020824536E+03  0.17475486334E+03  0.00000000000E+00 0.  1.
<mgrwt>
<rscale>  0 0.11042272E+04</rscale>
<asrwt>0</asrwt>
<pdfrwt beam="1">  1        2 0.13019830E+00 0.11042272E+04</pdfrwt>
<pdfrwt beam="2">  1       -1 0.55414679E-01 0.11042272E+04</pdfrwt>
<totfact> 0.11908193E+02</totfact>
</mgrwt>
</event>
<event>
12    6  0.1510140E-007  0.1078862E+04  0.7818608E-02  0.9226043E-01
          2   -1    0    0  501    0  0.00000000000E+00  0.00000000000E+00  0.13141008065E+04  0.13141008065E+04  0.00000000000E+00 0. -1.
         -1   -1    0    0    0  501 -0.00000000000E+00 -0.00000000000E+00 -0.22143342890E+03  0.22143342890E+03  0.00000000000E+00 0.  1.
         24    2    1    2    0    0 -0.13960501935E+02  0.14179199185E+03  0.15427022863E+03  0.22491838803E+03  0.80555032507E+02 0.  0.
        254    2    1    2    0    0  0.13960501935E+02 -0.14179199185E+03  0.93839714892E+03  0.13106158473E+04  0.90378361659E+03 0.  0.
         23    2    4    4    0    0  0.14049891219E+03 -0.38298066357E+03  0.93346076894E+03  0.10228621148E+04  0.92107359545E+02 0.  0.
         23    2    4    4    0    0 -0.12653841026E+03  0.24118867172E+03  0.49363799809E+01  0.28775373257E+03  0.92703279996E+02 0.  0.
          4    1    3    3  502    0 -0.13581603743E+01  0.38190281197E+02  0.10049075209E+03  0.10751155023E+03  0.00000000000E+00 0. -1.
         -3    1    3    3    0  502 -0.12602341560E+02  0.10360171065E+03  0.53779476541E+02  0.11740683779E+03  0.00000000000E+00 0.  1.
         11    1    5    5    0    0  0.40841253349E+02 -0.14825738444E+03  0.25155418732E+03  0.29483515593E+03  0.00000000000E+00 0.  1.
        -11    1    5    5    0    0  0.99657658846E+02 -0.23472327912E+03  0.68190658162E+03  0.72802695884E+03  0.00000000000E+00 0. -1.
          2    1    6    6  503    0 -0.11160567003E+03  0.20532195925E+03 -0.29865283391E+02  0.23559471065E+03  0.00000000000E+00 0.  1.
         -2    1    6    6    0  503 -0.14932740234E+02  0.35866712466E+02  0.34801663372E+02  0.52159021919E+02  0.00000000000E+00 0. -1.
<mgrwt>
<rscale>  0 0.10788621E+04</rscale>
<asrwt>0</asrwt>
<pdfrwt beam="1">  1        2 0.20216935E+00 0.10788621E+04</pdfrwt>
<pdfrwt beam="2">  1       -1 0.34066682E-01 0.10788621E+04</pdfrwt>
<totfact> 0.14952514E+02</totfact>
</mgrwt>
</event>
<event>
12    6  0.1510140E-007  0.2167898E+04  0.7818608E-02  0.8531910E-01
          2   -1    0    0  501    0  0.00000000000E+00  0.00000000000E+00  0.18663007527E+04  0.18663007527E+04  0.00000000000E+00 0. -1.
         -1   -1    0    0    0  501 -0.00000000000E+00 -0.00000000000E+00 -0.62955848625E+03  0.62955848625E+03  0.00000000000E+00 0.  1.
         24    2    1    2    0    0 -0.85797857785E+03 -0.20018150959E+03  0.71214398441E+03  0.11356334121E+04  0.79462666570E+02 0.  0.
        254    2    1    2    0    0  0.85797857785E+03  0.20018150959E+03  0.52459828204E+03  0.13602258268E+04  0.89376230934E+03 0.  0.
         23    2    4    4    0    0  0.86790851559E+03  0.89610641315E+02  0.67618938209E+02  0.88106525723E+03  0.10202160671E+03 0.  0.
         23    2    4    4    0    0 -0.99299377376E+01  0.11057086828E+03  0.45697934383E+03  0.47916056959E+03  0.91870616541E+02 0.  0.
          4    1    3    3  502    0 -0.95954341750E+02 -0.39380795426E+02  0.59872506797E+02  0.11976142876E+03  0.00000000000E+00 0. -1.
         -3    1    3    3    0  502 -0.76202423610E+03 -0.16080071417E+03  0.65227147761E+03  0.10158719834E+04  0.00000000000E+00 0.  1.
         11    1    5    5    0    0  0.50626339192E+03  0.99651850262E+02  0.57102692606E+02  0.51912795220E+03  0.00000000000E+00 0.  1.
        -11    1    5    5    0    0  0.36164512367E+03 -0.10041208948E+02  0.10516245603E+02  0.36193730503E+03  0.00000000000E+00 0. -1.
          3    1    6    6  503    0  0.23665896581E+02  0.10676802388E+03  0.37064977105E+03  0.38644629428E+03  0.00000000000E+00 0. -1.
         -3    1    6    6    0  503 -0.33595834319E+02  0.38028444009E+01  0.86329572780E+02  0.92714275306E+02  0.00000000000E+00 0.  1.
<mgrwt>
<rscale>  0 0.21678980E+04</rscale>
<asrwt>0</asrwt>
<pdfrwt beam="1">  1        2 0.28712319E+00 0.21678980E+04</pdfrwt>
<pdfrwt beam="2">  1       -1 0.96855152E-01 0.21678980E+04</pdfrwt>
<totfact> 0.84781109E+00</totfact>
</mgrwt>
</event>
<event>
12    6  0.1510140E-007  0.3716923E+04  0.7818608E-02  0.8064222E-01
          2   -1    0    0  501    0  0.00000000000E+00  0.00000000000E+00  0.24547759263E+04  0.24547759263E+04  0.00000000000E+00 0. -1.
         -1   -1    0    0    0  501 -0.00000000000E+00 -0.00000000000E+00 -0.14070035118E+04  0.14070035118E+04  0.00000000000E+00 0.  1.
         24    2    1    2    0    0  0.81877224851E+03 -0.10316149815E+04  0.16849571281E+04  0.21401156838E+04  0.79982197271E+02 0.  0.
        254    2    1    2    0    0 -0.81877224851E+03  0.10316149815E+04 -0.63718471363E+03  0.17216637543E+04  0.90747135413E+03 0.  0.
         23    2    4    4    0    0 -0.31818765825E+03  0.57352532414E+03  0.14734083641E+03  0.67976428698E+03  0.10097267203E+03 0.  0.
         23    2    4    4    0    0 -0.50058459027E+03  0.45808965731E+03 -0.78452555004E+03  0.10418994673E+04  0.98199262236E+02 0.  0.
          4    1    3    3  502    0  0.80397320700E+03 -0.99601479200E+03  0.16210989772E+04  0.20655217930E+04  0.00000000000E+00 0. -1.
         -3    1    3    3    0  502  0.14799041510E+02 -0.35600189449E+02  0.63858150839E+02  0.74593890815E+02  0.00000000000E+00 0.  1.
         11    1    5    5    0    0 -0.32829329043E+02  0.30445696049E+02  0.33225903927E+02  0.55755411801E+02  0.00000000000E+00 0.  1.
        -11    1    5    5    0    0 -0.28535832920E+03  0.54307962809E+03  0.11411493248E+03  0.62400887518E+03  0.00000000000E+00 0. -1.
          2    1    6    6  503    0 -0.46508934282E+03  0.39019588058E+03 -0.67026910930E+03  0.90433489422E+03  0.00000000000E+00 0. -1.
         -2    1    6    6    0  503 -0.35495247451E+02  0.67893776735E+02 -0.11425644073E+03  0.13756457306E+03  0.00000000000E+00 0.  1.
<mgrwt>
<rscale>  0 0.37169226E+04</rscale>
<asrwt>0</asrwt>
<pdfrwt beam="1">  1        2 0.37765783E+00 0.37169226E+04</pdfrwt>
<pdfrwt beam="2">  1       -1 0.21646208E+00 0.37169226E+04</pdfrwt>
<totfact> 0.39432248E-01</totfact>
</mgrwt>
</event>
<event>
12    6  0.1510140E-007  0.1565079E+04  0.7818608E-02  0.8842293E-01
          2   -1    0    0  501    0  0.00000000000E+00  0.00000000000E+00  0.16463791720E+04  0.16463791720E+04  0.00000000000E+00 0. -1.
         -1   -1    0    0    0  501 -0.00000000000E+00 -0.00000000000E+00 -0.37194822188E+03  0.37194822188E+03  0.00000000000E+00 0.  1.
         24    2    1    2    0    0 -0.16548916212E+03  0.44789305258E+03  0.15899274677E+03  0.50987721112E+03  0.81861025910E+02 0.  0.
        254    2    1    2    0    0  0.16548916212E+03 -0.44789305258E+03  0.11154382033E+04  0.15084501827E+04  0.89622805080E+03 0.  0.
         23    2    4    4    0    0 -0.58726383488E+02 -0.99065681776E+02  0.10718796889E+04  0.10819100095E+04  0.91325810315E+02 0.  0.
         23    2    4    4    0    0  0.22421554561E+03 -0.34882737080E+03  0.43558514376E+02  0.42654017325E+03  0.89922353796E+02 0.  0.
          2    1    3    3  502    0 -0.70682523840E+02  0.16011382696E+03  0.18818982188E+02  0.17603014189E+03  0.00000000000E+00 0. -1.
         -1    1    3    3    0  502 -0.94806638278E+02  0.28777922562E+03  0.14017376458E+03  0.33384706923E+03  0.00000000000E+00 0.  1.
         11    1    5    5    0    0  0.32368512581E+01 -0.64602868211E+02  0.30637560646E+03  0.31312939821E+03  0.00000000000E+00 0. -1.
        -11    1    5    5    0    0 -0.61963234746E+02 -0.34462813566E+02  0.76550408246E+03  0.76878061126E+03  0.00000000000E+00 0.  1.
          1    1    6    6  503    0  0.22974269864E+02 -0.30157222984E+02  0.31768613573E+02  0.49462308703E+02  0.00000000000E+00 0. -1.
         -1    1    6    6    0  503  0.20124127574E+03 -0.31867014782E+03  0.11789900803E+02  0.37707786455E+03  0.00000000000E+00 0.  1.
<mgrwt>
<rscale>  0 0.15650787E+04</rscale>
<asrwt>0</asrwt>
<pdfrwt beam="1">  1        2 0.25328910E+00 0.15650787E+04</pdfrwt>
<pdfrwt beam="2">  1       -1 0.57222804E-01 0.15650787E+04</pdfrwt>
<totfact> 0.35585818E+01</totfact>
</mgrwt>
</event>
<event>
12    6  0.1510140E-007  0.1351428E+04  0.7818608E-02  0.8989748E-01
         -1   -1    0    0    0  501 -0.00000000000E+00  0.00000000000E+00  0.26686500078E+03  0.26686500078E+03  0.00000000000E+00 0.  1.
          2   -1    0    0  501    0  0.00000000000E+00 -0.00000000000E+00 -0.17109373001E+04  0.17109373001E+04  0.00000000000E+00 0. -1.
         24    2    1    2    0    0  0.93333146704E+02  0.21593104839E+03 -0.83349306188E+03  0.86949768437E+03  0.77319111452E+02 0.  0.
        254    2    1    2    0    0 -0.93333146704E+02 -0.21593104839E+03 -0.61057923740E+03  0.11083046165E+04  0.89453609418E+03 0.  0.
         23    2    4    4    0    0 -0.40345638715E+03 -0.25742211329E+03 -0.92979055818E+02  0.49562298102E+03  0.89184268491E+02 0.  0.
         23    2    4    4    0    0  0.31012324045E+03  0.41491064898E+02 -0.51760018158E+03  0.61268163545E+03  0.97831005854E+02 0.  0.
          4    1    3    3  502    0  0.87557933158E+02  0.21805654482E+03 -0.75399233133E+03  0.78975913044E+03  0.00000000000E+00 0. -1.
         -3    1    3    3    0  502  0.57752135461E+01 -0.21254964290E+01 -0.79500730545E+02  0.79738553935E+02  0.00000000000E+00 0.  1.
         11    1    5    5    0    0 -0.38982101714E+03 -0.24269745223E+03 -0.10654936585E+03  0.47139712142E+03  0.00000000000E+00 0.  1.
        -11    1    5    5    0    0 -0.13635370011E+02 -0.14724661059E+02  0.13570310031E+02  0.24225859592E+02  0.00000000000E+00 0. -1.
          1    1    6    6  503    0  0.70233916856E+02 -0.31625431209E+02 -0.11922902673E+03  0.14194552403E+03  0.00000000000E+00 0. -1.
         -1    1    6    6    0  503  0.23988932359E+03  0.73116496107E+02 -0.39837115486E+03  0.47073611142E+03  0.00000000000E+00 0.  1.
<mgrwt>
<rscale>  0 0.13514278E+04</rscale>
<asrwt>0</asrwt>
<pdfrwt beam="1">  1        2 0.26322112E+00 0.13514278E+04</pdfrwt>
<pdfrwt beam="2">  1       -1 0.41056155E-01 0.13514278E+04</pdfrwt>
<totfact> 0.62471864E+01</totfact>
</mgrwt>
</event>
<event>
12    6  0.1510140E-007  0.2374761E+04  0.7818608E-02  0.8449013E-01
         -3   -1    0    0    0  501 -0.00000000000E+00  0.00000000000E+00  0.10668835798E+04  0.10668835798E+04  0.00000000000E+00 0.  1.
          4   -1    0    0  501    0  0.00000000000E+00 -0.00000000000E+00 -0.13214871837E+04  0.13214871837E+04  0.00000000000E+00 0. -1.
         24    2    1    2    0    0  0.16374175189E+02  0.25347666656E+03 -0.10944936979E+04  0.11264895949E+04  0.80893871799E+02 0.  0.
        254    2    1    2    0    0 -0.16374175189E+02 -0.25347666656E+03  0.83989009396E+03  0.12618811686E+04  0.90686833648E+03 0.  0.
         23    2    4    4    0    0  0.17138911619E+03  0.24963678530E+03  0.57376738236E+03  0.65487806706E+03  0.89238556304E+02 0.  0.
         23    2    4    4    0    0 -0.18776329138E+03 -0.50311345187E+03  0.26612271160E+03  0.60700310157E+03  0.96193911668E+02 0.  0.
          2    1    3    3  502    0  0.43055683760E+02  0.19098621358E+03 -0.73481280299E+03  0.76044682991E+03  0.00000000000E+00 0. -1.
         -1    1    3    3    0  502 -0.26681508572E+02  0.62490452983E+02 -0.35968089494E+03  0.36604276498E+03  0.00000000000E+00 0.  1.
         11    1    5    5    0    0  0.15321758532E+02  0.33012222684E+02  0.14730638294E+03  0.15173573603E+03  0.00000000000E+00 0. -1.
        -11    1    5    5    0    0  0.15606735766E+03  0.21662456262E+03  0.42646099942E+03  0.50314233104E+03  0.00000000000E+00 0.  1.
          3    1    6    6  503    0 -0.96564847793E+02 -0.15199106480E+03  0.60248072309E+02  0.18988386932E+03  0.00000000000E+00 0. -1.
         -3    1    6    6    0  503 -0.91198443587E+02 -0.35112238707E+03  0.20587463929E+03  0.41711923225E+03  0.00000000000E+00 0.  1.
<mgrwt>
<rscale>  0 0.23747614E+04</rscale>
<asrwt>0</asrwt>
<pdfrwt beam="1">  1        4 0.20330572E+00 0.23747614E+04</pdfrwt>
<pdfrwt beam="2">  1       -3 0.16413594E+00 0.23747614E+04</pdfrwt>
<totfact> 0.65335481E-02</totfact>
</mgrwt>
</event>
<event>
12    6  0.1510140E-007  0.2404259E+04  0.7818608E-02  0.8437911E-01
          2   -1    0    0  501    0  0.00000000000E+00  0.00000000000E+00  0.20384126511E+04  0.20384126511E+04  0.00000000000E+00 0. -1.
         -1   -1    0    0    0  501 -0.00000000000E+00 -0.00000000000E+00 -0.70894125690E+03  0.70894125690E+03  0.00000000000E+00 0.  1.
         24    2    1    2    0    0 -0.55748105190E+03  0.36017401647E+03  0.14813447988E+04  0.16252666658E+04  0.81233470329E+02 0.  0.
        254    2    1    2    0    0  0.55748105190E+03 -0.36017401647E+03 -0.15187340458E+03  0.11220872422E+04  0.89191019880E+03 0.  0.
         23    2    4    4    0    0  0.53889800171E+03 -0.46942345710E+02  0.25114805079E+03  0.60329421433E+03  0.90961121154E+02 0.  0.
         23    2    4    4    0    0  0.18583050182E+02 -0.31323167076E+03 -0.40302145536E+03  0.51879302787E+03  0.90887309119E+02 0.  0.
          2    1    3    3  502    0 -0.16429622747E+03  0.10286525530E+03  0.52680832219E+03  0.56133904143E+03  0.00000000000E+00 0. -1.
         -1    1    3    3    0  502 -0.39318482443E+03  0.25730876117E+03  0.95453647658E+03  0.10639276243E+04  0.00000000000E+00 0.  1.
         11    1    5    5    0    0  0.41826216737E+03 -0.57525667391E+02  0.22859578436E+03  0.48011298221E+03  0.00000000000E+00 0. -1.
        -11    1    5    5    0    0  0.12063583435E+03  0.10583321681E+02  0.22552266428E+02  0.12318123212E+03  0.00000000000E+00 0.  1.
          1    1    6    6  503    0  0.40274359927E+02 -0.20427558124E+03 -0.31240106193E+03  0.37542637181E+03  0.00000000000E+00 0. -1.
         -1    1    6    6    0  503 -0.21691309745E+02 -0.10895608952E+03 -0.90620393436E+02  0.14336665605E+03  0.00000000000E+00 0.  1.
<mgrwt>
<rscale>  0 0.24042586E+04</rscale>
<asrwt>0</asrwt>
<pdfrwt beam="1">  1        2 0.31360194E+00 0.24042586E+04</pdfrwt>
<pdfrwt beam="2">  1       -1 0.10906789E+00 0.24042586E+04</pdfrwt>
<totfact> 0.50655412E+00</totfact>
</mgrwt>
</event>
<event>
12    6  0.1510140E-007  0.1413573E+04  0.7818608E-02  0.8944052E-01
         -1   -1    0    0    0  501 -0.00000000000E+00  0.00000000000E+00  0.36195053566E+03  0.36195053566E+03  0.00000000000E+00 0.  1.
          2   -1    0    0  501    0  0.00000000000E+00 -0.00000000000E+00 -0.13801536860E+04  0.13801536860E+04  0.00000000000E+00 0. -1.
         24    2    1    2    0    0  0.15568615312E+03 -0.14075878783E+03 -0.82666991259E+03  0.85622363948E+03  0.75396033044E+02 0.  0.
        254    2    1    2    0    0 -0.15568615312E+03  0.14075878783E+03 -0.19153323775E+03  0.88588058219E+03  0.83907580713E+03 0.  0.
         23    2    4    4    0    0 -0.13832957366E+03  0.34488785163E+03  0.20261370536E+03  0.43268577421E+03  0.89899746716E+02 0.  0.
         23    2    4    4    0    0 -0.17356579466E+02 -0.20412906379E+03 -0.39414694311E+03  0.45319480797E+03  0.89798639597E+02 0.  0.
          2    1    3    3  502    0  0.38389066667E+02 -0.82299419747E+02 -0.29651254100E+03  0.31010740382E+03  0.00000000000E+00 0. -1.
         -1    1    3    3    0  502  0.11729708646E+03 -0.58459368088E+02 -0.53015737159E+03  0.54611623567E+03  0.00000000000E+00 0.  1.
         11    1    5    5    0    0 -0.72967531268E+02  0.20139548023E+03  0.66238452559E+02  0.22421403317E+03  0.00000000000E+00 0.  1.
        -11    1    5    5    0    0 -0.65362042388E+02  0.14349237140E+03  0.13637525280E+03  0.20847174104E+03  0.00000000000E+00 0. -1.
          1    1    6    6  503    0 -0.42812001613E+01  0.89835045553E+01 -0.13761202802E+02  0.16982424193E+02  0.00000000000E+00 0. -1.
         -1    1    6    6    0  503 -0.13075379305E+02 -0.21311256835E+03 -0.38038574031E+03  0.43621238378E+03  0.00000000000E+00 0.  1.
<mgrwt>
<rscale>  0 0.14135733E+04</rscale>
<asrwt>0</asrwt>
<pdfrwt beam="1">  1        2 0.21233133E+00 0.14135733E+04</pdfrwt>
<pdfrwt beam="2">  1       -1 0.55684698E-01 0.14135733E+04</pdfrwt>
<totfact> 0.53690306E+01</totfact>
</mgrwt>
</event>
<event>
12    6  0.1510140E-007  0.1857126E+04  0.7818608E-02  0.8676497E-01
         -1   -1    0    0    0  501 -0.00000000000E+00  0.00000000000E+00  0.42377746542E+03  0.42377746542E+03  0.00000000000E+00 0.  1.
          2   -1    0    0  501    0  0.00000000000E+00 -0.00000000000E+00 -0.20346268782E+04  0.20346268782E+04  0.00000000000E+00 0. -1.
         24    2    1    2    0    0 -0.28144399636E+02  0.70231487557E+03 -0.73604637723E+03  0.10208709431E+04  0.79843104094E+02 0.  0.
        254    2    1    2    0    0  0.28144399636E+02 -0.70231487557E+03 -0.87480303552E+03  0.14375334005E+04  0.89843399036E+03 0.  0.
         23    2    4    4    0    0 -0.18124319801E+03 -0.31034071269E+03 -0.91150769239E+03  0.98353725970E+03  0.85666873113E+02 0.  0.
         23    2    4    4    0    0  0.20938759764E+03 -0.39197416288E+03  0.36704656871E+02  0.45399614084E+03  0.85313267714E+02 0.  0.
          4    1    3    3  502    0  0.13976622421E+02  0.51840713125E+03 -0.53085451578E+03  0.74212385531E+03  0.00000000000E+00 0. -1.
         -3    1    3    3    0  502 -0.42121022057E+02  0.18390774433E+03 -0.20519186146E+03  0.27874708775E+03  0.00000000000E+00 0.  1.
         11    1    5    5    0    0 -0.17651806220E+03 -0.27302879515E+03 -0.86263078066E+03  0.92186507311E+03  0.00000000000E+00 0.  1.
        -11    1    5    5    0    0 -0.47251358048E+01 -0.37311917544E+02 -0.48876911730E+02  0.61672186595E+02  0.00000000000E+00 0. -1.
          3    1    6    6  503    0  0.15988759530E+02 -0.59459896187E+02 -0.20936454088E+02  0.65034258631E+02  0.00000000000E+00 0. -1.
         -3    1    6    6    0  503  0.19339883811E+03 -0.33251426669E+03  0.57641110960E+02  0.38896188221E+03  0.00000000000E+00 0.  1.
<mgrwt>
<rscale>  0 0.18571258E+04</rscale>
<asrwt>0</asrwt>
<pdfrwt beam="1">  1        2 0.31301951E+00 0.18571258E+04</pdfrwt>
<pdfrwt beam="2">  1       -1 0.65196535E-01 0.18571258E+04</pdfrwt>
<totfact> 0.16312562E+01</totfact>
</mgrwt>
</event>
<event>
12    6  0.1510140E-007  0.1370829E+04  0.7818608E-02  0.8975209E-01
         -1   -1    0    0    0  501 -0.00000000000E+00  0.00000000000E+00  0.21369660221E+03  0.21369660221E+03  0.00000000000E+00 0.  1.
          2   -1    0    0  501    0  0.00000000000E+00 -0.00000000000E+00 -0.21984120267E+04  0.21984120267E+04  0.00000000000E+00 0. -1.
         24    2    1    2    0    0 -0.90316455357E+02  0.32917661245E+03 -0.10191533336E+04  0.10771717285E+04  0.71492035309E+02 0.  0.
        254    2    1    2    0    0  0.90316455357E+02 -0.32917661245E+03 -0.96556209091E+03  0.13349369004E+04  0.85628971283E+03 0.  0.
         23    2    4    4    0    0 -0.22503601573E+03  0.27585054228E+02  0.10939248765E+02  0.24464263188E+03  0.91259008200E+02 0.  0.
         23    2    4    4    0    0  0.31535247109E+03 -0.35676166668E+03 -0.97650133968E+03  0.10902942685E+04  0.91981833535E+02 0.  0.
          4    1    3    3  502    0 -0.47983961266E+02  0.21194196177E+03 -0.74435732624E+03  0.77542871034E+03  0.00000000000E+00 0. -1.
         -1    1    3    3    0  502 -0.42332494090E+02  0.11723465069E+03 -0.27479600734E+03  0.30174301819E+03  0.00000000000E+00 0.  1.
         11    1    5    5    0    0 -0.95667406743E+02  0.15177051374E+02 -0.40341842180E+02  0.10492883222E+03  0.00000000000E+00 0. -1.
        -11    1    5    5    0    0 -0.12936860899E+03  0.12408002854E+02  0.51281090945E+02  0.13971379966E+03  0.00000000000E+00 0.  1.
          1    1    6    6  503    0  0.12034253488E+03 -0.17705119881E+03 -0.52022891053E+03  0.56255450585E+03  0.00000000000E+00 0. -1.
         -1    1    6    6    0  503  0.19500993621E+03 -0.17971046787E+03 -0.45627242914E+03  0.52773976265E+03  0.00000000000E+00 0.  1.
<mgrwt>
<rscale>  0 0.13708292E+04</rscale>
<asrwt>0</asrwt>
<pdfrwt beam="1">  1        2 0.33821723E+00 0.13708292E+04</pdfrwt>
<pdfrwt beam="2">  1       -1 0.32876401E-01 0.13708292E+04</pdfrwt>
<totfact> 0.49971610E+01</totfact>
</mgrwt>
</event>
<event>
12    6  0.1510140E-007  0.1367268E+04  0.7818608E-02  0.8977858E-01
          2   -1    0    0  501    0  0.00000000000E+00  0.00000000000E+00  0.11363520554E+04  0.11363520554E+04  0.00000000000E+00 0. -1.
         -1   -1    0    0    0  501 -0.00000000000E+00 -0.00000000000E+00 -0.41127709962E+03  0.41127709962E+03  0.00000000000E+00 0.  1.
         24    2    1    2    0    0 -0.58845123372E+01  0.12993428604E+02 -0.22679178160E+03  0.24215822457E+03  0.83681759380E+02 0.  0.
        254    2    1    2    0    0  0.58845123372E+01 -0.12993428604E+02  0.95186673733E+03  0.13054709304E+04  0.89330879757E+03 0.  0.
         23    2    4    4    0    0 -0.22926867280E+03 -0.30512467680E+03  0.15858571131E+03  0.42339753354E+03  0.91928509461E+02 0.  0.
         23    2    4    4    0    0  0.23515318514E+03  0.29213124820E+03  0.79328102602E+03  0.88207339686E+03  0.90116616426E+02 0.  0.
          2    1    3    3  502    0 -0.33385548286E+02 -0.14033017220E+02 -0.53339328402E+02  0.64471733039E+02  0.00000000000E+00 0. -1.
         -1    1    3    3    0  502  0.27501035949E+02  0.27026445824E+02 -0.17345245320E+03  0.17768649153E+03  0.00000000000E+00 0.  1.
         11    1    5    5    0    0 -0.25518410164E+02 -0.60851371129E+02 -0.41059417159E+01  0.66113065145E+02  0.00000000000E+00 0.  1.
        -11    1    5    5    0    0 -0.20375026264E+03 -0.24427330567E+03  0.16269165303E+03  0.35728446839E+03  0.00000000000E+00 0. -1.
          1    1    6    6  503    0  0.16465855741E+03  0.17376272343E+03  0.40981556704E+03  0.47461007529E+03  0.00000000000E+00 0. -1.
         -1    1    6    6    0  503  0.70494627730E+02  0.11836852477E+03  0.38346545898E+03  0.40746332157E+03  0.00000000000E+00 0.  1.
<mgrwt>
<rscale>  0 0.13672682E+04</rscale>
<asrwt>0</asrwt>
<pdfrwt beam="1">  1        2 0.17482339E+00 0.13672682E+04</pdfrwt>
<pdfrwt beam="2">  1       -1 0.63273401E-01 0.13672682E+04</pdfrwt>
<totfact> 0.58328994E+01</totfact>
</mgrwt>
</event>
<event>
12    6  0.1510140E-007  0.1339776E+04  0.7818608E-02  0.8998604E-01
         -1   -1    0    0    0  501 -0.00000000000E+00  0.00000000000E+00  0.17362060017E+03  0.17362060017E+03  0.00000000000E+00 0.  1.
          2   -1    0    0  501    0  0.00000000000E+00 -0.00000000000E+00 -0.25846585034E+04  0.25846585034E+04  0.00000000000E+00 0. -1.
         24    2    1    2    0    0 -0.33045770906E+03 -0.23644625976E+01 -0.10091363477E+04  0.10648366526E+04  0.79454642770E+02 0.  0.
        254    2    1    2    0    0  0.33045770906E+03  0.23644625976E+01 -0.14019015555E+04  0.16934424510E+04  0.89062420540E+03 0.  0.
         23    2    4    4    0    0 -0.56047751982E+01 -0.21176070363E+03 -0.12278717279E+04  0.12492333313E+04  0.89671215819E+02 0.  0.
         23    2    4    4    0    0  0.33606248426E+03  0.21412516622E+03 -0.17402982766E+03  0.44420911964E+03  0.90817294162E+02 0.  0.
          4    1    3    3  502    0 -0.16809389429E+02 -0.16055000797E+02 -0.11108081109E+03  0.11348685041E+03  0.00000000000E+00 0. -1.
         -3    1    3    3    0  502 -0.31364831963E+03  0.13690538200E+02 -0.89805553661E+03  0.95134980216E+03  0.00000000000E+00 0.  1.
         11    1    5    5    0    0 -0.20824801587E+02 -0.80194683880E+02 -0.70484836332E+03  0.70970139844E+03  0.00000000000E+00 0. -1.
        -11    1    5    5    0    0  0.15220026389E+02 -0.13156601975E+03 -0.52302336454E+03  0.53953193289E+03  0.00000000000E+00 0.  1.
          1    1    6    6  503    0  0.30566556120E+03  0.21776323177E+03 -0.14599894865E+03  0.40270082372E+03  0.00000000000E+00 0. -1.
         -1    1    6    6    0  503  0.30396923058E+02 -0.36380655445E+01 -0.28030879015E+02  0.41508295926E+02  0.00000000000E+00 0.  1.
<mgrwt>
<rscale>  0 0.13397760E+04</rscale>
<asrwt>0</asrwt>
<pdfrwt beam="1">  1        2 0.39763974E+00 0.13397760E+04</pdfrwt>
<pdfrwt beam="2">  1       -1 0.26710863E-01 0.13397760E+04</pdfrwt>
<totfact> 0.43446378E+01</totfact>
</mgrwt>
</event>
<event>
12    6  0.1510140E-007  0.1966265E+04  0.7818608E-02  0.8622557E-01
         -1   -1    0    0    0  501 -0.00000000000E+00  0.00000000000E+00  0.14231598771E+04  0.14231598771E+04  0.00000000000E+00 0.  1.
          2   -1    0    0  501    0  0.00000000000E+00 -0.00000000000E+00 -0.67915729035E+03  0.67915729035E+03  0.00000000000E+00 0. -1.
         24    2    1    2    0    0 -0.22348622700E+03  0.14950833872E+03 -0.48346937050E+03  0.55867178140E+03  0.77927467038E+02 0.  0.
        254    2    1    2    0    0  0.22348622700E+03 -0.14950833872E+03  0.12274719573E+04  0.15436453861E+04  0.89657951963E+03 0.  0.
         23    2    4    4    0    0  0.54157532940E+03  0.41146826774E+02  0.66089486181E+03  0.86040984350E+03  0.92337325393E+02 0.  0.
         23    2    4    4    0    0 -0.31808910239E+03 -0.19065516550E+03  0.56657709546E+03  0.68323554256E+03  0.90945765874E+02 0.  0.
          4    1    3    3  502    0 -0.19573359679E+03  0.15709519825E+03 -0.42706855168E+03  0.49535652823E+03  0.00000000000E+00 0. -1.
         -3    1    3    3    0  502 -0.27752630214E+02 -0.75868595256E+01 -0.56400818816E+02  0.63315253173E+02  0.00000000000E+00 0.  1.
         11    1    5    5    0    0  0.12628619570E+03  0.40289269589E+02  0.20081405516E+03  0.24061943649E+03  0.00000000000E+00 0. -1.
        -11    1    5    5    0    0  0.41528913370E+03  0.85755718445E+00  0.46008080665E+03  0.61979040701E+03  0.00000000000E+00 0.  1.
          3    1    6    6  503    0 -0.24331246854E+02 -0.48353182002E+02  0.62228464325E+02  0.82476794042E+02  0.00000000000E+00 0. -1.
         -3    1    6    6    0  503 -0.29375785554E+03 -0.14230198349E+03  0.50434863113E+03  0.60075874852E+03  0.00000000000E+00 0.  1.
<mgrwt>
<rscale>  0 0.19662649E+04</rscale>
<asrwt>0</asrwt>
<pdfrwt beam="1">  1        2 0.10448574E+00 0.19662649E+04</pdfrwt>
<pdfrwt beam="2">  1       -1 0.21894767E+00 0.19662649E+04</pdfrwt>
<totfact> 0.50633984E+00</totfact>
</mgrwt>
</event>
<event>
12    6  0.1510140E-007  0.1536737E+04  0.7818608E-02  0.8860384E-01
         -1   -1    0    0    0  501 -0.00000000000E+00  0.00000000000E+00  0.33441229252E+03  0.33441229252E+03  0.00000000000E+00 0.  1.
          2   -1    0    0  501    0  0.00000000000E+00 -0.00000000000E+00 -0.17654556055E+04  0.17654556055E+04  0.00000000000E+00 0. -1.
         24    2    1    2    0    0 -0.54699197855E+02 -0.23549315406E+03  0.12685395606E+03  0.28445381160E+03  0.79831177555E+02 0.  0.
        254    2    1    2    0    0  0.54699197855E+02  0.23549315406E+03 -0.15578972690E+04  0.18154140864E+04  0.90013075518E+03 0.  0.
         23    2    4    4    0    0 -0.50880022721E+02  0.56125462919E+03 -0.85342364426E+03  0.10267201854E+04  0.90702188623E+02 0.  0.
         23    2    4    4    0    0  0.10557922058E+03 -0.32576147513E+03 -0.70447362478E+03  0.78869390102E+03  0.92127471462E+02 0.  0.
          2    1    3    3  502    0  0.11427579974E+02 -0.10736565438E+03  0.35031197702E+02  0.11351281045E+03  0.00000000000E+00 0. -1.
         -1    1    3    3    0  502 -0.66126777830E+02 -0.12812749968E+03  0.91822758356E+02  0.17094100115E+03  0.00000000000E+00 0.  1.
         11    1    5    5    0    0 -0.19393482566E+02  0.50928320112E+03 -0.75031726622E+03  0.90703995838E+03  0.00000000000E+00 0.  1.
        -11    1    5    5    0    0 -0.31486540155E+02  0.51971428072E+02 -0.10310637804E+03  0.11968022702E+03  0.00000000000E+00 0. -1.
          4    1    6    6  503    0  0.18888590138E+02 -0.55828558836E+02 -0.21609454702E+03  0.22398763375E+03  0.00000000000E+00 0. -1.
         -4    1    6    6    0  503  0.86690630439E+02 -0.26993291629E+03 -0.48837907776E+03  0.56470626727E+03  0.00000000000E+00 0.  1.
<mgrwt>
<rscale>  0 0.15367369E+04</rscale>
<asrwt>0</asrwt>
<pdfrwt beam="1">  1        2 0.27160855E+00 0.15367369E+04</pdfrwt>
<pdfrwt beam="2">  1       -1 0.51448046E-01 0.15367369E+04</pdfrwt>
<totfact> 0.37622341E+01</totfact>
</mgrwt>
</event>
<event>
12    6  0.1510140E-007  0.1301933E+04  0.7818608E-02  0.9028034E-01
          2   -1    0    0  501    0  0.00000000000E+00  0.00000000000E+00  0.65277279034E+03  0.65277279034E+03  0.00000000000E+00 0. -1.
         -1   -1    0    0    0  501 -0.00000000000E+00 -0.00000000000E+00 -0.64916534562E+03  0.64916534562E+03  0.00000000000E+00 0.  1.
         24    2    1    2    0    0  0.61323872490E+02 -0.22579385033E+03 -0.22891521532E+03  0.33769929945E+03  0.83037105318E+02 0.  0.
        254    2    1    2    0    0 -0.61323872490E+02  0.22579385033E+03  0.23252266005E+03  0.96423883651E+03  0.90606085127E+03 0.  0.
         23    2    4    4    0    0 -0.17943251732E+03  0.10275403483E+03  0.54976950670E+03  0.59444185396E+03  0.91434059874E+02 0.  0.
         23    2    4    4    0    0  0.11810864483E+03  0.12303981550E+03 -0.31724684665E+03  0.36979698255E+03  0.83760362995E+02 0.  0.
          2    1    3    3  502    0 -0.12827898924E+02 -0.48402486592E+01 -0.22610836276E+02  0.26443012593E+02  0.00000000000E+00 0. -1.
         -1    1    3    3    0  502  0.74151771414E+02 -0.22095360167E+03 -0.20630437905E+03  0.31125628686E+03  0.00000000000E+00 0.  1.
         11    1    5    5    0    0 -0.10600591946E+03  0.44900966508E+02  0.41324233899E+03  0.42897853383E+03  0.00000000000E+00 0. -1.
        -11    1    5    5    0    0 -0.73426597866E+02  0.57853068318E+02  0.13652716771E+03  0.16546332014E+03  0.00000000000E+00 0.  1.
          3    1    6    6  503    0  0.12737144866E+02  0.28717427514E+01  0.15820509976E+01  0.13152362949E+02  0.00000000000E+00 0. -1.
         -3    1    6    6    0  503  0.10537149997E+03  0.12016807275E+03 -0.31882889764E+03  0.35664461960E+03  0.00000000000E+00 0.  1.
<mgrwt>
<rscale>  0 0.13019331E+04</rscale>
<asrwt>0</asrwt>
<pdfrwt beam="1">  1        2 0.10042658E+00 0.13019331E+04</pdfrwt>
<pdfrwt beam="2">  1       -1 0.99871592E-01 0.13019331E+04</pdfrwt>
<totfact> 0.47896782E+01</totfact>
</mgrwt>
</event>
<event>
12    6  0.1510140E-007  0.1333450E+04  0.7818608E-02  0.9003452E-01
         -1   -1    0    0    0  501 -0.00000000000E+00  0.00000000000E+00  0.77183193924E+03  0.77183193924E+03  0.00000000000E+00 0.  1.
          2   -1    0    0  501    0  0.00000000000E+00 -0.00000000000E+00 -0.57593144752E+03  0.57593144752E+03  0.00000000000E+00 0. -1.
         24    2    1    2    0    0 -0.12511622075E+03  0.32036539093E+03 -0.41780367122E+02  0.35505856117E+03  0.77671940759E+02 0.  0.
        254    2    1    2    0    0  0.12511622075E+03 -0.32036539093E+03  0.23768085885E+03  0.99270482560E+03  0.90037915775E+03 0.  0.
         23    2    4    4    0    0  0.38336643233E+03 -0.70175025795E+02 -0.17599170039E+03  0.43723198153E+03  0.91128323733E+02 0.  0.
         23    2    4    4    0    0 -0.25825021158E+03 -0.25019036513E+03  0.41367255923E+03  0.55547284406E+03  0.90203678638E+02 0.  0.
          4    1    3    3  502    0  0.73258570585E+00  0.42827963987E+02 -0.25579534287E+02  0.49890718129E+02  0.00000000000E+00 0. -1.
         -3    1    3    3    0  502 -0.12584880645E+03  0.27753742694E+03 -0.16200832835E+02  0.30516784304E+03  0.00000000000E+00 0.  1.
         11    1    5    5    0    0  0.34938938185E+03 -0.49914471690E+02 -0.18219496103E+03  0.39718937354E+03  0.00000000000E+00 0.  1.
        -11    1    5    5    0    0  0.33977050484E+02 -0.20260554105E+02  0.62032606366E+01  0.40042607992E+02  0.00000000000E+00 0. -1.
          1    1    6    6  503    0 -0.13540084779E+03 -0.16645303774E+03  0.18828655986E+03  0.28546774244E+03  0.00000000000E+00 0. -1.
         -1    1    6    6    0  503 -0.12284936380E+03 -0.83737327394E+02  0.22538599938E+03  0.27000510162E+03  0.00000000000E+00 0.  1.
<mgrwt>
<rscale>  0 0.13334501E+04</rscale>
<asrwt>0</asrwt>
<pdfrwt beam="1">  1        2 0.88604838E-01 0.13334501E+04</pdfrwt>
<pdfrwt beam="2">  1       -1 0.11874338E+00 0.13334501E+04</pdfrwt>
<totfact> 0.37011568E+01</totfact>
</mgrwt>
</event>
<event>
12    6  0.3133832E-007  0.2676061E+04  0.7818608E-02  0.8342814E-01
         -1   -1    0    0    0  501 -0.00000000000E+00  0.00000000000E+00  0.64725474261E+03  0.64725474261E+03  0.00000000000E+00 0.  1.
          2   -1    0    0  501    0  0.00000000000E+00 -0.00000000000E+00 -0.27660288981E+04  0.27660288981E+04  0.00000000000E+00 0. -1.
         24    2    1    2    0    0  0.92399714794E+03 -0.73830160939E+03 -0.95852054997E+03  0.15260140438E+04  0.10534334908E+03 0.  0.
        254    2    1    2    0    0 -0.92399714794E+03  0.73830160939E+03 -0.11602536055E+04  0.18872695969E+04  0.90373563974E+03 0.  0.
         23    2    4    4    0    0 -0.92416479072E+03  0.30167849338E+03 -0.51762059682E+03  0.11052018814E+04  0.91921938075E+02 0.  0.
         23    2    4    4    0    0  0.16764278057E+00  0.43662311601E+03 -0.64263300866E+03  0.78206771547E+03  0.89515106101E+02 0.  0.
          4    1    3    3  502    0  0.15962738279E+03 -0.15970065630E+03 -0.14189765745E+03  0.26668360683E+03  0.00000000000E+00 0. -1.
         -3    1    3    3    0  502  0.76436976515E+03 -0.57860095309E+03 -0.81662289252E+03  0.12593304369E+04  0.00000000000E+00 0.  1.
         11    1    5    5    0    0 -0.87270356234E+01 -0.18249388561E+01 -0.15500335961E+02  0.17881609757E+02  0.00000000000E+00 0. -1.
        -11    1    5    5    0    0 -0.91543775509E+03  0.30350343224E+03 -0.50212026086E+03  0.10873202717E+04  0.00000000000E+00 0.  1.
          2    1    6    6  503    0 -0.37323329389E+01  0.23013797708E+02 -0.82119942358E+01  0.24718455523E+02  0.00000000000E+00 0. -1.
         -2    1    6    6    0  503  0.38999757195E+01  0.41360931830E+03 -0.63442101442E+03  0.75734925995E+03  0.00000000000E+00 0.  1.
<mgrwt>
<rscale>  0 0.26760608E+04</rscale>
<asrwt>0</asrwt>
<pdfrwt beam="1">  1        2 0.42554289E+00 0.26760608E+04</pdfrwt>
<pdfrwt beam="2">  1       -1 0.99577656E-01 0.26760608E+04</pdfrwt>
<totfact> 0.23309184E+00</totfact>
</mgrwt>
</event>
<event>
12    6  0.1510140E-007  0.1638902E+04  0.7818608E-02  0.8796999E-01
         -1   -1    0    0    0  501 -0.00000000000E+00  0.00000000000E+00  0.39575928337E+03  0.39575928337E+03  0.00000000000E+00 0.  1.
          2   -1    0    0  501    0  0.00000000000E+00 -0.00000000000E+00 -0.16967393422E+04  0.16967393422E+04  0.00000000000E+00 0. -1.
         24    2    1    2    0    0  0.60752360883E+02  0.38698610269E+03 -0.93616617742E+03  0.10177411148E+04  0.77076403461E+02 0.  0.
        254    2    1    2    0    0 -0.60752360883E+02 -0.38698610269E+03 -0.36481388143E+03  0.10747575108E+04  0.93196858633E+03 0.  0.
         23    2    4    4    0    0  0.52006993489E+02  0.19140612987E+03  0.16618819282E+03  0.27530176207E+03  0.93976118472E+02 0.  0.
         23    2    4    4    0    0 -0.11275935437E+03 -0.57839223256E+03 -0.53100207425E+03  0.79945574873E+03  0.99569295699E+02 0.  0.
          2    1    3    3  502    0  0.25595974453E+02  0.12252443784E+03 -0.39550815780E+03  0.41484225274E+03  0.00000000000E+00 0. -1.
         -1    1    3    3    0  502  0.35156386431E+02  0.26446166485E+03 -0.54065801962E+03  0.60289886205E+03  0.00000000000E+00 0.  1.
         11    1    5    5    0    0  0.32440052038E+02  0.53986246656E+02  0.58900261685E+01  0.63257918181E+02  0.00000000000E+00 0. -1.
        -11    1    5    5    0    0  0.19566941450E+02  0.13741988321E+03  0.16029816665E+03  0.21204384389E+03  0.00000000000E+00 0.  1.
          2    1    6    6  503    0 -0.52042242841E+01 -0.81061379270E+02 -0.12227579725E+03  0.14679714491E+03  0.00000000000E+00 0. -1.
         -2    1    6    6    0  503 -0.10755513009E+03 -0.49733085329E+03 -0.40872627699E+03  0.65265860382E+03  0.00000000000E+00 0.  1.
<mgrwt>
<rscale>  0 0.16389025E+04</rscale>
<asrwt>0</asrwt>
<pdfrwt beam="1">  1        2 0.26103682E+00 0.16389025E+04</pdfrwt>
<pdfrwt beam="2">  1       -1 0.60886044E-01 0.16389025E+04</pdfrwt>
<totfact> 0.29342336E+01</totfact>
</mgrwt>
</event>
<event>
12    6  0.1510140E-007  0.1554367E+04  0.7818608E-02  0.8849083E-01
          2   -1    0    0  501    0  0.00000000000E+00  0.00000000000E+00  0.38434894454E+04  0.38434894454E+04  0.00000000000E+00 0. -1.
         -1   -1    0    0    0  501 -0.00000000000E+00 -0.00000000000E+00 -0.15715250378E+03  0.15715250378E+03  0.00000000000E+00 0.  1.
         24    2    1    2    0    0 -0.50257183571E+03  0.58647458864E+02  0.12962289152E+04  0.13937642527E+04  0.79695778429E+02 0.  0.
        254    2    1    2    0    0  0.50257183571E+03 -0.58647458864E+02  0.23901080264E+04  0.26068776964E+04  0.90949270024E+03 0.  0.
         23    2    4    4    0    0  0.25403362952E+03  0.40260568827E+03  0.85292916898E+03  0.98052159214E+03  0.85498539238E+02 0.  0.
         23    2    4    4    0    0  0.24853820619E+03 -0.46125314713E+03  0.15371788574E+04  0.16263561043E+04  0.87118497236E+02 0.  0.
          4    1    3    3  502    0 -0.18130075891E+03  0.30304553057E+02  0.37322958418E+03  0.41603924529E+03  0.00000000000E+00 0. -1.
         -3    1    3    3    0  502 -0.32127107680E+03  0.28342905807E+02  0.92299933103E+03  0.97772500745E+03  0.00000000000E+00 0.  1.
         11    1    5    5    0    0  0.94933012839E+01  0.65119716268E+02  0.95071548859E+02  0.11562568754E+03  0.00000000000E+00 0.  1.
        -11    1    5    5    0    0  0.24454032824E+03  0.33748597200E+03  0.75785762012E+03  0.86489590461E+03  0.00000000000E+00 0. -1.
          4    1    6    6  503    0  0.20574756648E+03 -0.42888263173E+03  0.14179151408E+04  0.14955787239E+04  0.00000000000E+00 0. -1.
         -4    1    6    6    0  503  0.42790639710E+02 -0.32370515405E+02  0.11926371663E+03  0.13077738038E+03  0.00000000000E+00 0.  1.
<mgrwt>
<rscale>  0 0.15543667E+04</rscale>
<asrwt>0</asrwt>
<pdfrwt beam="1">  1        2 0.59130600E+00 0.15543667E+04</pdfrwt>
<pdfrwt beam="2">  1       -1 0.24177311E-01 0.15543667E+04</pdfrwt>
<totfact> 0.75325282E+00</totfact>
</mgrwt>
</event>
<event>
12    6  0.1510140E-007  0.3566661E+04  0.7818608E-02  0.8098171E-01
          2   -1    0    0  501    0  0.00000000000E+00  0.00000000000E+00  0.18993224022E+04  0.18993224022E+04  0.00000000000E+00 0. -1.
         -1   -1    0    0    0  501 -0.00000000000E+00 -0.00000000000E+00 -0.16744226335E+04  0.16744226335E+04  0.00000000000E+00 0.  1.
         24    2    1    2    0    0  0.14847842582E+04 -0.53695296335E+03  0.63592129791E+03  0.17040261289E+04  0.80039819902E+02 0.  0.
        254    2    1    2    0    0 -0.14847842582E+04  0.53695296335E+03 -0.41102152920E+03  0.18697189067E+04  0.91324000924E+03 0.  0.
         23    2    4    4    0    0 -0.18035828869E+03  0.37034521284E+03  0.13457327821E+03  0.44308521065E+03  0.92357174668E+02 0.  0.
         23    2    4    4    0    0 -0.13044259695E+04  0.16660775052E+03 -0.54559480741E+03  0.14266336961E+04  0.91240103498E+02 0.  0.
          4    1    3    3  502    0  0.76201023025E+03 -0.26218388251E+03  0.28357575374E+03  0.85429221427E+03  0.00000000000E+00 0. -1.
         -3    1    3    3    0  502  0.72277402794E+03 -0.27476908085E+03  0.35234554417E+03  0.84973391467E+03  0.00000000000E+00 0.  1.
         11    1    5    5    0    0 -0.10502417073E+03  0.29649574886E+03  0.11967681099E+03  0.33654471414E+03  0.00000000000E+00 0.  1.
        -11    1    5    5    0    0 -0.75334117968E+02  0.73849463980E+02  0.14896467224E+02  0.10654049651E+03  0.00000000000E+00 0. -1.
          4    1    6    6  503    0 -0.11274995260E+04  0.14366429505E+03 -0.43671833132E+03  0.12176278215E+04  0.00000000000E+00 0.  1.
         -4    1    6    6    0  503 -0.17692644345E+03  0.22943455462E+02 -0.10887647610E+03  0.20900587453E+03  0.00000000000E+00 0. -1.
<mgrwt>
<rscale>  0 0.35666614E+04</rscale>
<asrwt>0</asrwt>
<pdfrwt beam="1">  1        2 0.29220345E+00 0.35666614E+04</pdfrwt>
<pdfrwt beam="2">  1       -1 0.25760348E+00 0.35666614E+04</pdfrwt>
<totfact> 0.43950452E-01</totfact>
</mgrwt>
</event>
<event>
12    6  0.1510140E-007  0.2601513E+04  0.7818608E-02  0.8367687E-01
          2   -1    0    0  501    0  0.00000000000E+00  0.00000000000E+00  0.43834134660E+04  0.43834134660E+04  0.00000000000E+00 0. -1.
         -1   -1    0    0    0  501 -0.00000000000E+00 -0.00000000000E+00 -0.38599320040E+03  0.38599320040E+03  0.00000000000E+00 0.  1.
         24    2    1    2    0    0 -0.22660234321E+03  0.43296884779E+03  0.36569970866E+04  0.36903791442E+04  0.80373446081E+02 0.  0.
        254    2    1    2    0    0  0.22660234321E+03 -0.43296884779E+03  0.34042317892E+03  0.10790275222E+04  0.89977875493E+03 0.  0.
         23    2    4    4    0    0  0.28129733030E+03 -0.44220118852E+03  0.59773438525E+03  0.80029908464E+03  0.92315493890E+02 0.  0.
         23    2    4    4    0    0 -0.54694987093E+02  0.92323407261E+01 -0.25731120633E+03  0.27872843756E+03  0.91671736523E+02 0.  0.
          2    1    3    3  502    0 -0.91254112801E+02  0.16608284148E+03  0.17192415721E+04  0.17296538401E+04  0.00000000000E+00 0. -1.
         -1    1    3    3    0  502 -0.13534823040E+03  0.26688600631E+03  0.19377555145E+04  0.19607253040E+04  0.00000000000E+00 0.  1.
         11    1    5    5    0    0  0.18583052057E+03 -0.20678829531E+03  0.30436882173E+03  0.41223144118E+03  0.00000000000E+00 0. -1.
        -11    1    5    5    0    0  0.95466809730E+02 -0.23541289320E+03  0.29336556352E+03  0.38806764347E+03  0.00000000000E+00 0.  1.
          3    1    6    6  503    0 -0.40174269690E+02  0.31522078306E+02 -0.24341822311E+03  0.24871679619E+03  0.00000000000E+00 0. -1.
         -3    1    6    6    0  503 -0.14520717403E+02 -0.22289737580E+02 -0.13892983219E+02  0.30011641374E+02  0.00000000000E+00 0.  1.
<mgrwt>
<rscale>  0 0.26015132E+04</rscale>
<asrwt>0</asrwt>
<pdfrwt beam="1">  1        2 0.67437127E+00 0.26015132E+04</pdfrwt>
<pdfrwt beam="2">  1       -1 0.59383572E-01 0.26015132E+04</pdfrwt>
<totfact> 0.46160549E-01</totfact>
</mgrwt>
</event>
<event>
12    6  0.1694388E-007  0.1390957E+04  0.7818608E-02  0.8960391E-01
         -1   -1    0    0    0  501 -0.00000000000E+00  0.00000000000E+00  0.49194167602E+03  0.49194167602E+03  0.00000000000E+00 0.  1.
          2   -1    0    0  501    0  0.00000000000E+00 -0.00000000000E+00 -0.98322680030E+03  0.98322680030E+03  0.00000000000E+00 0. -1.
         24    2    1    2    0    0 -0.31228846335E+02  0.22286269187E+03 -0.48585946119E+03  0.54600226541E+03  0.10684585875E+03 0.  0.
        254    2    1    2    0    0  0.31228846335E+02 -0.22286269187E+03 -0.54256630902E+01  0.92916621092E+03  0.90148621145E+03 0.  0.
         23    2    4    4    0    0 -0.96567781310E+02 -0.21842045267E+03 -0.41688755565E+03  0.48859742015E+03  0.88878424789E+02 0.  0.
         23    2    4    4    0    0  0.12779662764E+03 -0.44422392011E+01  0.41146189255E+03  0.44056879077E+03  0.91914410465E+02 0.  0.
          4    1    3    3  502    0 -0.46089079487E+02  0.22588061168E+03 -0.47272075887E+03  0.52593837077E+03  0.00000000000E+00 0. -1.
         -3    1    3    3    0  502  0.14860233152E+02 -0.30179198130E+01 -0.13138702316E+02  0.20063894634E+02  0.00000000000E+00 0.  1.
         11    1    5    5    0    0 -0.10696258642E+02 -0.96471676082E+02 -0.10565036344E+03  0.14346844089E+03  0.00000000000E+00 0. -1.
        -11    1    5    5    0    0 -0.85871522668E+02 -0.12194877659E+03 -0.31123719220E+03  0.34512897926E+03  0.00000000000E+00 0.  1.
          4    1    6    6  503    0  0.12263953285E+03  0.49480049445E+01  0.41194831739E+03  0.42984456955E+03  0.00000000000E+00 0.  1.
         -4    1    6    6    0  503  0.51570947901E+01 -0.93902441456E+01 -0.48642483050E+00  0.10724221226E+02  0.00000000000E+00 0. -1.
<mgrwt>
<rscale>  0 0.13909569E+04</rscale>
<asrwt>0</asrwt>
<pdfrwt beam="1">  1        2 0.15126566E+00 0.13909569E+04</pdfrwt>
<pdfrwt beam="2">  1       -1 0.75683335E-01 0.13909569E+04</pdfrwt>
<totfact> 0.50352369E+01</totfact>
</mgrwt>
</event>
<event>
12    6  0.1510140E-007  0.1925335E+04  0.7818608E-02  0.8642347E-01
          2   -1    0    0  501    0  0.00000000000E+00  0.00000000000E+00  0.94639227458E+03  0.94639227458E+03  0.00000000000E+00 0. -1.
         -1   -1    0    0    0  501 -0.00000000000E+00 -0.00000000000E+00 -0.97922224981E+03  0.97922224981E+03  0.00000000000E+00 0.  1.
         24    2    1    2    0    0  0.43244058942E+03  0.13613987249E+03  0.58585065549E+03  0.74514560704E+03  0.80511222113E+02 0.  0.
        254    2    1    2    0    0 -0.43244058942E+03 -0.13613987249E+03 -0.61868063072E+03  0.11804689174E+04  0.89733060449E+03 0.  0.
         23    2    4    4    0    0 -0.41795871767E+03  0.10280735883E+03 -0.76702397962E+03  0.88455294906E+03  0.94070673773E+02 0.  0.
         23    2    4    4    0    0 -0.14481871758E+02 -0.23894723132E+03  0.14834334890E+03  0.29591596830E+03  0.90857069986E+02 0.  0.
          2    1    3    3  502    0  0.43215766965E+03  0.13165957250E+03  0.56294600516E+03  0.72180516706E+03  0.00000000000E+00 0. -1.
         -1    1    3    3    0  502  0.28291977517E+00  0.44802999882E+01  0.22904650336E+02  0.23340439983E+02  0.00000000000E+00 0.  1.
         11    1    5    5    0    0 -0.12793467122E+03  0.69451449986E+02 -0.20782713202E+03  0.25373785845E+03  0.00000000000E+00 0.  1.
        -11    1    5    5    0    0 -0.29002404645E+03  0.33355908848E+02 -0.55919684760E+03  0.63081509061E+03  0.00000000000E+00 0. -1.
          2    1    6    6  503    0 -0.35600382264E+02 -0.12504808364E+03  0.36852093194E+02  0.13513877021E+03  0.00000000000E+00 0.  1.
         -2    1    6    6    0  503  0.21118510506E+02 -0.11389914768E+03  0.11149125571E+03  0.16077719809E+03  0.00000000000E+00 0. -1.
<mgrwt>
<rscale>  0 0.19253346E+04</rscale>
<asrwt>0</asrwt>
<pdfrwt beam="1">  1        2 0.14559881E+00 0.19253346E+04</pdfrwt>
<pdfrwt beam="2">  1       -1 0.15064958E+00 0.19253346E+04</pdfrwt>
<totfact> 0.10039593E+01</totfact>
</mgrwt>
</event>
<event>
12    6  0.1510140E-007  0.1783276E+04  0.7818608E-02  0.8715244E-01
         -1   -1    0    0    0  501 -0.00000000000E+00  0.00000000000E+00  0.75110984977E+03  0.75110984977E+03  0.00000000000E+00 0.  1.
          2   -1    0    0  501    0  0.00000000000E+00 -0.00000000000E+00 -0.10584585990E+04  0.10584585990E+04  0.00000000000E+00 0. -1.
         24    2    1    2    0    0 -0.12482229434E+03  0.32067359121E+03 -0.68545307209E+03  0.77084039175E+03  0.77050880887E+02 0.  0.
        254    2    1    2    0    0  0.12482229434E+03 -0.32067359121E+03  0.37810432289E+03  0.10387280570E+04  0.90420182488E+03 0.  0.
         23    2    4    4    0    0  0.14908404884E+03 -0.48438009517E+03 -0.10003815428E+03  0.52454586613E+03  0.91052749263E+02 0.  0.
         23    2    4    4    0    0 -0.24261754505E+02  0.16370650396E+03  0.47814247718E+03  0.51418219086E+03  0.91513085101E+02 0.  0.
          4    1    3    3  502    0 -0.12002412243E+03  0.30417066397E+03 -0.67667635483E+03  0.75154272797E+03  0.00000000000E+00 0. -1.
         -3    1    3    3    0  502 -0.47981719122E+01  0.16502927246E+02 -0.87767172661E+01  0.19297663780E+02  0.00000000000E+00 0.  1.
         11    1    5    5    0    0  0.21070589166E+02 -0.21250863874E+03 -0.56567623478E+02  0.22091579231E+03  0.00000000000E+00 0.  1.
        -11    1    5    5    0    0  0.12801345968E+03 -0.27187145643E+03 -0.43470530804E+02  0.30363007383E+03  0.00000000000E+00 0. -1.
          3    1    6    6  503    0 -0.16248792729E+02  0.14543836238E+03  0.28850885334E+03  0.32350223952E+03  0.00000000000E+00 0. -1.
         -3    1    6    6    0  503 -0.80129617764E+01  0.18268141573E+02  0.18963362384E+03  0.19067995134E+03  0.00000000000E+00 0.  1.
<mgrwt>
<rscale>  0 0.17832764E+04</rscale>
<asrwt>0</asrwt>
<pdfrwt beam="1">  1        2 0.16283978E+00 0.17832764E+04</pdfrwt>
<pdfrwt beam="2">  1       -1 0.11555536E+00 0.17832764E+04</pdfrwt>
<totfact> 0.16920351E+01</totfact>
</mgrwt>
</event>
<event>
12    6  0.1510140E-007  0.1273167E+04  0.7818608E-02  0.9051119E-01
          2   -1    0    0  501    0  0.00000000000E+00  0.00000000000E+00  0.13560206666E+04  0.13560206666E+04  0.00000000000E+00 0. -1.
         -1   -1    0    0    0  501 -0.00000000000E+00 -0.00000000000E+00 -0.29884385764E+03  0.29884385764E+03  0.00000000000E+00 0.  1.
         24    2    1    2    0    0 -0.10234648504E+03  0.27896822882E+03  0.13079197487E+03  0.33434378915E+03  0.79882119130E+02 0.  0.
        254    2    1    2    0    0  0.10234648504E+03 -0.27896822882E+03  0.92638483406E+03  0.13205207351E+04  0.89290989200E+03 0.  0.
         23    2    4    4    0    0  0.20524286076E+03 -0.55126466651E+03  0.78388367267E+03  0.98462086485E+03  0.94801217280E+02 0.  0.
         23    2    4    4    0    0 -0.10289637572E+03  0.27229643768E+03  0.14250116139E+03  0.33589987020E+03  0.88256034878E+02 0.  0.
          4    1    3    3  502    0 -0.54281221339E+02  0.14317142865E+03  0.11060017098E+03  0.18888331529E+03  0.00000000000E+00 0. -1.
         -3    1    3    3    0  502 -0.48065263704E+02  0.13579680017E+03  0.20191803890E+02  0.14546047386E+03  0.00000000000E+00 0.  1.
         11    1    5    5    0    0  0.18592285167E+03 -0.41653416154E+03  0.64659103738E+03  0.79129513086E+03  0.00000000000E+00 0. -1.
        -11    1    5    5    0    0  0.19320009090E+02 -0.13473050497E+03  0.13729263529E+03  0.19332573399E+03  0.00000000000E+00 0.  1.
          3    1    6    6  503    0 -0.20129962607E+02  0.45794913229E+02 -0.93953118741E+01  0.50898539836E+02  0.00000000000E+00 0. -1.
         -3    1    6    6    0  503 -0.82766413109E+02  0.22650152445E+03  0.15189647327E+03  0.28500133036E+03  0.00000000000E+00 0.  1.
<mgrwt>
<rscale>  0 0.12731668E+04</rscale>
<asrwt>0</asrwt>
<pdfrwt beam="1">  1        2 0.20861856E+00 0.12731668E+04</pdfrwt>
<pdfrwt beam="2">  1       -1 0.45975979E-01 0.12731668E+04</pdfrwt>
<totfact> 0.80729355E+01</totfact>
</mgrwt>
</event>
<event>
12    6  0.1510140E-007  0.3658533E+04  0.7818608E-02  0.8077214E-01
          2   -1    0    0  501    0  0.00000000000E+00  0.00000000000E+00  0.45524790296E+04  0.45524790296E+04  0.00000000000E+00 0. -1.
         -1   -1    0    0    0  501 -0.00000000000E+00 -0.00000000000E+00 -0.73503171560E+03  0.73503171560E+03  0.00000000000E+00 0.  1.
         24    2    1    2    0    0  0.89384999296E+02  0.72274864986E+03 -0.45298171304E+03  0.86165185373E+03  0.83043336374E+02 0.  0.
        254    2    1    2    0    0 -0.89384999296E+02 -0.72274864986E+03  0.42704290270E+04  0.44258588915E+04  0.90626020724E+03 0.  0.
         23    2    4    4    0    0  0.39746896338E+03 -0.36101275304E+03  0.18209680641E+04  0.19008445329E+04  0.94728363629E+02 0.  0.
         23    2    4    4    0    0 -0.48685396268E+03 -0.36173589682E+03  0.24494609629E+04  0.25250143586E+04  0.89212455677E+02 0.  0.
          4    1    3    3  502    0 -0.67652239636E+01  0.15840210516E+03 -0.73012485067E+02  0.17455033128E+03  0.00000000000E+00 0. -1.
         -3    1    3    3    0  502  0.96150223259E+02  0.56434654470E+03 -0.37996922798E+03  0.68710152245E+03  0.00000000000E+00 0.  1.
         11    1    5    5    0    0  0.33296971503E+03 -0.27653732803E+03  0.13358882763E+04  0.14042575304E+04  0.00000000000E+00 0. -1.
        -11    1    5    5    0    0  0.64499248348E+02 -0.84475425012E+02  0.48507978789E+03  0.49658700254E+03  0.00000000000E+00 0.  1.
          2    1    6    6  503    0 -0.34918127878E+03 -0.30118231732E+03  0.19207331652E+04  0.19753111769E+04  0.00000000000E+00 0. -1.
         -2    1    6    6    0  503 -0.13767268390E+03 -0.60553579501E+02  0.52872779774E+03  0.54970318171E+03  0.00000000000E+00 0.  1.
<mgrwt>
<rscale>  0 0.36585333E+04</rscale>
<asrwt>0</asrwt>
<pdfrwt beam="1">  1        2 0.70038137E+00 0.36585333E+04</pdfrwt>
<pdfrwt beam="2">  1       -1 0.11308180E+00 0.36585333E+04</pdfrwt>
<totfact> 0.71379674E-02</totfact>
</mgrwt>
</event>
<event>
12    6  0.1510140E-007  0.2633114E+04  0.7818608E-02  0.8357039E-01
         -1   -1    0    0    0  501 -0.00000000000E+00  0.00000000000E+00  0.68511775087E+03  0.68511775087E+03  0.00000000000E+00 0.  1.
          2   -1    0    0  501    0  0.00000000000E+00 -0.00000000000E+00 -0.25299633766E+04  0.25299633766E+04  0.00000000000E+00 0. -1.
         24    2    1    2    0    0 -0.91393615954E+03 -0.58737673942E+03 -0.31497436160E+03  0.11335950892E+04  0.74419353362E+02 0.  0.
        254    2    1    2    0    0  0.91393615954E+03  0.58737673942E+03 -0.15298712641E+04  0.20814860382E+04  0.90099239994E+03 0.  0.
         23    2    4    4    0    0 -0.96763176704E+02 -0.10211299225E+03 -0.97640398921E+02  0.19556179027E+03  0.94448879075E+02 0.  0.
         23    2    4    4    0    0  0.10106993362E+04  0.68948973168E+03 -0.14322308652E+04  0.18859242479E+04  0.92280980575E+02 0.  0.
          2    1    3    3  502    0 -0.19256667566E+03 -0.11170080649E+03 -0.94370275549E+02  0.24179483794E+03  0.00000000000E+00 0. -1.
         -1    1    3    3    0  502 -0.72136948388E+03 -0.47567593293E+03 -0.22060408605E+03  0.89180025130E+03  0.00000000000E+00 0.  1.
         11    1    5    5    0    0 -0.92274347765E+02 -0.11167683880E+03 -0.10805494945E+03  0.18072670993E+03  0.00000000000E+00 0.  1.
        -11    1    5    5    0    0 -0.44888289389E+01  0.95638465480E+01  0.10414550528E+02  0.14835080342E+02  0.00000000000E+00 0. -1.
          1    1    6    6  503    0  0.36042876424E+03  0.21581630068E+03 -0.54767160483E+03  0.69023891261E+03  0.00000000000E+00 0. -1.
         -1    1    6    6    0  503  0.65027057201E+03  0.47367343099E+03 -0.88455926035E+03  0.11956853353E+04  0.00000000000E+00 0.  1.
<mgrwt>
<rscale>  0 0.26331144E+04</rscale>
<asrwt>0</asrwt>
<pdfrwt beam="1">  1        2 0.38922513E+00 0.26331144E+04</pdfrwt>
<pdfrwt beam="2">  1       -1 0.10540273E+00 0.26331144E+04</pdfrwt>
<totfact> 0.28298797E+00</totfact>
</mgrwt>
</event>
<event>
12    6  0.1510140E-007  0.3036399E+04  0.7818608E-02  0.8233413E-01
         -1   -1    0    0    0  501 -0.00000000000E+00  0.00000000000E+00  0.94030664976E+03  0.94030664976E+03  0.00000000000E+00 0.  1.
          2   -1    0    0  501    0  0.00000000000E+00 -0.00000000000E+00 -0.24512529008E+04  0.24512529008E+04  0.00000000000E+00 0. -1.
         24    2    1    2    0    0  0.27050412200E+03  0.11883425205E+04 -0.14256069437E+04  0.18773633305E+04  0.82507520304E+02 0.  0.
        254    2    1    2    0    0 -0.27050412200E+03 -0.11883425205E+04 -0.85339307356E+02  0.15141962201E+04  0.89452611448E+03 0.  0.
         23    2    4    4    0    0  0.89421798805E+02 -0.12451741863E+03 -0.31691076182E+03  0.36384138026E+03  0.91909049553E+02 0.  0.
         23    2    4    4    0    0 -0.35992592080E+03 -0.10638251018E+04  0.23157145446E+03  0.11503548398E+04  0.91762754762E+02 0.  0.
          2    1    3    3  502    0  0.21572678413E+03  0.10442028660E+04 -0.12707960137E+04  0.16588611090E+04  0.00000000000E+00 0. -1.
         -3    1    3    3    0  502  0.54777337868E+02  0.14413965448E+03 -0.15481093005E+03  0.21850222150E+03  0.00000000000E+00 0.  1.
         11    1    5    5    0    0  0.10751941898E+03 -0.96632916168E+02 -0.27116611164E+03  0.30729368045E+03  0.00000000000E+00 0.  1.
        -11    1    5    5    0    0 -0.18097620173E+02 -0.27884502466E+02 -0.45744650176E+02  0.56547699807E+02  0.00000000000E+00 0. -1.
          3    1    6    6  503    0 -0.13292993376E+03 -0.26733933977E+03  0.65660004902E+02  0.30569907773E+03  0.00000000000E+00 0. -1.
         -3    1    6    6    0  503 -0.22699598704E+03 -0.79648576206E+03  0.16591144956E+03  0.84465576207E+03  0.00000000000E+00 0.  1.
<mgrwt>
<rscale>  0 0.30363988E+04</rscale>
<asrwt>0</asrwt>
<pdfrwt beam="1">  1        2 0.37711583E+00 0.30363988E+04</pdfrwt>
<pdfrwt beam="2">  1       -1 0.14466256E+00 0.30363988E+04</pdfrwt>
<totfact> 0.13851294E+00</totfact>
</mgrwt>
</event>
<event>
12    6  0.1510140E-007  0.1407759E+04  0.7818608E-02  0.8948221E-01
         -1   -1    0    0    0  501 -0.00000000000E+00  0.00000000000E+00  0.20822352401E+03  0.20822352401E+03  0.00000000000E+00 0.  1.
          2   -1    0    0  501    0  0.00000000000E+00 -0.00000000000E+00 -0.23793969739E+04  0.23793969739E+04  0.00000000000E+00 0. -1.
         24    2    1    2    0    0 -0.38075130697E+03 -0.11021132409E+03 -0.41725037961E+03  0.58157797870E+03  0.83767370195E+02 0.  0.
        254    2    1    2    0    0  0.38075130697E+03  0.11021132409E+03 -0.17539230703E+04  0.20060425192E+04  0.88929317925E+03 0.  0.
         23    2    4    4    0    0  0.38960196137E+03  0.36666402082E+03 -0.16074390799E+04  0.16965650698E+04  0.90776913711E+02 0.  0.
         23    2    4    4    0    0 -0.88506544057E+01 -0.25645269673E+03 -0.14648399040E+03  0.30947744940E+03  0.92045708767E+02 0.  0.
          2    1    3    3  502    0 -0.73618078940E+02  0.11522521932E+02 -0.84754416149E+02  0.11285256362E+03  0.00000000000E+00 0. -1.
         -1    1    3    3    0  502 -0.30713322803E+03 -0.12173384602E+03 -0.33249596346E+03  0.46872541508E+03  0.00000000000E+00 0.  1.
         11    1    5    5    0    0  0.34367568136E+02  0.52617814572E+01 -0.79139251317E+02  0.86439789349E+02  0.00000000000E+00 0.  1.
        -11    1    5    5    0    0  0.35523439324E+03  0.36140223936E+03 -0.15282998286E+04  0.16101252805E+04  0.00000000000E+00 0. -1.
          4    1    6    6  503    0  0.21460669259E+02 -0.15095514026E+02 -0.14694915414E+01  0.26279160453E+02  0.00000000000E+00 0.  1.
         -4    1    6    6    0  503 -0.30311323664E+02 -0.24135718270E+03 -0.14501449886E+03  0.28319828895E+03  0.00000000000E+00 0. -1.
<mgrwt>
<rscale>  0 0.14077591E+04</rscale>
<asrwt>0</asrwt>
<pdfrwt beam="1">  1        2 0.36606109E+00 0.14077591E+04</pdfrwt>
<pdfrwt beam="2">  1       -1 0.32034387E-01 0.14077591E+04</pdfrwt>
<totfact> 0.41239208E+01</totfact>
</mgrwt>
</event>
<event>
12    6  0.1510140E-007  0.1843741E+04  0.7818608E-02  0.8683378E-01
         -1   -1    0    0    0  501 -0.00000000000E+00  0.00000000000E+00  0.57448596526E+03  0.57448596526E+03  0.00000000000E+00 0.  1.
          2   -1    0    0  501    0  0.00000000000E+00 -0.00000000000E+00 -0.14793147139E+04  0.14793147139E+04  0.00000000000E+00 0. -1.
         24    2    1    2    0    0  0.13328763616E+03  0.48310964196E+03 -0.88157231292E+03  0.10172978057E+04  0.81021987602E+02 0.  0.
        254    2    1    2    0    0 -0.13328763616E+03 -0.48310964196E+03 -0.23256435718E+02  0.10365028735E+04  0.90699328816E+03 0.  0.
         23    2    4    4    0    0  0.77151495512E+02 -0.55648030239E+03  0.29220394220E+03  0.64003329976E+03  0.92934389531E+02 0.  0.
         23    2    4    4    0    0 -0.21043913167E+03  0.73370660429E+02 -0.31546037792E+03  0.39646957370E+03  0.89470614605E+02 0.  0.
          2    1    3    3  502    0  0.54593536865E+02  0.22663816077E+03 -0.49016208576E+03  0.54277452087E+03  0.00000000000E+00 0. -1.
         -1    1    3    3    0  502  0.78694099296E+02  0.25647148119E+03 -0.39141022716E+03  0.47452328483E+03  0.00000000000E+00 0.  1.
         11    1    5    5    0    0  0.78130990779E+02 -0.50059182568E+03  0.23002964064E+03  0.55642633226E+03  0.00000000000E+00 0. -1.
        -11    1    5    5    0    0 -0.97949526721E+00 -0.55888476707E+02  0.62174301568E+02  0.83606967503E+02  0.00000000000E+00 0.  1.
          3    1    6    6  503    0 -0.15666615603E+03  0.28933488863E+02 -0.15861677426E+03  0.22481261597E+03  0.00000000000E+00 0. -1.
         -3    1    6    6    0  503 -0.53772975646E+02  0.44437171566E+02 -0.15684360366E+03  0.17165695773E+03  0.00000000000E+00 0.  1.
<mgrwt>
<rscale>  0 0.18437413E+04</rscale>
<asrwt>0</asrwt>
<pdfrwt beam="1">  1        2 0.22758688E+00 0.18437413E+04</pdfrwt>
<pdfrwt beam="2">  1       -1 0.88382457E-01 0.18437413E+04</pdfrwt>
<totfact> 0.17575488E+01</totfact>
</mgrwt>
</event>
<event>
12    6  0.1510140E-007  0.1350924E+04  0.7818608E-02  0.8990129E-01
          2   -1    0    0  501    0  0.00000000000E+00  0.00000000000E+00  0.24866076391E+04  0.24866076391E+04  0.00000000000E+00 0. -1.
         -1   -1    0    0    0  501 -0.00000000000E+00 -0.00000000000E+00 -0.18348235233E+03  0.18348235233E+03  0.00000000000E+00 0.  1.
         24    2    1    2    0    0 -0.14346390607E+03 -0.12850675059E+03  0.54840032417E+02  0.21571992494E+03  0.80198376320E+02 0.  0.
        254    2    1    2    0    0  0.14346390607E+03  0.12850675059E+03  0.22482852544E+04  0.24543700665E+04  0.96542734634E+03 0.  0.
         23    2    4    4    0    0 -0.25917796460E+03  0.18877008314E+03  0.18427666652E+04  0.18727034167E+04  0.91770054884E+02 0.  0.
         23    2    4    4    0    0  0.40264187068E+03 -0.60263332544E+02  0.40551858921E+03  0.58166664984E+03  0.90214300777E+02 0.  0.
          2    1    3    3  502    0 -0.60317266746E+01  0.10467640225E+02 -0.18281598190E+01  0.12218649143E+02  0.00000000000E+00 0. -1.
         -1    1    3    3    0  502 -0.13743217940E+03 -0.13897439082E+03  0.56668192236E+02  0.20350127579E+03  0.00000000000E+00 0.  1.
         11    1    5    5    0    0 -0.19938784495E+03  0.18721418116E+03  0.14867947232E+04  0.15117417806E+04  0.00000000000E+00 0. -1.
        -11    1    5    5    0    0 -0.59790119652E+02  0.15559019815E+01  0.35597194201E+03  0.36096163610E+03  0.00000000000E+00 0.  1.
          1    1    6    6  503    0  0.13733442334E+03 -0.19399523933E+02  0.81394505119E+02  0.16081713474E+03  0.00000000000E+00 0. -1.
         -1    1    6    6    0  503  0.26530744734E+03 -0.40863808611E+02  0.32412408410E+03  0.42084951510E+03  0.00000000000E+00 0.  1.
<mgrwt>
<rscale>  0 0.13509236E+04</rscale>
<asrwt>0</asrwt>
<pdfrwt beam="1">  1        2 0.38255500E+00 0.13509236E+04</pdfrwt>
<pdfrwt beam="2">  1       -1 0.28228056E-01 0.13509236E+04</pdfrwt>
<totfact> 0.44934108E+01</totfact>
</mgrwt>
</event>
<event>
12    6  0.1510140E-007  0.1451410E+04  0.7818608E-02  0.8917423E-01
         -1   -1    0    0    0  501 -0.00000000000E+00  0.00000000000E+00  0.30218076137E+03  0.30218076137E+03  0.00000000000E+00 0.  1.
          2   -1    0    0  501    0  0.00000000000E+00 -0.00000000000E+00 -0.17428246750E+04  0.17428246750E+04  0.00000000000E+00 0. -1.
         24    2    1    2    0    0  0.11480654982E+03  0.32827577446E+03 -0.80898280249E+03  0.88516168908E+03  0.90069490519E+02 0.  0.
        254    2    1    2    0    0 -0.11480654982E+03 -0.32827577446E+03 -0.63166111115E+03  0.11598437473E+04  0.90845816128E+03 0.  0.
         23    2    4    4    0    0 -0.30095632953E+03  0.21113440276E+03 -0.35658024857E+03  0.52011211467E+03  0.90634926200E+02 0.  0.
         23    2    4    4    0    0  0.18614977971E+03 -0.53941017722E+03 -0.27508086258E+03  0.63973163262E+03  0.89286062943E+02 0.  0.
          2    1    3    3  502    0  0.99996338887E+02  0.29036916137E+03 -0.76924235271E+03  0.82827973225E+03  0.00000000000E+00 0. -1.
         -1    1    3    3    0  502  0.14810210928E+02  0.37906613097E+02 -0.39740449782E+02  0.56881956832E+02  0.00000000000E+00 0.  1.
         11    1    5    5    0    0 -0.22500965312E+03  0.17373279823E+03 -0.22016052181E+03  0.35955957023E+03  0.00000000000E+00 0. -1.
        -11    1    5    5    0    0 -0.75946676407E+02  0.37401604528E+02 -0.13641972676E+03  0.16055254444E+03  0.00000000000E+00 0.  1.
          2    1    6    6  503    0  0.16698944128E+03 -0.42246052722E+03 -0.25029774149E+03  0.51865916549E+03  0.00000000000E+00 0. -1.
         -2    1    6    6    0  503  0.19160338437E+02 -0.11694965000E+03 -0.24783121096E+02  0.12107246713E+03  0.00000000000E+00 0.  1.
<mgrwt>
<rscale>  0 0.14514105E+04</rscale>
<asrwt>0</asrwt>
<pdfrwt beam="1">  1        2 0.26812687E+00 0.14514105E+04</pdfrwt>
<pdfrwt beam="2">  1       -1 0.46489349E-01 0.14514105E+04</pdfrwt>
<totfact> 0.47248598E+01</totfact>
</mgrwt>
</event>
<event>
12    6  0.1510140E-007  0.1440081E+04  0.7818608E-02  0.8925306E-01
          2   -1    0    0  501    0  0.00000000000E+00  0.00000000000E+00  0.61637309157E+03  0.61637309157E+03  0.00000000000E+00 0. -1.
         -1   -1    0    0    0  501 -0.00000000000E+00 -0.00000000000E+00 -0.84114343133E+03  0.84114343133E+03  0.00000000000E+00 0.  1.
         24    2    1    2    0    0  0.22862157067E+03 -0.80133198974E+02  0.28365576980E+03  0.38143337654E+03  0.79634620889E+02 0.  0.
        254    2    1    2    0    0 -0.22862157067E+03  0.80133198974E+02 -0.50842610956E+03  0.10760831464E+04  0.91693439070E+03 0.  0.
         23    2    4    4    0    0  0.40803331980E+02 -0.27421091695E+02  0.24354074713E+03  0.26496216178E+03  0.92065321879E+02 0.  0.
         23    2    4    4    0    0 -0.26942490265E+03  0.10755429067E+03 -0.75196685669E+03  0.81112098458E+03  0.91133936947E+02 0.  0.
          4    1    3    3  502    0  0.36219435886E+01 -0.27028579098E+00  0.40485054066E+02  0.40647646088E+02  0.00000000000E+00 0. -1.
         -3    1    3    3    0  502  0.22499962708E+03 -0.79862913183E+02  0.24317071573E+03  0.34078573045E+03  0.00000000000E+00 0.  1.
         11    1    5    5    0    0 -0.27173400066E+02  0.32121222448E+01  0.42562526721E+02  0.50599210283E+02  0.00000000000E+00 0.  1.
        -11    1    5    5    0    0  0.67976732046E+02 -0.30633213940E+02  0.20097822041E+03  0.21436295150E+03  0.00000000000E+00 0. -1.
          3    1    6    6  503    0 -0.25240522200E+03  0.72155904898E+02 -0.61625455750E+03  0.66983919738E+03  0.00000000000E+00 0. -1.
         -3    1    6    6    0  503 -0.17019680647E+02  0.35398385771E+02 -0.13571229919E+03  0.14128178720E+03  0.00000000000E+00 0.  1.
<mgrwt>
<rscale>  0 0.14400808E+04</rscale>
<asrwt>0</asrwt>
<pdfrwt beam="1">  1        2 0.94826630E-01 0.14400808E+04</pdfrwt>
<pdfrwt beam="2">  1       -1 0.12940668E+00 0.14400808E+04</pdfrwt>
<totfact> 0.27314456E+01</totfact>
</mgrwt>
</event>
<event>
12    6  0.1510140E-007  0.3451990E+04  0.7818608E-02  0.8125263E-01
          2   -1    0    0  501    0  0.00000000000E+00  0.00000000000E+00  0.20103418914E+04  0.20103418914E+04  0.00000000000E+00 0. -1.
         -1   -1    0    0    0  501 -0.00000000000E+00 -0.00000000000E+00 -0.14818669039E+04  0.14818669039E+04  0.00000000000E+00 0.  1.
         24    2    1    2    0    0  0.67753473266E+03  0.11637340592E+04 -0.63287379568E+03  0.14905115476E+04  0.88120131978E+02 0.  0.
        254    2    1    2    0    0 -0.67753473266E+03 -0.11637340592E+04  0.11613487831E+04  0.20016972477E+04  0.91909227022E+03 0.  0.
         23    2    4    4    0    0 -0.40547156010E+02  0.75046131967E+02  0.38447066358E+03  0.40407176198E+03  0.90445032452E+02 0.  0.
         23    2    4    4    0    0 -0.63698757665E+03 -0.12387801912E+04  0.77687811951E+03  0.15976254858E+04  0.92401544289E+02 0.  0.
          2    1    3    3  502    0  0.89436241172E+02  0.20081713126E+03 -0.12820874621E+03  0.25448741432E+03  0.00000000000E+00 0. -1.
         -1    1    3    3    0  502  0.58809849149E+03  0.96291692793E+03 -0.50466504947E+03  0.12360241332E+04  0.00000000000E+00 0.  1.
         11    1    5    5    0    0 -0.27431755736E+02 -0.38348437728E+01  0.21392002729E+03  0.21570578417E+03  0.00000000000E+00 0.  1.
        -11    1    5    5    0    0 -0.13115400274E+02  0.78880975739E+02  0.17055063629E+03  0.18836597781E+03  0.00000000000E+00 0. -1.
          4    1    6    6  503    0 -0.19552491956E+03 -0.31762479790E+03  0.24161939039E+03  0.44440458618E+03  0.00000000000E+00 0. -1.
         -4    1    6    6    0  503 -0.44146265709E+03 -0.92115539326E+03  0.53525872912E+03  0.11532208996E+04  0.00000000000E+00 0.  1.
<mgrwt>
<rscale>  0 0.34519902E+04</rscale>
<asrwt>0</asrwt>
<pdfrwt beam="1">  1        2 0.30928337E+00 0.34519902E+04</pdfrwt>
<pdfrwt beam="2">  1       -1 0.22797952E+00 0.34519902E+04</pdfrwt>
<totfact> 0.60230062E-01</totfact>
</mgrwt>
</event>
<event>
12    6  0.1510140E-007  0.2462691E+04  0.7818608E-02  0.8416399E-01
          2   -1    0    0  501    0  0.00000000000E+00  0.00000000000E+00  0.11008881060E+04  0.11008881060E+04  0.00000000000E+00 0. -1.
         -1   -1    0    0    0  501 -0.00000000000E+00 -0.00000000000E+00 -0.13772627047E+04  0.13772627047E+04  0.00000000000E+00 0.  1.
         24    2    1    2    0    0 -0.62171097958E+03  0.21457353407E+03 -0.96743153609E+03  0.11725836385E+04  0.80388236607E+02 0.  0.
        254    2    1    2    0    0  0.62171097958E+03 -0.21457353407E+03  0.69105693733E+03  0.13055671722E+04  0.89127975794E+03 0.  0.
         23    2    4    4    0    0 -0.14748271026E+03  0.10617919777E+03  0.34090525828E+03  0.39712202198E+03  0.92001811663E+02 0.  0.
         23    2    4    4    0    0  0.76919368984E+03 -0.32075273185E+03  0.35015167905E+03  0.90844515026E+03  0.90139587343E+02 0.  0.
          2    1    3    3  502    0 -0.16770286723E+02  0.17314648473E+02 -0.20026725440E+02  0.31338623141E+02  0.00000000000E+00 0. -1.
         -1    1    3    3    0  502 -0.60494069286E+03  0.19725888560E+03 -0.94740481065E+03  0.11412450153E+04  0.00000000000E+00 0.  1.
         11    1    5    5    0    0 -0.70731103917E+02  0.56456432629E+02  0.25899795488E+03  0.27435407502E+03  0.00000000000E+00 0. -1.
        -11    1    5    5    0    0 -0.76751606342E+02  0.49722765146E+02  0.81907303397E+02  0.12276794695E+03  0.00000000000E+00 0.  1.
          3    1    6    6  503    0  0.47231448466E+03 -0.18528714397E+03  0.16643959723E+03  0.53396108253E+03  0.00000000000E+00 0. -1.
         -3    1    6    6    0  503  0.29687920518E+03 -0.13546558788E+03  0.18371208183E+03  0.37448406772E+03  0.00000000000E+00 0.  1.
<mgrwt>
<rscale>  0 0.24626913E+04</rscale>
<asrwt>0</asrwt>
<pdfrwt beam="1">  1        2 0.16936740E+00 0.24626913E+04</pdfrwt>
<pdfrwt beam="2">  1       -1 0.21188657E+00 0.24626913E+04</pdfrwt>
<totfact> 0.27697365E+00</totfact>
</mgrwt>
</event>
<event>
12    6  0.1510140E-007  0.2125684E+04  0.7818608E-02  0.8550013E-01
          2   -1    0    0  501    0  0.00000000000E+00  0.00000000000E+00  0.18552676196E+04  0.18552676196E+04  0.00000000000E+00 0. -1.
         -1   -1    0    0    0  501 -0.00000000000E+00 -0.00000000000E+00 -0.60887868000E+03  0.60887868000E+03  0.00000000000E+00 0.  1.
         24    2    1    2    0    0  0.36032895153E+03  0.70509772361E+03  0.84288283081E+03  0.11591818302E+04  0.79065136477E+02 0.  0.
        254    2    1    2    0    0 -0.36032895153E+03 -0.70509772361E+03  0.40350610876E+03  0.13049644694E+04  0.95557068467E+03 0.  0.
         23    2    4    4    0    0 -0.31066264995E+03 -0.73777941948E+03 -0.79374453902E+02  0.80991670513E+03  0.93994741497E+02 0.  0.
         23    2    4    4    0    0 -0.49666301583E+02  0.32681695871E+02  0.48288056267E+03  0.49504776426E+03  0.91453902813E+02 0.  0.
          4    1    3    3  502    0  0.70218084488E+02  0.16469090086E+03  0.23712154594E+03  0.29712000903E+03  0.00000000000E+00 0. -1.
         -3    1    3    3    0  502  0.29011086705E+03  0.54040682275E+03  0.60576128487E+03  0.86206182116E+03  0.00000000000E+00 0.  1.
         11    1    5    5    0    0 -0.15081771348E+03 -0.45091922317E+03 -0.76016459620E+02  0.48151077938E+03  0.00000000000E+00 0. -1.
        -11    1    5    5    0    0 -0.15984493647E+03 -0.28686019631E+03 -0.33579942823E+01  0.32840592575E+03  0.00000000000E+00 0.  1.
          3    1    6    6  503    0 -0.43425291581E+02 -0.25592475747E+02  0.23200269098E+03  0.23741520463E+03  0.00000000000E+00 0. -1.
         -3    1    6    6    0  503 -0.62410100016E+01  0.58274171618E+02  0.25087787168E+03  0.25763255963E+03  0.00000000000E+00 0.  1.
<mgrwt>
<rscale>  0 0.21256838E+04</rscale>
<asrwt>0</asrwt>
<pdfrwt beam="1">  1        2 0.28542578E+00 0.21256838E+04</pdfrwt>
<pdfrwt beam="2">  1       -1 0.93673644E-01 0.21256838E+04</pdfrwt>
<totfact> 0.93026318E+00</totfact>
</mgrwt>
</event>
<event>
12    6  0.1510140E-007  0.1299043E+04  0.7818608E-02  0.9030324E-01
         -1   -1    0    0    0  501 -0.00000000000E+00  0.00000000000E+00  0.58701459603E+03  0.58701459603E+03  0.00000000000E+00 0.  1.
          2   -1    0    0  501    0  0.00000000000E+00 -0.00000000000E+00 -0.71868427668E+03  0.71868427668E+03  0.00000000000E+00 0. -1.
         24    2    1    2    0    0 -0.14662982573E+03 -0.12053988713E+03  0.24177006974E+03  0.31589738523E+03  0.72857540346E+02 0.  0.
        254    2    1    2    0    0  0.14662982573E+03  0.12053988713E+03 -0.37343975039E+03  0.98980148748E+03  0.89678289862E+03 0.  0.
         23    2    4    4    0    0 -0.14763291038E+03  0.44513249552E+02  0.23998597453E+03  0.29924454310E+03  0.90427446015E+02 0.  0.
         23    2    4    4    0    0  0.29426273612E+03  0.76026637580E+02 -0.61342572492E+03  0.69055694437E+03  0.90593410024E+02 0.  0.
          4    1    3    3  502    0 -0.13554314223E+03 -0.71989623702E+02  0.17969130347E+03  0.23631211113E+03  0.00000000000E+00 0. -1.
         -3    1    3    3    0  502 -0.11086683503E+02 -0.48550263430E+02  0.62078766274E+02  0.79585274092E+02  0.00000000000E+00 0.  1.
         11    1    5    5    0    0 -0.14415438618E+03  0.11187960275E+02  0.18419704801E+03  0.23416705576E+03  0.00000000000E+00 0. -1.
        -11    1    5    5    0    0 -0.34785242019E+01  0.33325289277E+02  0.55788926521E+02  0.65077487339E+02  0.00000000000E+00 0.  1.
          3    1    6    6  503    0  0.30058767657E+03  0.74689169831E+02 -0.60693084481E+03  0.68139303913E+03  0.00000000000E+00 0. -1.
         -3    1    6    6    0  503 -0.63249404481E+01  0.13374677487E+01 -0.64948801058E+01  0.91639052395E+01  0.00000000000E+00 0.  1.
<mgrwt>
<rscale>  0 0.12990430E+04</rscale>
<asrwt>0</asrwt>
<pdfrwt beam="1">  1        2 0.11056681E+00 0.12990430E+04</pdfrwt>
<pdfrwt beam="2">  1       -1 0.90309938E-01 0.12990430E+04</pdfrwt>
<totfact> 0.53201270E+01</totfact>
</mgrwt>
</event>
<event>
12    6  0.1510140E-007  0.2085046E+04  0.7818608E-02  0.8567859E-01
         -1   -1    0    0    0  501 -0.00000000000E+00  0.00000000000E+00  0.26631440962E+03  0.26631440962E+03  0.00000000000E+00 0.  1.
          2   -1    0    0  501    0  0.00000000000E+00 -0.00000000000E+00 -0.40810957245E+04  0.40810957245E+04  0.00000000000E+00 0. -1.
         24    2    1    2    0    0 -0.42519207162E+02  0.47811212972E+02 -0.33110831180E+04  0.33126578368E+04  0.79603607186E+02 0.  0.
        254    2    1    2    0    0  0.42519207162E+02 -0.47811212972E+02 -0.50369819689E+03  0.10347522973E+04  0.90161335849E+03 0.  0.
         23    2    4    4    0    0 -0.32911709323E+03  0.14543699989E+03 -0.47874944184E+03  0.60549602500E+03  0.89187590177E+02 0.  0.
         23    2    4    4    0    0  0.37163630039E+03 -0.19324821286E+03 -0.24948755048E+02  0.42925627233E+03  0.90443879920E+02 0.  0.
          2    1    3    3  502    0 -0.39149778689E+02  0.52566869135E+01 -0.25967190460E+04  0.25970194727E+04  0.00000000000E+00 0. -1.
         -1    1    3    3    0  502 -0.33694284728E+01  0.42554526058E+02 -0.71436407198E+03  0.71563836403E+03  0.00000000000E+00 0.  1.
         11    1    5    5    0    0 -0.25070540423E+03  0.11765461233E+03 -0.29969107488E+03  0.40805703998E+03  0.00000000000E+00 0.  1.
        -11    1    5    5    0    0 -0.78411688998E+02  0.27782387557E+02 -0.17905836695E+03  0.19743898502E+03  0.00000000000E+00 0. -1.
          4    1    6    6  503    0  0.26838244754E+03 -0.10304718525E+03 -0.44005702830E+02  0.29083390864E+03  0.00000000000E+00 0.  1.
         -4    1    6    6    0  503  0.10325385285E+03 -0.90201027602E+02  0.19056947782E+02  0.13842236368E+03  0.00000000000E+00 0. -1.
<mgrwt>
<rscale>  0 0.20850464E+04</rscale>
<asrwt>0</asrwt>
<pdfrwt beam="1">  1        2 0.62786090E+00 0.20850464E+04</pdfrwt>
<pdfrwt beam="2">  1       -1 0.40971446E-01 0.20850464E+04</pdfrwt>
<totfact> 0.18138998E+00</totfact>
</mgrwt>
</event>
<event>
12    6  0.1510140E-007  0.1498260E+04  0.7818608E-02  0.8885611E-01
          2   -1    0    0  501    0  0.00000000000E+00  0.00000000000E+00  0.29748900995E+04  0.29748900995E+04  0.00000000000E+00 0. -1.
         -1   -1    0    0    0  501 -0.00000000000E+00 -0.00000000000E+00 -0.18864411084E+03  0.18864411084E+03  0.00000000000E+00 0.  1.
         24    2    1    2    0    0 -0.60819797385E+02 -0.32369194699E+03  0.16732995355E+04  0.17072463967E+04  0.79267895462E+02 0.  0.
        254    2    1    2    0    0  0.60819797385E+02  0.32369194699E+03  0.11129464531E+04  0.14562878136E+04  0.87957311478E+03 0.  0.
         23    2    4    4    0    0  0.44467582953E+03  0.50853601847E+02  0.48828047412E+03  0.66876804558E+03  0.92250719224E+02 0.  0.
         23    2    4    4    0    0 -0.38385603215E+03  0.27283834514E+03  0.62466597900E+03  0.78751976802E+03  0.90518416357E+02 0.  0.
          2    1    3    3  502    0 -0.27502856477E+02 -0.25139497352E+03  0.11163487245E+04  0.11446354505E+04  0.00000000000E+00 0. -1.
         -1    1    3    3    0  502 -0.33316940908E+02 -0.72296973468E+02  0.55695081106E+03  0.56261094627E+03  0.00000000000E+00 0.  1.
         11    1    5    5    0    0  0.24635161603E+03  0.46017599787E+02  0.33338989983E+03  0.41707980474E+03  0.00000000000E+00 0. -1.
        -11    1    5    5    0    0  0.19832421350E+03  0.48360020607E+01  0.15489057429E+03  0.25168824085E+03  0.00000000000E+00 0.  1.
          3    1    6    6  503    0 -0.22167791086E+03  0.15068861662E+03  0.28086655246E+03  0.38824499434E+03  0.00000000000E+00 0. -1.
         -3    1    6    6    0  503 -0.16217812129E+03  0.12214972852E+03  0.34379942654E+03  0.39927477368E+03  0.00000000000E+00 0.  1.
<mgrwt>
<rscale>  0 0.14982597E+04</rscale>
<asrwt>0</asrwt>
<pdfrwt beam="1">  1        2 0.45767537E+00 0.14982597E+04</pdfrwt>
<pdfrwt beam="2">  1       -1 0.29022173E-01 0.14982597E+04</pdfrwt>
<totfact> 0.21636860E+01</totfact>
</mgrwt>
</event>
<event>
12    6  0.1510140E-007  0.2690101E+04  0.7818608E-02  0.8338224E-01
          2   -1    0    0  501    0  0.00000000000E+00  0.00000000000E+00  0.15302142443E+04  0.15302142443E+04  0.00000000000E+00 0. -1.
         -1   -1    0    0    0  501 -0.00000000000E+00 -0.00000000000E+00 -0.11822925728E+04  0.11822925728E+04  0.00000000000E+00 0.  1.
         24    2    1    2    0    0 -0.12596382345E+03  0.77893927062E+02 -0.10379418393E+04  0.10513873785E+04  0.78471709675E+02 0.  0.
        254    2    1    2    0    0  0.12596382345E+03 -0.77893927062E+02  0.13858635108E+04  0.16611194385E+04  0.90375094460E+03 0.  0.
         23    2    4    4    0    0 -0.38214159480E+03  0.71239762172E+00  0.61650975204E+03  0.73123511152E+03  0.92670426626E+02 0.  0.
         23    2    4    4    0    0  0.50810541825E+03 -0.78606324683E+02  0.76935375874E+03  0.92988432701E+03  0.91812772570E+02 0.  0.
          2    1    3    3  502    0  0.91660967126E+01  0.63789688991E+01 -0.14693879570E+03  0.14736254020E+03  0.00000000000E+00 0. -1.
         -1    1    3    3    0  502 -0.13512992016E+03  0.71514958163E+02 -0.89100304361E+03  0.90402483832E+03  0.00000000000E+00 0.  1.
         11    1    5    5    0    0 -0.35986138560E+03  0.13808659066E+02  0.60227311964E+03  0.70172915469E+03  0.00000000000E+00 0. -1.
        -11    1    5    5    0    0 -0.22280209205E+02 -0.13096261445E+02  0.14236632401E+02  0.29505956826E+02  0.00000000000E+00 0.  1.
          4    1    6    6  503    0  0.23323418663E+03 -0.44044749605E+02  0.43617677817E+03  0.49657658784E+03  0.00000000000E+00 0.  1.
         -4    1    6    6    0  503  0.27487123162E+03 -0.34561575078E+02  0.33317698057E+03  0.43330773917E+03  0.00000000000E+00 0. -1.
<mgrwt>
<rscale>  0 0.26901011E+04</rscale>
<asrwt>0</asrwt>
<pdfrwt beam="1">  1        2 0.23541758E+00 0.26901011E+04</pdfrwt>
<pdfrwt beam="2">  1       -1 0.18189116E+00 0.26901011E+04</pdfrwt>
<totfact> 0.24616364E+00</totfact>
</mgrwt>
</event>
<event>
12    6  0.1510140E-007  0.2630304E+04  0.7818608E-02  0.8357980E-01
         -1   -1    0    0    0  501 -0.00000000000E+00  0.00000000000E+00  0.54284674192E+03  0.54284674192E+03  0.00000000000E+00 0.  1.
          2   -1    0    0  501    0  0.00000000000E+00 -0.00000000000E+00 -0.31862129784E+04  0.31862129784E+04  0.00000000000E+00 0. -1.
         24    2    1    2    0    0  0.30892703025E+03  0.25433467894E+03  0.37390254667E+03  0.55305538258E+03  0.77104493150E+02 0.  0.
        254    2    1    2    0    0 -0.30892703025E+03 -0.25433467894E+03 -0.30172687831E+04  0.31760043377E+04  0.90717727296E+03 0.  0.
         23    2    4    4    0    0 -0.36590683700E+03  0.26334929134E+03 -0.12878743414E+04  0.13676083673E+04  0.92150227616E+02 0.  0.
         23    2    4    4    0    0  0.56979806756E+02 -0.51768397028E+03 -0.17293944417E+04  0.18083959704E+04  0.90815523221E+02 0.  0.
          2    1    3    3  502    0  0.17185652456E+03  0.91728239183E+02  0.17500810876E+03  0.26187129096E+03  0.00000000000E+00 0. -1.
         -1    1    3    3    0  502  0.13707050568E+03  0.16260643976E+03  0.19889443791E+03  0.29118409162E+03  0.00000000000E+00 0.  1.
         11    1    5    5    0    0 -0.49658533877E+02  0.47599647171E+02 -0.30834687194E+03  0.31592639940E+03  0.00000000000E+00 0. -1.
        -11    1    5    5    0    0 -0.31624830312E+03  0.21574964417E+03 -0.97952746942E+03  0.10516819679E+04  0.00000000000E+00 0.  1.
          3    1    6    6  503    0  0.64880016683E+02 -0.50851805088E+03 -0.16418940563E+04  0.17200628235E+04  0.00000000000E+00 0. -1.
         -3    1    6    6    0  503 -0.79002099270E+01 -0.91659193998E+01 -0.87500385403E+02  0.88333146899E+02  0.00000000000E+00 0.  1.
<mgrwt>
<rscale>  0 0.26303044E+04</rscale>
<asrwt>0</asrwt>
<pdfrwt beam="1">  1        2 0.49018661E+00 0.26303044E+04</pdfrwt>
<pdfrwt beam="2">  1       -1 0.83514883E-01 0.26303044E+04</pdfrwt>
<totfact> 0.18890581E+00</totfact>
</mgrwt>
</event>
<event>
12    6  0.1510140E-007  0.1312060E+04  0.7818608E-02  0.9020056E-01
         -1   -1    0    0    0  501 -0.00000000000E+00  0.00000000000E+00  0.76455417080E+03  0.76455417080E+03  0.00000000000E+00 0.  1.
          2   -1    0    0  501    0  0.00000000000E+00 -0.00000000000E+00 -0.56291045116E+03  0.56291045116E+03  0.00000000000E+00 0. -1.
         24    2    1    2    0    0  0.12862366354E+03 -0.18498786262E+02 -0.25625936564E+03  0.29809617348E+03  0.79411675770E+02 0.  0.
        254    2    1    2    0    0 -0.12862366354E+03  0.18498786262E+02  0.45790308527E+03  0.10293684485E+04  0.91270910773E+03 0.  0.
         23    2    4    4    0    0 -0.31394225512E+03  0.37865240486E+03  0.30639874516E+03  0.58726578072E+03  0.95202536231E+02 0.  0.
         23    2    4    4    0    0  0.18531859158E+03 -0.36015361860E+03  0.15150434011E+03  0.44210266777E+03  0.91910795891E+02 0.  0.
          2    1    3    3  502    0  0.12457950922E+03 -0.33665556672E+02 -0.24971677367E+03  0.28109053857E+03  0.00000000000E+00 0. -1.
         -1    1    3    3    0  502  0.40441543169E+01  0.15166770409E+02 -0.65425919710E+01  0.17005634904E+02  0.00000000000E+00 0.  1.
         11    1    5    5    0    0 -0.12602432795E+03  0.95509824760E+02  0.67852285088E+02  0.17207030671E+03  0.00000000000E+00 0.  1.
        -11    1    5    5    0    0 -0.18791792718E+03  0.28314258010E+03  0.23854646008E+03  0.41519547401E+03  0.00000000000E+00 0. -1.
          3    1    6    6  503    0  0.18947606607E+03 -0.33277219612E+03  0.12262301310E+03  0.40208819613E+03  0.00000000000E+00 0. -1.
         -3    1    6    6    0  503 -0.41574744881E+01 -0.27381422483E+02  0.28881327006E+02  0.40014471644E+02  0.00000000000E+00 0.  1.
<mgrwt>
<rscale>  0 0.13120603E+04</rscale>
<asrwt>0</asrwt>
<pdfrwt beam="1">  1        2 0.86601607E-01 0.13120603E+04</pdfrwt>
<pdfrwt beam="2">  1       -1 0.11762372E+00 0.13120603E+04</pdfrwt>
<totfact> 0.38986327E+01</totfact>
</mgrwt>
</event>
<event>
12    6  0.1510140E-007  0.1901101E+04  0.7818608E-02  0.8654308E-01
         -1   -1    0    0    0  501 -0.00000000000E+00  0.00000000000E+00  0.59788371580E+03  0.59788371580E+03  0.00000000000E+00 0.  1.
          2   -1    0    0  501    0  0.00000000000E+00 -0.00000000000E+00 -0.15112412032E+04  0.15112412032E+04  0.00000000000E+00 0. -1.
         24    2    1    2    0    0  0.78913780562E+02 -0.68980745118E+03 -0.10704044421E+03  0.70716724121E+03  0.81031758384E+02 0.  0.
        254    2    1    2    0    0 -0.78913780562E+02  0.68980745118E+03 -0.80631704316E+03  0.14019576778E+04  0.91283977328E+03 0.  0.
         23    2    4    4    0    0  0.36660709601E+03  0.29013644866E+03 -0.59211797936E+03  0.75985303598E+03  0.90515264567E+02 0.  0.
         23    2    4    4    0    0 -0.44552087657E+03  0.39967100252E+03 -0.21419906380E+03  0.64210464179E+03  0.90506189591E+02 0.  0.
          4    1    3    3  502    0  0.84011289333E+02 -0.67545206553E+03 -0.11447575437E+03  0.69021597193E+03  0.00000000000E+00 0. -1.
         -3    1    3    3    0  502 -0.50975087719E+01 -0.14355385654E+02  0.74353101624E+01  0.16951269279E+02  0.00000000000E+00 0.  1.
         11    1    5    5    0    0  0.20147960287E+03  0.18061662172E+03 -0.27411218901E+03  0.38516734879E+03  0.00000000000E+00 0. -1.
        -11    1    5    5    0    0  0.16512749313E+03  0.10951982694E+03 -0.31800579035E+03  0.37468568718E+03  0.00000000000E+00 0.  1.
          3    1    6    6  503    0 -0.84106437649E+02  0.50619861580E+02 -0.63806254245E+01  0.98371619999E+02  0.00000000000E+00 0. -1.
         -3    1    6    6    0  503 -0.36141443892E+03  0.34905114094E+03 -0.20781843837E+03  0.54373302179E+03  0.00000000000E+00 0.  1.
<mgrwt>
<rscale>  0 0.19011013E+04</rscale>
<asrwt>0</asrwt>
<pdfrwt beam="1">  1        2 0.23249865E+00 0.19011013E+04</pdfrwt>
<pdfrwt beam="2">  1       -1 0.91982110E-01 0.19011013E+04</pdfrwt>
<totfact> 0.15363186E+01</totfact>
</mgrwt>
</event>
<event>
12    6  0.1510140E-007  0.1596371E+04  0.7818608E-02  0.8822781E-01
         -1   -1    0    0    0  501 -0.00000000000E+00  0.00000000000E+00  0.25020952620E+03  0.25020952620E+03  0.00000000000E+00 0.  1.
          2   -1    0    0  501    0  0.00000000000E+00 -0.00000000000E+00 -0.25462655081E+04  0.25462655081E+04  0.00000000000E+00 0. -1.
         24    2    1    2    0    0 -0.16699564855E+03  0.41274012376E+03 -0.24382681044E+03  0.51404605792E+03  0.80931327520E+02 0.  0.
        254    2    1    2    0    0  0.16699564855E+03 -0.41274012376E+03 -0.20522291715E+04  0.22824289764E+04  0.89420104211E+03 0.  0.
         23    2    4    4    0    0 -0.24599128684E+03  0.14304785703E+03 -0.55950147977E+03  0.63439139405E+03  0.91848420650E+02 0.  0.
         23    2    4    4    0    0  0.41298693539E+03 -0.55578798079E+03 -0.14927276917E+04  0.16480375824E+04  0.91287583444E+02 0.  0.
          2    1    3    3  502    0 -0.67843909925E+00  0.53597135943E+02 -0.10549578380E+02  0.54629725103E+02  0.00000000000E+00 0. -1.
         -1    1    3    3    0  502 -0.16631720945E+03  0.35914298782E+03 -0.23327723206E+03  0.45941633281E+03  0.00000000000E+00 0.  1.
         11    1    5    5    0    0 -0.72005519202E+01 -0.80686092153E+01 -0.55762192291E+02  0.56801166289E+02  0.00000000000E+00 0.  1.
        -11    1    5    5    0    0 -0.23879073492E+03  0.15111646625E+03 -0.50373928748E+03  0.57759022776E+03  0.00000000000E+00 0. -1.
          3    1    6    6  503    0  0.25653598587E+03 -0.36605009452E+03 -0.86065307102E+03  0.96980776053E+03  0.00000000000E+00 0. -1.
         -3    1    6    6    0  503  0.15645094951E+03 -0.18973788628E+03 -0.63207462072E+03  0.67822982185E+03  0.00000000000E+00 0.  1.
<mgrwt>
<rscale>  0 0.15963707E+04</rscale>
<asrwt>0</asrwt>
<pdfrwt beam="1">  1        2 0.39173314E+00 0.15963707E+04</pdfrwt>
<pdfrwt beam="2">  1       -1 0.38493775E-01 0.15963707E+04</pdfrwt>
<totfact> 0.23407358E+01</totfact>
</mgrwt>
</event>
<event>
12    6  0.1510140E-007  0.2489366E+04  0.7818608E-02  0.8406784E-01
          2   -1    0    0  501    0  0.00000000000E+00  0.00000000000E+00  0.66280847198E+03  0.66280847198E+03  0.00000000000E+00 0. -1.
         -1   -1    0    0    0  501 -0.00000000000E+00 -0.00000000000E+00 -0.23373804363E+04  0.23373804363E+04  0.00000000000E+00 0.  1.
         24    2    1    2    0    0 -0.89214261118E+03 -0.58060843410E+03 -0.57311327443E+03  0.12115693886E+04  0.80105965570E+02 0.  0.
        254    2    1    2    0    0  0.89214261118E+03  0.58060843410E+03 -0.11014586899E+04  0.17886195196E+04  0.92353881787E+03 0.  0.
         23    2    4    4    0    0  0.40123193309E+03  0.10451621652E+02 -0.92123741449E+03  0.10090884167E+04  0.92112747878E+02 0.  0.
         23    2    4    4    0    0  0.49091067808E+03  0.57015681245E+03 -0.18022127537E+03  0.77953110294E+03  0.95482708968E+02 0.  0.
          2    1    3    3  502    0 -0.62525889235E+03 -0.42480658931E+03 -0.44385314976E+03  0.87659280133E+03  0.00000000000E+00 0. -1.
         -1    1    3    3    0  502 -0.26688371883E+03 -0.15580184479E+03 -0.12926012467E+03  0.33497658731E+03  0.00000000000E+00 0.  1.
         11    1    5    5    0    0  0.24791024455E+03  0.39959126175E+02 -0.63851014833E+03  0.68611327828E+03  0.00000000000E+00 0. -1.
        -11    1    5    5    0    0  0.15332168854E+03 -0.29507504524E+02 -0.28272726617E+03  0.32297513842E+03  0.00000000000E+00 0.  1.
          4    1    6    6  503    0 -0.62368860484E+00  0.21849366573E+02 -0.80795845509E+01  0.23303722742E+02  0.00000000000E+00 0. -1.
         -4    1    6    6    0  503  0.49153436669E+03  0.54830744587E+03 -0.17214169082E+03  0.75622738019E+03  0.00000000000E+00 0.  1.
<mgrwt>
<rscale>  0 0.24893658E+04</rscale>
<asrwt>0</asrwt>
<pdfrwt beam="1">  1        2 0.10197054E+00 0.24893658E+04</pdfrwt>
<pdfrwt beam="2">  1       -1 0.35959698E+00 0.24893658E+04</pdfrwt>
<totfact> 0.59969075E-01</totfact>
</mgrwt>
</event>
<event>
12    6  0.1510140E-007  0.2202153E+04  0.7818608E-02  0.8517532E-01
         -1   -1    0    0    0  501 -0.00000000000E+00  0.00000000000E+00  0.12497812226E+04  0.12497812226E+04  0.00000000000E+00 0.  1.
          2   -1    0    0  501    0  0.00000000000E+00 -0.00000000000E+00 -0.97006554784E+03  0.97006554784E+03  0.00000000000E+00 0. -1.
         24    2    1    2    0    0 -0.47864819786E+03 -0.76069744869E+03 -0.68426325261E+02  0.90494509174E+03  0.80490690849E+02 0.  0.
        254    2    1    2    0    0  0.47864819786E+03  0.76069744869E+03  0.34814200002E+03  0.13149016787E+04  0.89442655745E+03 0.  0.
         23    2    4    4    0    0  0.44877145573E+03  0.41809046618E+03 -0.20846176705E+03  0.65416957604E+03  0.91027844620E+02 0.  0.
         23    2    4    4    0    0  0.29876742129E+02  0.34260698251E+03  0.55660376706E+03  0.66073210265E+03  0.92124881439E+02 0.  0.
          4    1    3    3  502    0 -0.31345352343E+02 -0.21169888170E+02 -0.71559587372E+01  0.38495493555E+02  0.00000000000E+00 0. -1.
         -1    1    3    3    0  502 -0.44730284552E+03 -0.73952756052E+03 -0.61270366524E+02  0.86644959819E+03  0.00000000000E+00 0.  1.
         11    1    5    5    0    0  0.24218052341E+02  0.30685975895E+01  0.14279689125E+01  0.24453413782E+02  0.00000000000E+00 0. -1.
        -11    1    5    5    0    0  0.42455340339E+03  0.41502186859E+03 -0.20988973596E+03  0.62971616225E+03  0.00000000000E+00 0.  1.
          4    1    6    6  503    0  0.30081713190E+02  0.27502597986E+02  0.57467699854E+02  0.70454516469E+02  0.00000000000E+00 0. -1.
         -4    1    6    6    0  503 -0.20497106097E+00  0.31510438453E+03  0.49913606721E+03  0.59027758618E+03  0.00000000000E+00 0.  1.
<mgrwt>
<rscale>  0 0.22021532E+04</rscale>
<asrwt>0</asrwt>
<pdfrwt beam="1">  1        2 0.14924085E+00 0.22021532E+04</pdfrwt>
<pdfrwt beam="2">  1       -1 0.19227403E+00 0.22021532E+04</pdfrwt>
<totfact> 0.46759884E+00</totfact>
</mgrwt>
</event>
<event>
12    6  0.1510140E-007  0.2471864E+04  0.7818608E-02  0.8413078E-01
          2   -1    0    0  501    0  0.00000000000E+00  0.00000000000E+00  0.83302942843E+03  0.83302942843E+03  0.00000000000E+00 0. -1.
         -3   -1    0    0    0  501 -0.00000000000E+00 -0.00000000000E+00 -0.18337020530E+04  0.18337020530E+04  0.00000000000E+00 0.  1.
         24    2    1    2    0    0  0.46489958864E+03 -0.78938726410E+02 -0.13667735101E+04  0.14480225482E+04  0.79602275502E+02 0.  0.
        254    2    1    2    0    0 -0.46489958864E+03  0.78938726410E+02  0.36610088553E+03  0.12187089332E+04  0.10624776023E+04 0.  0.
         23    2    4    4    0    0  0.77664510230E+02  0.47226047258E+03  0.15425206462E+03  0.51070611312E+03  0.89248554203E+02 0.  0.
         23    2    4    4    0    0 -0.54256409887E+03 -0.39332174617E+03  0.21184882091E+03  0.70800282006E+03  0.85500133917E+02 0.  0.
          2    1    3    3  502    0  0.59664798089E+02  0.16017584819E+02 -0.19243342480E+03  0.20210659102E+03  0.00000000000E+00 0. -1.
         -1    1    3    3    0  502  0.40523479055E+03 -0.94956311230E+02 -0.11743400853E+04  0.12459159572E+04  0.00000000000E+00 0.  1.
         11    1    5    5    0    0  0.21320616515E+02  0.28060272052E+03  0.12823176333E+03  0.30925044960E+03  0.00000000000E+00 0. -1.
        -11    1    5    5    0    0  0.56343893715E+02  0.19165775206E+03  0.26020301281E+02  0.20145566351E+03  0.00000000000E+00 0.  1.
          3    1    6    6  503    0 -0.47705894490E+03 -0.37418744990E+03  0.17839699238E+03  0.63200235083E+03  0.00000000000E+00 0. -1.
         -3    1    6    6    0  503 -0.65505153975E+02 -0.19134296271E+02  0.33451828529E+02  0.76000469229E+02  0.00000000000E+00 0.  1.
<mgrwt>
<rscale>  0 0.24718639E+04</rscale>
<asrwt>0</asrwt>
<pdfrwt beam="1">  1        2 0.12815838E+00 0.24718639E+04</pdfrwt>
<pdfrwt beam="2">  1       -3 0.28210800E+00 0.24718639E+04</pdfrwt>
<totfact> 0.87438972E-01</totfact>
</mgrwt>
</event>
<event>
12    6  0.1510140E-007  0.2704349E+04  0.7818608E-02  0.8333595E-01
          2   -1    0    0  501    0  0.00000000000E+00  0.00000000000E+00  0.14509359156E+04  0.14509359156E+04  0.00000000000E+00 0. -1.
         -1   -1    0    0    0  501 -0.00000000000E+00 -0.00000000000E+00 -0.12601355124E+04  0.12601355124E+04  0.00000000000E+00 0.  1.
         24    2    1    2    0    0 -0.24750493977E+03 -0.10717965731E+03  0.12569055663E+04  0.12880977960E+04  0.81474874191E+02 0.  0.
        254    2    1    2    0    0  0.24750493977E+03  0.10717965731E+03 -0.10661051631E+04  0.14229736321E+04  0.90306564803E+03 0.  0.
         23    2    4    4    0    0  0.42545864208E+03  0.78686964303E+02 -0.12381726444E+03  0.45936996959E+03  0.92105154708E+02 0.  0.
         23    2    4    4    0    0 -0.17795370231E+03  0.28492693006E+02 -0.94228789865E+03  0.96360366248E+03  0.90256194661E+02 0.  0.
          4    1    3    3  502    0 -0.22113966606E+03 -0.65532343056E+02  0.97449106092E+03  0.10014140341E+04  0.00000000000E+00 0. -1.
         -3    1    3    3    0  502 -0.26365273706E+02 -0.41647314253E+02  0.28241450541E+03  0.28668376185E+03  0.00000000000E+00 0.  1.
         11    1    5    5    0    0  0.19169192407E+03  0.30093676761E+02 -0.85233536112E+01  0.19422685369E+03  0.00000000000E+00 0. -1.
        -11    1    5    5    0    0  0.23376671800E+03  0.48593287542E+02 -0.11529391083E+03  0.26514311591E+03  0.00000000000E+00 0.  1.
          4    1    6    6  503    0 -0.10651876136E+03  0.33296916508E+02 -0.75304900022E+03  0.76127375359E+03  0.00000000000E+00 0. -1.
         -4    1    6    6    0  503 -0.71434940943E+02 -0.48042235018E+01 -0.18923889843E+03  0.20232990888E+03  0.00000000000E+00 0.  1.
<mgrwt>
<rscale>  0 0.27043490E+04</rscale>
<asrwt>0</asrwt>
<pdfrwt beam="1">  1        2 0.22322091E+00 0.27043490E+04</pdfrwt>
<pdfrwt beam="2">  1       -1 0.19386700E+00 0.27043490E+04</pdfrwt>
<totfact> 0.22442148E+00</totfact>
</mgrwt>
</event>
<event>
12    6  0.1510140E-007  0.1994202E+04  0.7818608E-02  0.8609336E-01
         -1   -1    0    0    0  501 -0.00000000000E+00  0.00000000000E+00  0.48108223054E+03  0.48108223054E+03  0.00000000000E+00 0.  1.
          2   -1    0    0  501    0  0.00000000000E+00 -0.00000000000E+00 -0.20666116392E+04  0.20666116392E+04  0.00000000000E+00 0. -1.
         24    2    1    2    0    0 -0.70006380737E+03  0.23081650275E+03 -0.10009814275E+04  0.12456639571E+04  0.79682391202E+02 0.  0.
        254    2    1    2    0    0  0.70006380737E+03 -0.23081650275E+03 -0.58454798115E+03  0.13020299126E+04  0.90012219103E+03 0.  0.
         23    2    4    4    0    0  0.75990024545E+03  0.95571747690E+02 -0.56637622572E+03  0.95739985331E+03  0.96177482124E+02 0.  0.
         23    2    4    4    0    0 -0.59836438076E+02 -0.32638825044E+03 -0.18171755427E+02  0.34463005932E+03  0.91268700791E+02 0.  0.
          4    1    3    3  502    0 -0.20070923925E+03  0.66690729905E+02 -0.35029152882E+03  0.40918945165E+03  0.00000000000E+00 0. -1.
         -3    1    3    3    0  502 -0.49935456813E+03  0.16412577284E+03 -0.65068989865E+03  0.83647450543E+03  0.00000000000E+00 0.  1.
         11    1    5    5    0    0  0.37175898900E+03  0.13465496553E+02 -0.23084619598E+03  0.43780821337E+03  0.00000000000E+00 0.  1.
        -11    1    5    5    0    0  0.38814125645E+03  0.82106251137E+02 -0.33553002974E+03  0.51959163994E+03  0.00000000000E+00 0. -1.
          3    1    6    6  503    0 -0.55167144459E+01 -0.25101531050E+03 -0.84825382965E+01  0.25121917463E+03  0.00000000000E+00 0. -1.
         -3    1    6    6    0  503 -0.54319723630E+02 -0.75372939935E+02 -0.96892171302E+01  0.93410884689E+02  0.00000000000E+00 0.  1.
<mgrwt>
<rscale>  0 0.19942017E+04</rscale>
<asrwt>0</asrwt>
<pdfrwt beam="1">  1        2 0.31794025E+00 0.19942017E+04</pdfrwt>
<pdfrwt beam="2">  1       -1 0.74012651E-01 0.19942017E+04</pdfrwt>
<totfact> 0.11931154E+01</totfact>
</mgrwt>
</event>
<event>
12    6  0.1510140E-007  0.1231404E+04  0.7818608E-02  0.9085805E-01
         -1   -1    0    0    0  501 -0.00000000000E+00  0.00000000000E+00  0.73917961348E+03  0.73917961348E+03  0.00000000000E+00 0.  1.
          2   -1    0    0  501    0  0.00000000000E+00 -0.00000000000E+00 -0.51285054093E+03  0.51285054093E+03  0.00000000000E+00 0. -1.
         24    2    1    2    0    0 -0.43201752856E+02  0.98434003491E+01 -0.23357265131E+03  0.25093799514E+03  0.80314444443E+02 0.  0.
        254    2    1    2    0    0  0.43201752856E+02 -0.98434003491E+01  0.45990172386E+03  0.10010921593E+04  0.88809494524E+03 0.  0.
         23    2    4    4    0    0  0.43424845825E+03 -0.44740226401E+02  0.89824817514E+02  0.45430141053E+03  0.88021942789E+02 0.  0.
         23    2    4    4    0    0 -0.39104670540E+03  0.34896826052E+02  0.37007690635E+03  0.54679074874E+03  0.88813805398E+02 0.  0.
          4    1    3    3  502    0 -0.42306539823E+02  0.62169460195E+01 -0.23985077715E+03  0.24363269286E+03  0.00000000000E+00 0. -1.
         -1    1    3    3    0  502 -0.89521303266E+00  0.36264543295E+01  0.62781258416E+01  0.73053022841E+01  0.00000000000E+00 0.  1.
         11    1    5    5    0    0  0.31504341699E+03 -0.64602483711E+02  0.88071269174E+02  0.33344022545E+03  0.00000000000E+00 0.  1.
        -11    1    5    5    0    0  0.11920504126E+03  0.19862257311E+02  0.17535483400E+01  0.12086118508E+03  0.00000000000E+00 0. -1.
          2    1    6    6  503    0 -0.23516368662E+03  0.33895958087E+02  0.27817499692E+03  0.36583086856E+03  0.00000000000E+00 0. -1.
         -2    1    6    6    0  503 -0.15588301878E+03  0.10008679643E+01  0.91901909428E+02  0.18095988019E+03  0.00000000000E+00 0.  1.
<mgrwt>
<rscale>  0 0.12314035E+04</rscale>
<asrwt>0</asrwt>
<pdfrwt beam="1">  1        2 0.78900083E-01 0.12314035E+04</pdfrwt>
<pdfrwt beam="2">  1       -1 0.11371994E+00 0.12314035E+04</pdfrwt>
<totfact> 0.47484072E+01</totfact>
</mgrwt>
</event>
<event>
12    6  0.1510140E-007  0.1755993E+04  0.7818608E-02  0.8730059E-01
          2   -1    0    0  501    0  0.00000000000E+00  0.00000000000E+00  0.10157705419E+04  0.10157705419E+04  0.00000000000E+00 0. -1.
         -1   -1    0    0    0  501 -0.00000000000E+00 -0.00000000000E+00 -0.75890914261E+03  0.75890914261E+03  0.00000000000E+00 0.  1.
         24    2    1    2    0    0  0.15382209415E+03  0.18503566596E+03  0.70148797566E+03  0.74576629983E+03  0.78629254320E+02 0.  0.
        254    2    1    2    0    0 -0.15382209415E+03 -0.18503566596E+03 -0.44462657640E+03  0.10289133847E+04  0.89614202353E+03 0.  0.
         23    2    4    4    0    0 -0.13995330240E+03  0.23096419684E+03  0.13009000555E+03  0.31380514810E+03  0.92837892899E+02 0.  0.
         23    2    4    4    0    0 -0.13868791755E+02 -0.41599986280E+03 -0.57471658195E+03  0.71510823655E+03  0.88500910567E+02 0.  0.
          2    1    3    3  502    0  0.14318672346E+03  0.13141283486E+03  0.48519923919E+03  0.52267587725E+03  0.00000000000E+00 0. -1.
         -1    1    3    3    0  502  0.10635370693E+02  0.53622831107E+02  0.21628873647E+03  0.22309042258E+03  0.00000000000E+00 0.  1.
         11    1    5    5    0    0 -0.82566782984E+02  0.62358162013E+02  0.73532310382E+02  0.12693626232E+03  0.00000000000E+00 0. -1.
        -11    1    5    5    0    0 -0.57386519412E+02  0.16860603483E+03  0.56557695168E+02  0.18686888578E+03  0.00000000000E+00 0.  1.
          1    1    6    6  503    0  0.11008517213E+02 -0.26690903199E+01 -0.18316245604E+02  0.21535931542E+02  0.00000000000E+00 0. -1.
         -1    1    6    6    0  503 -0.24877308968E+02 -0.41333077248E+03 -0.55640033635E+03  0.69357230501E+03  0.00000000000E+00 0.  1.
<mgrwt>
<rscale>  0 0.17559927E+04</rscale>
<asrwt>0</asrwt>
<pdfrwt beam="1">  1        2 0.15627239E+00 0.17559927E+04</pdfrwt>
<pdfrwt beam="2">  1       -1 0.11675525E+00 0.17559927E+04</pdfrwt>
<totfact> 0.17604661E+01</totfact>
</mgrwt>
</event>
<event>
12    6  0.1510140E-007  0.1663843E+04  0.7818608E-02  0.8782259E-01
         -1   -1    0    0    0  501 -0.00000000000E+00  0.00000000000E+00  0.69325888325E+03  0.69325888325E+03  0.00000000000E+00 0.  1.
          2   -1    0    0  501    0  0.00000000000E+00 -0.00000000000E+00 -0.99831843709E+03  0.99831843709E+03  0.00000000000E+00 0. -1.
         24    2    1    2    0    0 -0.44899331135E+03  0.14666459090E+02 -0.47780625300E+03  0.66039642568E+03  0.77553368607E+02 0.  0.
        254    2    1    2    0    0  0.44899331135E+03 -0.14666459090E+02  0.17274669916E+03  0.10311808947E+04  0.91196629146E+03 0.  0.
         23    2    4    4    0    0  0.38255567763E+03 -0.20674439446E+03 -0.28099075706E+03  0.52595311249E+03  0.92621702980E+02 0.  0.
         23    2    4    4    0    0  0.66437633723E+02  0.19207793537E+03  0.45373745622E+03  0.50522778216E+03  0.89830619864E+02 0.  0.
          4    1    3    3  502    0 -0.37763329944E+03 -0.16525160847E+02 -0.39721526711E+03  0.54832468320E+03  0.00000000000E+00 0. -1.
         -3    1    3    3    0  502 -0.71360011916E+02  0.31191619937E+02 -0.80590985893E+02  0.11207174248E+03  0.00000000000E+00 0.  1.
         11    1    5    5    0    0  0.31725558497E+03 -0.19466564955E+03 -0.26702707324E+03  0.45809309005E+03  0.00000000000E+00 0. -1.
        -11    1    5    5    0    0  0.65300092658E+02 -0.12078744903E+02 -0.13963683817E+02  0.67860022438E+02  0.00000000000E+00 0.  1.
          3    1    6    6  503    0  0.59800744415E+02  0.14365654068E+03  0.41386967037E+03  0.44215544186E+03  0.00000000000E+00 0. -1.
         -3    1    6    6    0  503  0.66368893081E+01  0.48421394686E+02  0.39867785846E+02  0.63072340303E+02  0.00000000000E+00 0.  1.
<mgrwt>
<rscale>  0 0.16638427E+04</rscale>
<asrwt>0</asrwt>
<pdfrwt beam="1">  1        2 0.15358745E+00 0.16638427E+04</pdfrwt>
<pdfrwt beam="2">  1       -1 0.10665521E+00 0.16638427E+04</pdfrwt>
<totfact> 0.22568814E+01</totfact>
</mgrwt>
</event>
<event>
12    6  0.1510140E-007  0.4644122E+04  0.7818608E-02  0.7885880E-01
         -1   -1    0    0    0  501 -0.00000000000E+00  0.00000000000E+00  0.22666718961E+04  0.22666718961E+04  0.00000000000E+00 0.  1.
          2   -1    0    0  501    0  0.00000000000E+00 -0.00000000000E+00 -0.23788033076E+04  0.23788033076E+04  0.00000000000E+00 0. -1.
         24    2    1    2    0    0  0.11401724979E+03  0.17247953182E+04  0.13618905969E+04  0.22019730810E+04  0.77592708361E+02 0.  0.
        254    2    1    2    0    0 -0.11401724979E+03 -0.17247953182E+04 -0.14740220084E+04  0.24435021227E+04  0.90002384369E+03 0.  0.
         23    2    4    4    0    0 -0.18271570477E+03 -0.82595973119E+03 -0.18975114999E+03  0.87164187330E+03  0.90330227753E+02 0.  0.
         23    2    4    4    0    0  0.68698454979E+02 -0.89883558705E+03 -0.12842708584E+04  0.15718602494E+04  0.93638216366E+02 0.  0.
          4    1    3    3  502    0  0.10472037861E+02  0.22865903052E+02  0.17409668866E+02  0.30587737238E+02  0.00000000000E+00 0. -1.
         -3    1    3    3    0  502  0.10354521193E+03  0.17019294152E+04  0.13444809280E+04  0.21713853437E+04  0.00000000000E+00 0.  1.
         11    1    5    5    0    0 -0.53942605100E+02 -0.32961752885E+03 -0.11609623803E+03  0.35360409564E+03  0.00000000000E+00 0. -1.
        -11    1    5    5    0    0 -0.12877309967E+03 -0.49634220234E+03 -0.73654911963E+02  0.51803777766E+03  0.00000000000E+00 0.  1.
          4    1    6    6  503    0  0.77600803208E+02 -0.47386569404E+03 -0.64309196422E+03  0.80258199275E+03  0.00000000000E+00 0.  1.
         -4    1    6    6    0  503 -0.89023482286E+01 -0.42496989300E+03 -0.64117889419E+03  0.76927825662E+03  0.00000000000E+00 0. -1.
<mgrwt>
<rscale>  0 0.46441217E+04</rscale>
<asrwt>0</asrwt>
<pdfrwt beam="1">  1        2 0.36596974E+00 0.46441217E+04</pdfrwt>
<pdfrwt beam="2">  1       -1 0.34871876E+00 0.46441217E+04</pdfrwt>
<totfact> 0.55186135E-02</totfact>
</mgrwt>
</event>
<event>
12    6  0.1510140E-007  0.2164165E+04  0.7818608E-02  0.8533493E-01
          2   -1    0    0  501    0  0.00000000000E+00  0.00000000000E+00  0.22060953276E+04  0.22060953276E+04  0.00000000000E+00 0. -1.
         -1   -1    0    0    0  501 -0.00000000000E+00 -0.00000000000E+00 -0.53075808519E+03  0.53075808519E+03  0.00000000000E+00 0.  1.
         24    2    1    2    0    0 -0.37431275061E+02 -0.86230479714E+03  0.98176432310E+03  0.13095935870E+04  0.78762385626E+02 0.  0.
        254    2    1    2    0    0  0.37431275061E+02  0.86230479714E+03  0.69357291928E+03  0.14272598258E+04  0.90058678228E+03 0.  0.
         23    2    4    4    0    0  0.20551145114E+03 -0.10852193841E+03  0.74683665303E+02  0.26007336907E+03  0.89713654309E+02 0.  0.
         23    2    4    4    0    0 -0.16808017608E+03  0.97082673556E+03  0.61888925398E+03  0.11671864567E+04  0.92438195519E+02 0.  0.
          4    1    3    3  502    0  0.12425880979E+02 -0.51868789669E+03  0.61288880263E+03  0.80300947758E+03  0.00000000000E+00 0. -1.
         -3    1    3    3    0  502 -0.49857156039E+02 -0.34361690045E+03  0.36887552047E+03  0.50658410939E+03  0.00000000000E+00 0.  1.
         11    1    5    5    0    0  0.13152757909E+03 -0.19303839970E+02  0.33743579717E+02  0.13715236590E+03  0.00000000000E+00 0. -1.
        -11    1    5    5    0    0  0.73983872052E+02 -0.89218098444E+02  0.40940085586E+02  0.12292100317E+03  0.00000000000E+00 0.  1.
          3    1    6    6  503    0 -0.33242481499E+02  0.86360367290E+02  0.82871233578E+02  0.12422083951E+03  0.00000000000E+00 0. -1.
         -3    1    6    6    0  503 -0.13483769458E+03  0.88446636827E+03  0.53601802040E+03  0.10429656172E+04  0.00000000000E+00 0.  1.
<mgrwt>
<rscale>  0 0.21641654E+04</rscale>
<asrwt>0</asrwt>
<pdfrwt beam="1">  1        2 0.33939928E+00 0.21641654E+04</pdfrwt>
<pdfrwt beam="2">  1       -1 0.81655091E-01 0.21641654E+04</pdfrwt>
<totfact> 0.79802746E+00</totfact>
</mgrwt>
</event>
<event>
12    6  0.1510140E-007  0.1792630E+04  0.7818608E-02  0.8710228E-01
          2   -1    0    0  501    0  0.00000000000E+00  0.00000000000E+00  0.16972292879E+04  0.16972292879E+04  0.00000000000E+00 0. -1.
         -1   -1    0    0    0  501 -0.00000000000E+00 -0.00000000000E+00 -0.47334851161E+03  0.47334851161E+03  0.00000000000E+00 0.  1.
         24    2    1    2    0    0 -0.34581910061E+03 -0.99955616051E+02  0.11421589470E+04  0.11986828618E+04  0.52264399113E+02 0.  0.
        254    2    1    2    0    0  0.34581910061E+03  0.99955616051E+02  0.81721829368E+02  0.97189493779E+03  0.89906581360E+03 0.  0.
         23    2    4    4    0    0  0.29011393083E+03  0.12576583846E+03 -0.37634097467E+03  0.50016667384E+03  0.92471797984E+02 0.  0.
         23    2    4    4    0    0  0.55705169782E+02 -0.25810222414E+02  0.45806280403E+03  0.47172826395E+03  0.94534591790E+02 0.  0.
          2    1    3    3  502    0 -0.30529430199E+03 -0.73655963782E+02  0.95102749092E+03  0.10015403638E+04  0.00000000000E+00 0. -1.
         -1    1    3    3    0  502 -0.40524798618E+02 -0.26299652268E+02  0.19113145605E+03  0.19714249797E+03  0.00000000000E+00 0.  1.
         11    1    5    5    0    0  0.43403861073E+02 -0.14269644652E+02 -0.48617012641E+02  0.66716803226E+02  0.00000000000E+00 0.  1.
        -11    1    5    5    0    0  0.24671006976E+03  0.14003548312E+03 -0.32772396203E+03  0.43344987062E+03  0.00000000000E+00 0. -1.
          3    1    6    6  503    0  0.45741288163E+02 -0.48826709943E+02  0.42497385479E+03  0.43020819413E+03  0.00000000000E+00 0. -1.
         -3    1    6    6    0  503  0.99638816194E+01  0.23016487528E+02  0.33088949248E+02  0.41520069815E+02  0.00000000000E+00 0.  1.
<mgrwt>
<rscale>  0 0.17926304E+04</rscale>
<asrwt>0</asrwt>
<pdfrwt beam="1">  1        2 0.26111219E+00 0.17926304E+04</pdfrwt>
<pdfrwt beam="2">  1       -1 0.72822849E-01 0.17926304E+04</pdfrwt>
<totfact> 0.20133581E+01</totfact>
</mgrwt>
</event>
<event>
12    6  0.1510140E-007  0.2193391E+04  0.7818608E-02  0.8521184E-01
         -1   -1    0    0    0  501 -0.00000000000E+00  0.00000000000E+00  0.91616556226E+03  0.91616556226E+03  0.00000000000E+00 0.  1.
          2   -1    0    0  501    0  0.00000000000E+00 -0.00000000000E+00 -0.13127988749E+04  0.13127988749E+04  0.00000000000E+00 0. -1.
         24    2    1    2    0    0  0.57538219892E+03 -0.62642274408E+03  0.26279063696E+02  0.85436538796E+03  0.76023008569E+02 0.  0.
        254    2    1    2    0    0 -0.57538219892E+03  0.62642274408E+03 -0.42291237638E+03  0.13745990492E+04  0.99357814938E+03 0.  0.
         23    2    4    4    0    0  0.20099332320E+03  0.17938630057E+03 -0.37793147239E+03  0.47278749457E+03  0.90100257415E+02 0.  0.
         23    2    4    4    0    0 -0.77637552212E+03  0.44703644350E+03 -0.44980903982E+02  0.90181155466E+03  0.92953027007E+02 0.  0.
          4    1    3    3  502    0  0.14465526444E+03 -0.12869968503E+03 -0.19236053877E+02  0.19457332866E+03  0.00000000000E+00 0. -1.
         -3    1    3    3    0  502  0.43072693447E+03 -0.49772305904E+03  0.45515117573E+02  0.65979205930E+03  0.00000000000E+00 0.  1.
         11    1    5    5    0    0  0.15704510991E+03  0.14935126415E+03 -0.35249920440E+03  0.41379301076E+03  0.00000000000E+00 0. -1.
        -11    1    5    5    0    0  0.43948213288E+02  0.30035036420E+02 -0.25432267993E+02  0.58994483803E+02  0.00000000000E+00 0.  1.
          3    1    6    6  503    0 -0.47788918837E+03  0.32637763042E+03 -0.32541228547E+02  0.57962001825E+03  0.00000000000E+00 0. -1.
         -3    1    6    6    0  503 -0.29848633375E+03  0.12065881308E+03 -0.12439675435E+02  0.32219153641E+03  0.00000000000E+00 0.  1.
<mgrwt>
<rscale>  0 0.21933911E+04</rscale>
<asrwt>0</asrwt>
<pdfrwt beam="1">  1        2 0.20196906E+00 0.21933911E+04</pdfrwt>
<pdfrwt beam="2">  1       -1 0.14094855E+00 0.21933911E+04</pdfrwt>
<totfact> 0.69751731E+00</totfact>
</mgrwt>
</event>
<event>
12    6  0.1510140E-007  0.1337554E+04  0.7818608E-02  0.9000303E-01
          2   -1    0    0  501    0  0.00000000000E+00  0.00000000000E+00  0.20550986659E+04  0.20550986659E+04  0.00000000000E+00 0. -1.
         -1   -1    0    0    0  501 -0.00000000000E+00 -0.00000000000E+00 -0.21763563298E+03  0.21763563298E+03  0.00000000000E+00 0.  1.
         24    2    1    2    0    0  0.19896195716E+03  0.29458025542E+03  0.64557502051E+03  0.74134693439E+03  0.80403872702E+02 0.  0.
        254    2    1    2    0    0 -0.19896195716E+03 -0.29458025542E+03  0.11918880124E+04  0.15313873645E+04  0.89341302808E+03 0.  0.
         23    2    4    4    0    0 -0.41443791178E+03 -0.43223503265E+03  0.10797003558E+04  0.12380643735E+04  0.92003414898E+02 0.  0.
         23    2    4    4    0    0  0.21547595462E+03  0.13765477724E+03  0.11218765662E+03  0.29332299104E+03  0.89853113799E+02 0.  0.
          2    1    3    3  502    0  0.13545287062E+03  0.16585723889E+03  0.45396301926E+03  0.50193478332E+03  0.00000000000E+00 0. -1.
         -1    1    3    3    0  502  0.63509086546E+02  0.12872301653E+03  0.19161200125E+03  0.23941215107E+03  0.00000000000E+00 0.  1.
         11    1    5    5    0    0 -0.18950047855E+03 -0.26382669673E+03  0.57373818716E+03  0.65931059804E+03  0.00000000000E+00 0. -1.
        -11    1    5    5    0    0 -0.22493743323E+03 -0.16840833593E+03  0.50596216864E+03  0.57875377543E+03  0.00000000000E+00 0.  1.
          2    1    6    6  503    0  0.10600724196E+03  0.11042680886E+03  0.92390405443E+02  0.17879486145E+03  0.00000000000E+00 0. -1.
         -2    1    6    6    0  503  0.10946871266E+03  0.27227968376E+02  0.19797251176E+02  0.11452812959E+03  0.00000000000E+00 0.  1.
<mgrwt>
<rscale>  0 0.13375540E+04</rscale>
<asrwt>0</asrwt>
<pdfrwt beam="1">  1        2 0.31616901E+00 0.13375540E+04</pdfrwt>
<pdfrwt beam="2">  1       -1 0.33482407E-01 0.13375540E+04</pdfrwt>
<totfact> 0.58296687E+01</totfact>
</mgrwt>
</event>
<event>
12    6  0.1510140E-007  0.1574996E+04  0.7818608E-02  0.8836058E-01
          2   -1    0    0  501    0  0.00000000000E+00  0.00000000000E+00  0.22790574543E+04  0.22790574543E+04  0.00000000000E+00 0. -1.
         -1   -1    0    0    0  501 -0.00000000000E+00 -0.00000000000E+00 -0.27210956100E+03  0.27210956100E+03  0.00000000000E+00 0.  1.
         24    2    1    2    0    0 -0.24457256825E+03 -0.43122094741E+03  0.97550092609E+03  0.10971755564E+04  0.80155462505E+02 0.  0.
        254    2    1    2    0    0  0.24457256825E+03  0.43122094741E+03  0.10314469672E+04  0.14539914589E+04  0.89690638851E+03 0.  0.
         23    2    4    4    0    0 -0.48561739678E+02  0.63613998599E+03  0.55646465955E+03  0.85140744730E+03  0.90605737478E+02 0.  0.
         23    2    4    4    0    0  0.29313430793E+03 -0.20491903858E+03  0.47498230770E+03  0.60258401162E+03  0.97876266644E+02 0.  0.
          2    1    3    3  502    0 -0.12051581846E+03 -0.24396423138E+03  0.61366444436E+03  0.67128731476E+03  0.00000000000E+00 0. -1.
         -1    1    3    3    0  502 -0.12405674979E+03 -0.18725671603E+03  0.36183648173E+03  0.42588824166E+03  0.00000000000E+00 0.  1.
         11    1    5    5    0    0 -0.47179542823E+01  0.48117868087E+03  0.44613631502E+03  0.65619569763E+03  0.00000000000E+00 0.  1.
        -11    1    5    5    0    0 -0.43843785396E+02  0.15496130512E+03  0.11032834453E+03  0.19521174967E+03  0.00000000000E+00 0. -1.
          4    1    6    6  503    0  0.79159753942E+02 -0.41413749029E+02  0.19297535440E+03  0.21265195193E+03  0.00000000000E+00 0. -1.
         -4    1    6    6    0  503  0.21397455399E+03 -0.16350528955E+03  0.28200695330E+03  0.38993205969E+03  0.00000000000E+00 0.  1.
<mgrwt>
<rscale>  0 0.15749963E+04</rscale>
<asrwt>0</asrwt>
<pdfrwt beam="1">  1        2 0.35062421E+00 0.15749963E+04</pdfrwt>
<pdfrwt beam="2">  1       -1 0.41863011E-01 0.15749963E+04</pdfrwt>
<totfact> 0.28590343E+01</totfact>
</mgrwt>
</event>
<event>
12    6  0.1510140E-007  0.2933851E+04  0.7818608E-02  0.8262877E-01
          2   -1    0    0  501    0  0.00000000000E+00  0.00000000000E+00  0.35276632651E+04  0.35276632651E+04  0.00000000000E+00 0. -1.
         -1   -1    0    0    0  501 -0.00000000000E+00 -0.00000000000E+00 -0.60999872033E+03  0.60999872033E+03  0.00000000000E+00 0.  1.
         24    2    1    2    0    0 -0.27019891877E+03  0.11147725421E+04  0.22618681259E+04  0.25373570413E+04  0.80050359463E+02 0.  0.
        254    2    1    2    0    0  0.27019891877E+03 -0.11147725421E+04  0.65579641894E+03  0.16003049441E+04  0.90287413009E+03 0.  0.
         23    2    4    4    0    0  0.55730383267E+03 -0.50255575017E+03  0.20790128403E+03  0.78405006512E+03  0.91442423270E+02 0.  0.
         23    2    4    4    0    0 -0.28710491391E+03 -0.61221679194E+03  0.44789513491E+03  0.81625487901E+03  0.91778775969E+02 0.  0.
          2    1    3    3  502    0 -0.25399529706E+03  0.98902628368E+03  0.20553165393E+04  0.22949973154E+04  0.00000000000E+00 0. -1.
         -1    1    3    3    0  502 -0.16203621706E+02  0.12574625844E+03  0.20655158654E+03  0.24235972596E+03  0.00000000000E+00 0.  1.
         11    1    5    5    0    0  0.53909395097E+03 -0.46013714544E+03  0.20490751340E+03  0.73779100674E+03  0.00000000000E+00 0. -1.
        -11    1    5    5    0    0  0.18209881703E+02 -0.42418604739E+02  0.29937706256E+01  0.46259058380E+02  0.00000000000E+00 0.  1.
          4    1    6    6  503    0 -0.27316023561E+03 -0.56977528908E+03  0.38783372278E+03  0.74140096499E+03  0.00000000000E+00 0. -1.
         -4    1    6    6    0  503 -0.13944678296E+02 -0.42441502858E+02  0.60061412127E+02  0.74853914021E+02  0.00000000000E+00 0.  1.
<mgrwt>
<rscale>  0 0.29338508E+04</rscale>
<asrwt>0</asrwt>
<pdfrwt beam="1">  1        2 0.54271741E+00 0.29338508E+04</pdfrwt>
<pdfrwt beam="2">  1       -1 0.93845959E-01 0.29338508E+04</pdfrwt>
<totfact> 0.83611219E-01</totfact>
</mgrwt>
</event>
<event>
12    6  0.1510140E-007  0.2316699E+04  0.7818608E-02  0.8471366E-01
         -1   -1    0    0    0  501 -0.00000000000E+00  0.00000000000E+00  0.14695567415E+04  0.14695567415E+04  0.00000000000E+00 0.  1.
          2   -1    0    0  501    0  0.00000000000E+00 -0.00000000000E+00 -0.91304623097E+03  0.91304623097E+03  0.00000000000E+00 0. -1.
         24    2    1    2    0    0  0.15075177888E+02 -0.88969007112E+03 -0.18257515831E+03  0.91182558083E+03  0.79476523457E+02 0.  0.
        254    2    1    2    0    0 -0.15075177888E+02  0.88969007112E+03  0.73908566881E+03  0.14707773916E+04  0.90838473468E+03 0.  0.
         23    2    4    4    0    0 -0.11268937750E+03  0.10513820296E+04  0.61211535453E+03  0.12251179782E+04  0.90143138313E+02 0.  0.
         23    2    4    4    0    0  0.97614199611E+02 -0.16169195845E+03  0.12697031428E+03  0.24565941339E+03  0.92489271204E+02 0.  0.
          2    1    3    3  502    0 -0.11620037586E+02 -0.76311181720E+03 -0.14242860781E+03  0.77637657045E+03  0.00000000000E+00 0. -1.
         -1    1    3    3    0  502  0.26695215474E+02 -0.12657825392E+03 -0.40146550498E+02  0.13544901037E+03  0.00000000000E+00 0.  1.
         11    1    5    5    0    0 -0.35566977473E+02  0.68835822842E+03  0.42094836839E+03  0.80765066048E+03  0.00000000000E+00 0. -1.
        -11    1    5    5    0    0 -0.77122400026E+02  0.36302380115E+03  0.19116698614E+03  0.41746731774E+03  0.00000000000E+00 0.  1.
          2    1    6    6  503    0  0.10496994908E+03 -0.16957334697E+03  0.12198078977E+03  0.23378007461E+03  0.00000000000E+00 0. -1.
         -2    1    6    6    0  503 -0.73557494667E+01  0.78813885164E+01  0.49895245086E+01  0.11879338786E+02  0.00000000000E+00 0.  1.
<mgrwt>
<rscale>  0 0.23166987E+04</rscale>
<asrwt>0</asrwt>
<pdfrwt beam="1">  1        2 0.14046865E+00 0.23166987E+04</pdfrwt>
<pdfrwt beam="2">  1       -1 0.22608565E+00 0.23166987E+04</pdfrwt>
<totfact> 0.29732290E+00</totfact>
</mgrwt>
</event>
<event>
12    6  0.1510140E-007  0.1513920E+04  0.7818608E-02  0.8875249E-01
         -1   -1    0    0    0  501 -0.00000000000E+00  0.00000000000E+00  0.30455434683E+03  0.30455434683E+03  0.00000000000E+00 0.  1.
          2   -1    0    0  501    0  0.00000000000E+00 -0.00000000000E+00 -0.18813986413E+04  0.18813986413E+04  0.00000000000E+00 0. -1.
         24    2    1    2    0    0 -0.29555621523E+03  0.20213412965E+03 -0.97992636393E+03  0.10464460367E+04  0.81129195491E+02 0.  0.
        254    2    1    2    0    0  0.29555621523E+03 -0.20213412965E+03 -0.59691793054E+03  0.11395069514E+04  0.90219365644E+03 0.  0.
         23    2    4    4    0    0  0.37130361115E+03 -0.13903438213E+03  0.10884041228E+03  0.42135891846E+03  0.92196376034E+02 0.  0.
         23    2    4    4    0    0 -0.75747395926E+02 -0.63099747519E+02 -0.70575834282E+03  0.71814803291E+03  0.89008497293E+02 0.  0.
          2    1    3    3  502    0 -0.19831221173E+03  0.16702903639E+03 -0.76921264017E+03  0.81173549764E+03  0.00000000000E+00 0. -1.
         -1    1    3    3    0  502 -0.97244003493E+02  0.35105093257E+02 -0.21071372375E+03  0.23471053910E+03  0.00000000000E+00 0.  1.
         11    1    5    5    0    0  0.27988576556E+03 -0.67771957556E+02  0.53450278727E+02  0.29289249271E+03  0.00000000000E+00 0.  1.
        -11    1    5    5    0    0  0.91417845597E+02 -0.71262424576E+02  0.55390133556E+02  0.12846642575E+03  0.00000000000E+00 0. -1.
          4    1    6    6  503    0 -0.67681725746E+02 -0.79353581780E+02 -0.66979348443E+03  0.67786511839E+03  0.00000000000E+00 0. -1.
         -4    1    6    6    0  503 -0.80656701803E+01  0.16253834261E+02 -0.35964858385E+02  0.40282914521E+02  0.00000000000E+00 0.  1.
<mgrwt>
<rscale>  0 0.15139196E+04</rscale>
<asrwt>0</asrwt>
<pdfrwt beam="1">  1        2 0.28944594E+00 0.15139196E+04</pdfrwt>
<pdfrwt beam="2">  1       -1 0.46854515E-01 0.15139196E+04</pdfrwt>
<totfact> 0.38819387E+01</totfact>
</mgrwt>
</event>
<event>
12    6  0.1510140E-007  0.3944376E+04  0.7818608E-02  0.8015863E-01
          2   -1    0    0  501    0  0.00000000000E+00  0.00000000000E+00  0.21072715831E+04  0.21072715831E+04  0.00000000000E+00 0. -1.
         -1   -1    0    0    0  501 -0.00000000000E+00 -0.00000000000E+00 -0.18457634502E+04  0.18457634502E+04  0.00000000000E+00 0.  1.
         24    2    1    2    0    0 -0.16286810676E+03  0.12927650818E+04 -0.12171472824E+04  0.17850322220E+04  0.84409416460E+02 0.  0.
        254    2    1    2    0    0  0.16286810676E+03 -0.12927650818E+04  0.14786554153E+04  0.21680028113E+04  0.90335307370E+03 0.  0.
         23    2    4    4    0    0  0.26659800573E+03 -0.13310775912E+04  0.10527427689E+04  0.17204179968E+04  0.93427489759E+02 0.  0.
         23    2    4    4    0    0 -0.10372989897E+03  0.38312509339E+02  0.42591264635E+03  0.44758481451E+03  0.81870895624E+02 0.  0.
          2    1    3    3  502    0  0.60950647315E+00  0.14458415507E+03 -0.16161307876E+03  0.21684957141E+03  0.00000000000E+00 0. -1.
         -1    1    3    3    0  502 -0.16347761324E+03  0.11481809268E+04 -0.10555342036E+04  0.15681826506E+04  0.00000000000E+00 0.  1.
         11    1    5    5    0    0  0.34894480604E+02 -0.11206339004E+03  0.63089600450E+02  0.13325211386E+03  0.00000000000E+00 0. -1.
        -11    1    5    5    0    0  0.23170352513E+03 -0.12190142011E+04  0.98965316850E+03  0.15871658830E+04  0.00000000000E+00 0.  1.
          3    1    6    6  503    0  0.90612296807E+01  0.99866962055E+00  0.53630214958E+01  0.10576635755E+02  0.00000000000E+00 0. -1.
         -3    1    6    6    0  503 -0.11279112865E+03  0.37313839718E+02  0.42054962485E+03  0.43700817875E+03  0.00000000000E+00 0.  1.
<mgrwt>
<rscale>  0 0.39443757E+04</rscale>
<asrwt>0</asrwt>
<pdfrwt beam="1">  1        2 0.32419563E+00 0.39443757E+04</pdfrwt>
<pdfrwt beam="2">  1       -1 0.28396361E+00 0.39443757E+04</pdfrwt>
<totfact> 0.22012675E-01</totfact>
</mgrwt>
</event>
<event>
12    6  0.1510140E-007  0.1388752E+04  0.7818608E-02  0.8962001E-01
         -1   -1    0    0    0  501 -0.00000000000E+00  0.00000000000E+00  0.93297438977E+03  0.93297438977E+03  0.00000000000E+00 0.  1.
          2   -1    0    0  501    0  0.00000000000E+00 -0.00000000000E+00 -0.51679686538E+03  0.51679686538E+03  0.00000000000E+00 0. -1.
         24    2    1    2    0    0 -0.30330998679E+03 -0.16722037594E+03 -0.69451035326E+02  0.36267157222E+03  0.82143902838E+02 0.  0.
        254    2    1    2    0    0  0.30330998679E+03  0.16722037594E+03  0.48562855972E+03  0.10870996829E+04  0.90884048128E+03 0.  0.
         23    2    4    4    0    0 -0.74144061871E+02  0.40844844817E+03  0.77713695792E+01  0.42581897800E+03  0.94519474767E+02 0.  0.
         23    2    4    4    0    0  0.37745404867E+03 -0.24122807224E+03  0.47785719014E+03  0.66128070494E+03  0.91006235337E+02 0.  0.
          2    1    3    3  502    0 -0.95693374497E+02 -0.66445052937E+02  0.13841061477E+02  0.11731897530E+03  0.00000000000E+00 0. -1.
         -1    1    3    3    0  502 -0.20761661230E+03 -0.10077532300E+03 -0.83292096803E+02  0.24535259692E+03  0.00000000000E+00 0.  1.
         11    1    5    5    0    0 -0.27517501501E+02  0.24286399691E+02  0.12608604687E+02  0.38807460764E+02  0.00000000000E+00 0. -1.
        -11    1    5    5    0    0 -0.46626560370E+02  0.38416204848E+03 -0.48372351081E+01  0.38701151723E+03  0.00000000000E+00 0.  1.
          4    1    6    6  503    0  0.35584031241E+01 -0.87095782724E+01 -0.24272153340E+01  0.97164994084E+01  0.00000000000E+00 0. -1.
         -4    1    6    6    0  503  0.37389564554E+03 -0.23251849397E+03  0.48028440547E+03  0.65156420553E+03  0.00000000000E+00 0.  1.
<mgrwt>
<rscale>  0 0.13887523E+04</rscale>
<asrwt>0</asrwt>
<pdfrwt beam="1">  1        2 0.79507210E-01 0.13887523E+04</pdfrwt>
<pdfrwt beam="2">  1       -1 0.14353452E+00 0.13887523E+04</pdfrwt>
<totfact> 0.25903677E+01</totfact>
</mgrwt>
</event>
<event>
12    6  0.1510140E-007  0.1843588E+04  0.7818608E-02  0.8683457E-01
          2   -1    0    0  501    0  0.00000000000E+00  0.00000000000E+00  0.19846351057E+04  0.19846351057E+04  0.00000000000E+00 0. -1.
         -1   -1    0    0    0  501 -0.00000000000E+00 -0.00000000000E+00 -0.42814144694E+03  0.42814144694E+03  0.00000000000E+00 0.  1.
         24    2    1    2    0    0 -0.45938389677E+03  0.14077301755E+03  0.12147965353E+04  0.13087728150E+04  0.79404357124E+02 0.  0.
        254    2    1    2    0    0  0.45938389677E+03 -0.14077301755E+03  0.34169712348E+03  0.11040037377E+04  0.93338990865E+03 0.  0.
         23    2    4    4    0    0  0.18886473192E+02  0.17756840142E+02  0.56758786465E+03  0.57569787952E+03  0.92736509241E+02 0.  0.
         23    2    4    4    0    0  0.44049742358E+03 -0.15852985769E+03 -0.22589074117E+03  0.52830585818E+03  0.94396805463E+02 0.  0.
          2    1    3    3  502    0 -0.39964066229E+03  0.13663677967E+03  0.11159518250E+04  0.11932018875E+04  0.00000000000E+00 0. -1.
         -1    1    3    3    0  502 -0.59743234483E+02  0.41362378845E+01  0.98844710293E+02  0.11557092750E+03  0.00000000000E+00 0.  1.
         11    1    5    5    0    0 -0.13983918817E+01  0.36343102233E+01 -0.27864190022E+01  0.47883025709E+01  0.00000000000E+00 0. -1.
        -11    1    5    5    0    0  0.20284865074E+02  0.14122529918E+02  0.57037428365E+03  0.57090957695E+03  0.00000000000E+00 0.  1.
          1    1    6    6  503    0  0.23441423126E+03 -0.67377655375E+02 -0.68173570426E+02  0.25325365933E+03  0.00000000000E+00 0. -1.
         -1    1    6    6    0  503  0.20608319232E+03 -0.91152202320E+02 -0.15771717074E+03  0.27505219885E+03  0.00000000000E+00 0.  1.
<mgrwt>
<rscale>  0 0.18435884E+04</rscale>
<asrwt>0</asrwt>
<pdfrwt beam="1">  1        2 0.30532847E+00 0.18435884E+04</pdfrwt>
<pdfrwt beam="2">  1       -1 0.65867916E-01 0.18435884E+04</pdfrwt>
<totfact> 0.17054064E+01</totfact>
</mgrwt>
</event>
<event>
12    6  0.1510140E-007  0.1874641E+04  0.7818608E-02  0.8667583E-01
         -1   -1    0    0    0  501 -0.00000000000E+00  0.00000000000E+00  0.49087255743E+03  0.49087255743E+03  0.00000000000E+00 0.  1.
          2   -1    0    0  501    0  0.00000000000E+00 -0.00000000000E+00 -0.17898125376E+04  0.17898125376E+04  0.00000000000E+00 0. -1.
         24    2    1    2    0    0 -0.14144153554E+03 -0.66311360688E+03 -0.79524515303E+03  0.10479044776E+04  0.77224199812E+02 0.  0.
        254    2    1    2    0    0  0.14144153554E+03  0.66311360688E+03 -0.50369482710E+03  0.12327806174E+04  0.89795000321E+03 0.  0.
         23    2    4    4    0    0  0.10734848090E+03 -0.15409007586E+03  0.80400337181E+02  0.22375921513E+03  0.91304568929E+02 0.  0.
         23    2    4    4    0    0  0.34093054640E+02  0.81720368274E+03 -0.58409516428E+03  0.10090214023E+04  0.89290726889E+02 0.  0.
          2    1    3    3  502    0 -0.89382661999E+02 -0.47261910941E+03 -0.61298858427E+03  0.77917461925E+03  0.00000000000E+00 0. -1.
         -1    1    3    3    0  502 -0.52058873544E+02 -0.19049449747E+03 -0.18225656876E+03  0.26872985830E+03  0.00000000000E+00 0.  1.
         11    1    5    5    0    0 -0.10661316561E+02 -0.16699100649E+02 -0.90243532012E+01  0.21770681753E+02  0.00000000000E+00 0. -1.
        -11    1    5    5    0    0  0.11800979746E+03 -0.13739097521E+03  0.89424690383E+02  0.20198853338E+03  0.00000000000E+00 0.  1.
          1    1    6    6  503    0  0.44162378334E+02  0.18691874446E+03 -0.12419578669E+03  0.22872150342E+03  0.00000000000E+00 0. -1.
         -1    1    6    6    0  503 -0.10069323694E+02  0.63028493828E+03 -0.45989937759E+03  0.78029989889E+03  0.00000000000E+00 0.  1.
<mgrwt>
<rscale>  0 0.18746411E+04</rscale>
<asrwt>0</asrwt>
<pdfrwt beam="1">  1        2 0.27535578E+00 0.18746411E+04</pdfrwt>
<pdfrwt beam="2">  1       -1 0.75518855E-01 0.18746411E+04</pdfrwt>
<totfact> 0.16464874E+01</totfact>
</mgrwt>
</event>
<event>
12    6  0.1510140E-007  0.2250817E+04  0.7818608E-02  0.8497570E-01
         -1   -1    0    0    0  501 -0.00000000000E+00  0.00000000000E+00  0.91091676778E+03  0.91091676778E+03  0.00000000000E+00 0.  1.
          2   -1    0    0  501    0  0.00000000000E+00 -0.00000000000E+00 -0.13904062053E+04  0.13904062053E+04  0.00000000000E+00 0. -1.
         24    2    1    2    0    0 -0.35155985589E+03 -0.36792961206E+03 -0.10108769341E+04  0.11345204989E+04  0.79360284662E+02 0.  0.
        254    2    1    2    0    0  0.35155985589E+03  0.36792961206E+03  0.53138749660E+03  0.11668024742E+04  0.90558754988E+03 0.  0.
         23    2    4    4    0    0  0.61428174461E+03  0.30000174618E+03  0.18039981467E+03  0.71305168290E+03  0.92495945231E+02 0.  0.
         23    2    4    4    0    0 -0.26272188872E+03  0.67927865882E+02  0.35098768194E+03  0.45375079128E+03  0.95186353780E+02 0.  0.
          4    1    3    3  502    0 -0.19019666073E+03 -0.16894817487E+03 -0.57813654088E+03  0.63163289611E+03  0.00000000000E+00 0. -1.
         -3    1    3    3    0  502 -0.16136319516E+03 -0.19898143719E+03 -0.43274039323E+03  0.50288760278E+03  0.00000000000E+00 0.  1.
         11    1    5    5    0    0  0.25934622870E+03  0.13556168185E+03  0.30843983322E+02  0.29425972751E+03  0.00000000000E+00 0.  1.
        -11    1    5    5    0    0  0.35493551591E+03  0.16444006433E+03  0.14955583134E+03  0.41879195539E+03  0.00000000000E+00 0. -1.
          4    1    6    6  503    0 -0.23239856413E+03  0.63266934356E+02  0.24561870252E+03  0.34400631480E+03  0.00000000000E+00 0. -1.
         -4    1    6    6    0  503 -0.30323324589E+02  0.46609315269E+01  0.10536897941E+03  0.10974447649E+03  0.00000000000E+00 0.  1.
<mgrwt>
<rscale>  0 0.22508170E+04</rscale>
<asrwt>0</asrwt>
<pdfrwt beam="1">  1        2 0.21390865E+00 0.22508170E+04</pdfrwt>
<pdfrwt beam="2">  1       -1 0.14014104E+00 0.22508170E+04</pdfrwt>
<totfact> 0.63549065E+00</totfact>
</mgrwt>
</event>
<event>
12    6  0.1510140E-007  0.1612465E+04  0.7818608E-02  0.8812927E-01
         -1   -1    0    0    0  501 -0.00000000000E+00  0.00000000000E+00  0.44364326501E+03  0.44364326501E+03  0.00000000000E+00 0.  1.
          2   -1    0    0  501    0  0.00000000000E+00 -0.00000000000E+00 -0.14651659143E+04  0.14651659143E+04  0.00000000000E+00 0. -1.
         24    2    1    2    0    0  0.43507049643E+03  0.13016538602E+03  0.13361611781E+02  0.46077383371E+03  0.76841581037E+02 0.  0.
        254    2    1    2    0    0 -0.43507049643E+03 -0.13016538602E+03 -0.10348842611E+04  0.14480353456E+04  0.90531296451E+03 0.  0.
         23    2    4    4    0    0 -0.32637788057E+03 -0.26401649063E+03 -0.36384027772E+02  0.43082922784E+03  0.89793083479E+02 0.  0.
         23    2    4    4    0    0 -0.10869261587E+03  0.13385110461E+03 -0.99850023330E+03  0.10172061178E+04  0.89304911140E+02 0.  0.
          4    1    3    3  502    0  0.31233477125E+03  0.82487993118E+02 -0.23916108684E+02  0.32392786017E+03  0.00000000000E+00 0. -1.
         -3    1    3    3    0  502  0.12273572518E+03  0.47677392903E+02  0.37277720465E+02  0.13684597354E+03  0.00000000000E+00 0.  1.
         11    1    5    5    0    0 -0.72623247745E+02 -0.99311267300E+02  0.15110594318E+02  0.12395641971E+03  0.00000000000E+00 0. -1.
        -11    1    5    5    0    0 -0.25375463282E+03 -0.16470522333E+03 -0.51494622091E+02  0.30687280814E+03  0.00000000000E+00 0.  1.
          1    1    6    6  503    0 -0.79136210965E+02  0.30071611198E+02 -0.50497602346E+03  0.51202307170E+03  0.00000000000E+00 0. -1.
         -1    1    6    6    0  503 -0.29556404904E+02  0.10377949341E+03 -0.49352420985E+03  0.50518304606E+03  0.00000000000E+00 0.  1.
<mgrwt>
<rscale>  0 0.16124652E+04</rscale>
<asrwt>0</asrwt>
<pdfrwt beam="1">  1        2 0.22541014E+00 0.16124652E+04</pdfrwt>
<pdfrwt beam="2">  1       -1 0.68252811E-01 0.16124652E+04</pdfrwt>
<totfact> 0.31513691E+01</totfact>
</mgrwt>
</event>
<event>
12    6  0.1510140E-007  0.4054536E+04  0.7818608E-02  0.7993634E-01
         -1   -1    0    0    0  501 -0.00000000000E+00  0.00000000000E+00  0.17235664290E+04  0.17235664290E+04  0.00000000000E+00 0.  1.
          2   -1    0    0  501    0  0.00000000000E+00 -0.00000000000E+00 -0.23844835261E+04  0.23844835261E+04  0.00000000000E+00 0. -1.
         24    2    1    2    0    0  0.78242721122E+03  0.57142107831E+03  0.13733813294E+04  0.16826343864E+04  0.79798577683E+02 0.  0.
        254    2    1    2    0    0 -0.78242721122E+03 -0.57142107831E+03 -0.20342984265E+04  0.24254155687E+04  0.89752782853E+03 0.  0.
         23    2    4    4    0    0 -0.29529665365E+03 -0.10669112882E+03 -0.15670734913E+04  0.16008159242E+04  0.91154733185E+02 0.  0.
         23    2    4    4    0    0 -0.48713055757E+03 -0.46472994950E+03 -0.46722493525E+03  0.82459964450E+03  0.91626019888E+02 0.  0.
          4    1    3    3  502    0  0.48143397503E+03  0.31572017756E+03  0.85989125065E+03  0.10348289065E+04  0.00000000000E+00 0. -1.
         -3    1    3    3    0  502  0.30099323619E+03  0.25570090075E+03  0.51349007873E+03  0.64780547993E+03  0.00000000000E+00 0.  1.
         11    1    5    5    0    0 -0.23114474903E+03 -0.41257165004E+02 -0.10859013932E+04  0.11109958975E+04  0.00000000000E+00 0.  1.
        -11    1    5    5    0    0 -0.64151904622E+02 -0.65433963814E+02 -0.48117209810E+03  0.48982002662E+03  0.00000000000E+00 0. -1.
          1    1    6    6  503    0 -0.27872697923E+03 -0.22684313001E+03 -0.29196114015E+03  0.46302034723E+03  0.00000000000E+00 0. -1.
         -1    1    6    6    0  503 -0.20840357834E+03 -0.23788681949E+03 -0.17526379509E+03  0.36157929728E+03  0.00000000000E+00 0.  1.
<mgrwt>
<rscale>  0 0.40545361E+04</rscale>
<asrwt>0</asrwt>
<pdfrwt beam="1">  1        2 0.36684362E+00 0.40545361E+04</pdfrwt>
<pdfrwt beam="2">  1       -1 0.26516407E+00 0.40545361E+04</pdfrwt>
<totfact> 0.20125567E-01</totfact>
</mgrwt>
</event>
<event>
12    6  0.1510140E-007  0.2066091E+04  0.7818608E-02  0.8576329E-01
         -1   -1    0    0    0  501 -0.00000000000E+00  0.00000000000E+00  0.41741704294E+03  0.41741704294E+03  0.00000000000E+00 0.  1.
          2   -1    0    0  501    0  0.00000000000E+00 -0.00000000000E+00 -0.25566348874E+04  0.25566348874E+04  0.00000000000E+00 0. -1.
         24    2    1    2    0    0 -0.13273150692E+03 -0.14248867992E+03  0.29986924788E+03  0.36586994963E+03  0.77579490729E+02 0.  0.
        254    2    1    2    0    0  0.13273150692E+03  0.14248867992E+03 -0.24390870924E+04  0.26081819807E+04  0.90307625569E+03 0.  0.
         23    2    4    4    0    0 -0.17743521975E+03 -0.28739406661E+03 -0.13321278323E+04  0.13774063740E+04  0.92763951208E+02 0.  0.
         23    2    4    4    0    0  0.31016672667E+03  0.42988274653E+03 -0.11069592600E+04  0.12307756067E+04  0.91908741219E+02 0.  0.
          4    1    3    3  502    0 -0.31749107445E+01 -0.37756099286E+02  0.28371212286E+02  0.47334224174E+02  0.00000000000E+00 0. -1.
         -3    1    3    3    0  502 -0.12955659618E+03 -0.10473258063E+03  0.27149803560E+03  0.31853572546E+03  0.00000000000E+00 0.  1.
         11    1    5    5    0    0 -0.17179558522E+03 -0.29338176247E+03 -0.13171334581E+04  0.13603040572E+04  0.00000000000E+00 0. -1.
        -11    1    5    5    0    0 -0.56396345313E+01  0.59876958654E+01 -0.14994374240E+02  0.17102316751E+02  0.00000000000E+00 0.  1.
          2    1    6    6  503    0  0.93229439625E+02  0.20329717523E+03 -0.43096031214E+03  0.48553914416E+03  0.00000000000E+00 0. -1.
         -2    1    6    6    0  503  0.21693728705E+03  0.22658557129E+03 -0.67599894786E+03  0.74523646257E+03  0.00000000000E+00 0.  1.
<mgrwt>
<rscale>  0 0.20660910E+04</rscale>
<asrwt>0</asrwt>
<pdfrwt beam="1">  1        2 0.39332843E+00 0.20660910E+04</pdfrwt>
<pdfrwt beam="2">  1       -1 0.64218008E-01 0.20660910E+04</pdfrwt>
<totfact> 0.83494797E+00</totfact>
</mgrwt>
</event>
<event>
12    6  0.2081595E-007  0.2521482E+04  0.7818608E-02  0.8395372E-01
         -1   -1    0    0    0  501 -0.00000000000E+00  0.00000000000E+00  0.96430298684E+03  0.96430298684E+03  0.00000000000E+00 0.  1.
          2   -1    0    0  501    0  0.00000000000E+00 -0.00000000000E+00 -0.16483078737E+04  0.16483078737E+04  0.00000000000E+00 0. -1.
         24    2    1    2    0    0 -0.63265604538E+03  0.46082245585E+03  0.49676213963E+03  0.93043408491E+03  0.79523301060E+02 0.  0.
        254    2    1    2    0    0  0.63265604538E+03 -0.46082245585E+03 -0.11807670265E+04  0.16821767757E+04  0.90713666340E+03 0.  0.
         23    2    4    4    0    0  0.46097459302E+03 -0.62318601551E+02 -0.11421758551E+04  0.12366343898E+04  0.91201681025E+02 0.  0.
         23    2    4    4    0    0  0.17168145236E+03 -0.39850385430E+03 -0.38591171412E+02  0.44554238582E+03  0.93482062871E+02 0.  0.
          2    1    3    3  502    0 -0.22884350649E+02  0.81711810575E+00  0.14134636119E+02  0.26910019041E+02  0.00000000000E+00 0. -1.
         -1    1    3    3    0  502 -0.60977169473E+03  0.46000533774E+03  0.48262750351E+03  0.90352406587E+03  0.00000000000E+00 0.  1.
         11    1    5    5    0    0  0.45500024143E+03 -0.73881902312E+02 -0.11136108072E+04  0.12052438696E+04  0.00000000000E+00 0. -1.
        -11    1    5    5    0    0  0.59743515955E+01  0.11563300762E+02 -0.28565047897E+02  0.31390520271E+02  0.00000000000E+00 0.  1.
          1    1    6    6  503    0  0.78225321605E+02 -0.23023071086E+03  0.20956032014E+02  0.24405846931E+03  0.00000000000E+00 0. -1.
         -1    1    6    6    0  503  0.93456130752E+02 -0.16827314344E+03 -0.59547203426E+02  0.20148391651E+03  0.00000000000E+00 0.  1.
<mgrwt>
<rscale>  0 0.25214823E+04</rscale>
<asrwt>0</asrwt>
<pdfrwt beam="1">  1        2 0.25358582E+00 0.25214823E+04</pdfrwt>
<pdfrwt beam="2">  1       -1 0.14835431E+00 0.25214823E+04</pdfrwt>
<totfact> 0.38183939E+00</totfact>
</mgrwt>
</event>
<event>
12    6  0.1510140E-007  0.1171545E+04  0.7818608E-02  0.9138134E-01
         -1   -1    0    0    0  501 -0.00000000000E+00  0.00000000000E+00  0.68240598943E+03  0.68240598943E+03  0.00000000000E+00 0.  1.
          2   -1    0    0  501    0  0.00000000000E+00 -0.00000000000E+00 -0.50282314053E+03  0.50282314053E+03  0.00000000000E+00 0. -1.
         24    2    1    2    0    0 -0.16876798889E+03  0.64202592280E+02 -0.12253638441E+03  0.23242168843E+03  0.80000430115E+02 0.  0.
        254    2    1    2    0    0  0.16876798889E+03 -0.64202592280E+02  0.30211923331E+03  0.95280744154E+03  0.88541593761E+03 0.  0.
         23    2    4    4    0    0  0.28762656176E+03 -0.36285991945E+03  0.38536947610E+03  0.60839158282E+03  0.85054833794E+02 0.  0.
         23    2    4    4    0    0 -0.11885857288E+03  0.29865732717E+03 -0.83250242790E+02  0.34441585872E+03  0.91477436511E+02 0.  0.
          4    1    3    3  502    0 -0.76797139697E+02 -0.75540971010E+01 -0.71114997476E+02  0.10493906763E+03  0.00000000000E+00 0. -1.
         -3    1    3    3    0  502 -0.91970849188E+02  0.71756689381E+02 -0.51421386938E+02  0.12748262080E+03  0.00000000000E+00 0.  1.
         11    1    5    5    0    0  0.33576976507E+02 -0.12858553553E+02  0.47516650106E+02  0.59586808843E+02  0.00000000000E+00 0.  1.
        -11    1    5    5    0    0  0.25404958526E+03 -0.35000136590E+03  0.33785282600E+03  0.54880477398E+03  0.00000000000E+00 0. -1.
          2    1    6    6  503    0 -0.87048733805E+02  0.18776684136E+03 -0.96387054766E+02  0.22830754061E+03  0.00000000000E+00 0. -1.
         -2    1    6    6    0  503 -0.31809839074E+02  0.11089048581E+03  0.13136811976E+02  0.11610831811E+03  0.00000000000E+00 0.  1.
<mgrwt>
<rscale>  0 0.11715452E+04</rscale>
<asrwt>0</asrwt>
<pdfrwt beam="1">  1        2 0.77357406E-01 0.11715452E+04</pdfrwt>
<pdfrwt beam="2">  1       -1 0.10498554E+00 0.11715452E+04</pdfrwt>
<totfact> 0.58930480E+01</totfact>
</mgrwt>
</event>
<event>
12    6  0.1510140E-007  0.2044907E+04  0.7818608E-02  0.8585909E-01
         -1   -1    0    0    0  501 -0.00000000000E+00  0.00000000000E+00  0.53159039653E+03  0.53159039653E+03  0.00000000000E+00 0.  1.
          2   -1    0    0  501    0  0.00000000000E+00 -0.00000000000E+00 -0.19665717518E+04  0.19665717518E+04  0.00000000000E+00 0. -1.
         24    2    1    2    0    0 -0.37206352817E+03 -0.12156752904E+03  0.30686812734E+03  0.50471094590E+03  0.85762219117E+02 0.  0.
        254    2    1    2    0    0  0.37206352817E+03  0.12156752904E+03 -0.17418494826E+04  0.19934512024E+04  0.88690368319E+03 0.  0.
         23    2    4    4    0    0  0.66601870649E+02 -0.36108745373E+03 -0.53680578046E+03  0.65688992148E+03  0.92325319346E+02 0.  0.
         23    2    4    4    0    0  0.30546165752E+03  0.48265498277E+03 -0.12050437022E+04  0.13365612810E+04  0.89459918497E+02 0.  0.
          4    1    3    3  502    0 -0.53186667556E+02 -0.54960323939E+01  0.11205124263E+02  0.54631335216E+02  0.00000000000E+00 0. -1.
         -3    1    3    3    0  502 -0.31887686061E+03 -0.11607149665E+03  0.29566300308E+03  0.45007961069E+03  0.00000000000E+00 0.  1.
         11    1    5    5    0    0  0.84779802881E+02 -0.25152825290E+03 -0.40891518642E+03  0.48750969905E+03  0.00000000000E+00 0. -1.
        -11    1    5    5    0    0 -0.18177932233E+02 -0.10955920083E+03 -0.12789059404E+03  0.16938022243E+03  0.00000000000E+00 0.  1.
          2    1    6    6  503    0  0.19639209962E+03  0.36385996120E+03 -0.79861050445E+03  0.89930120982E+03  0.00000000000E+00 0. -1.
         -2    1    6    6    0  503  0.10906955789E+03  0.11879502158E+03 -0.40643319772E+03  0.43726007114E+03  0.00000000000E+00 0.  1.
<mgrwt>
<rscale>  0 0.20449065E+04</rscale>
<asrwt>0</asrwt>
<pdfrwt beam="1">  1        2 0.30254950E+00 0.20449065E+04</pdfrwt>
<pdfrwt beam="2">  1       -1 0.81783137E-01 0.20449065E+04</pdfrwt>
<totfact> 0.10935615E+01</totfact>
</mgrwt>
</event>
<event>
12    6  0.1510140E-007  0.3251724E+04  0.7818608E-02  0.8175289E-01
          2   -1    0    0  501    0  0.00000000000E+00  0.00000000000E+00  0.27252104238E+04  0.27252104238E+04  0.00000000000E+00 0. -1.
         -1   -1    0    0    0  501 -0.00000000000E+00 -0.00000000000E+00 -0.96999003160E+03  0.96999003160E+03  0.00000000000E+00 0.  1.
         24    2    1    2    0    0  0.57303675403E+01  0.10553385302E+04 -0.40412748779E+03  0.11330165674E+04  0.81457136901E+02 0.  0.
        254    2    1    2    0    0 -0.57303675403E+01 -0.10553385302E+04  0.21593478800E+04  0.25621838880E+04  0.88782360799E+03 0.  0.
         23    2    4    4    0    0  0.25211408790E+03 -0.68657920909E+03  0.18898446597E+04  0.20285251186E+04  0.91917328909E+02 0.  0.
         23    2    4    4    0    0 -0.25784445544E+03 -0.36875932110E+03  0.26950322031E+03  0.53365876945E+03  0.98450476659E+02 0.  0.
          2    1    3    3  502    0  0.28279916763E+02  0.39211115227E+03 -0.11900858977E+03  0.41074804183E+03  0.00000000000E+00 0. -1.
         -1    1    3    3    0  502 -0.22549549223E+02  0.66322737791E+03 -0.28511889802E+03  0.72226852554E+03  0.00000000000E+00 0.  1.
         11    1    5    5    0    0  0.86169025990E+02 -0.32649522757E+03  0.96097549288E+03  0.10185765227E+04  0.00000000000E+00 0. -1.
        -11    1    5    5    0    0  0.16594506191E+03 -0.36008398153E+03  0.92886916680E+03  0.10099485959E+04  0.00000000000E+00 0.  1.
          3    1    6    6  503    0 -0.21507042366E+03 -0.28661919468E+03  0.16645740419E+03  0.39511253752E+03  0.00000000000E+00 0. -1.
         -3    1    6    6    0  503 -0.42774031778E+02 -0.82140126413E+02  0.10304581612E+03  0.13854623193E+03  0.00000000000E+00 0.  1.
<mgrwt>
<rscale>  0 0.32517238E+04</rscale>
<asrwt>0</asrwt>
<pdfrwt beam="1">  1        2 0.41926314E+00 0.32517238E+04</pdfrwt>
<pdfrwt beam="2">  1       -1 0.14922924E+00 0.32517238E+04</pdfrwt>
<totfact> 0.86411008E-01</totfact>
</mgrwt>
</event>
<event>
12    6  0.1510140E-007  0.1327515E+04  0.7818608E-02  0.9008026E-01
          2   -1    0    0  501    0  0.00000000000E+00  0.00000000000E+00  0.48493692237E+03  0.48493692237E+03  0.00000000000E+00 0. -1.
         -1   -1    0    0    0  501 -0.00000000000E+00 -0.00000000000E+00 -0.90851788122E+03  0.90851788122E+03  0.00000000000E+00 0.  1.
         24    2    1    2    0    0 -0.55699531235E+02  0.65042212617E+02  0.24674096216E+03  0.27285142452E+03  0.78954862111E+02 0.  0.
        254    2    1    2    0    0  0.55699531235E+02 -0.65042212617E+02 -0.67032192102E+03  0.11206033791E+04  0.89391695821E+03 0.  0.
         23    2    4    4    0    0  0.18519314819E+03 -0.25423991711E+03  0.74290011189E+02  0.33560585101E+03  0.90431431947E+02 0.  0.
         23    2    4    4    0    0 -0.12949361695E+03  0.18919770449E+03 -0.74461193221E+03  0.78499752806E+03  0.95967813596E+02 0.  0.
          4    1    3    3  502    0 -0.49019925635E+02  0.53805404507E+02  0.90842686041E+02  0.11640604912E+03  0.00000000000E+00 0. -1.
         -3    1    3    3    0  502 -0.66796055994E+01  0.11236808111E+02  0.15589827612E+03  0.15644537541E+03  0.00000000000E+00 0.  1.
         11    1    5    5    0    0  0.31142850176E+02 -0.29164238545E+02  0.43823622423E+02  0.61163222686E+02  0.00000000000E+00 0. -1.
        -11    1    5    5    0    0  0.15405029801E+03 -0.22507567856E+03  0.30466388766E+02  0.27444262833E+03  0.00000000000E+00 0.  1.
          4    1    6    6  503    0 -0.35364948791E+02  0.12807923810E+03 -0.33793053207E+03  0.36311432819E+03  0.00000000000E+00 0.  1.
         -4    1    6    6    0  503 -0.94128668159E+02  0.61118466389E+02 -0.40668140014E+03  0.42188319986E+03  0.00000000000E+00 0. -1.
<mgrwt>
<rscale>  0 0.13275148E+04</rscale>
<asrwt>0</asrwt>
<pdfrwt beam="1">  1        2 0.74605682E-01 0.13275148E+04</pdfrwt>
<pdfrwt beam="2">  1       -1 0.13977198E+00 0.13275148E+04</pdfrwt>
<totfact> 0.30057043E+01</totfact>
</mgrwt>
</event>
<event>
12    6  0.1510140E-007  0.1627288E+04  0.7818608E-02  0.8803957E-01
         -1   -1    0    0    0  501 -0.00000000000E+00  0.00000000000E+00  0.47088900516E+03  0.47088900516E+03  0.00000000000E+00 0.  1.
          2   -1    0    0  501    0  0.00000000000E+00 -0.00000000000E+00 -0.14058866271E+04  0.14058866271E+04  0.00000000000E+00 0. -1.
         24    2    1    2    0    0  0.28608109470E+03  0.22193717014E+03 -0.79052487992E+03  0.87551528728E+03  0.10246429751E+03 0.  0.
        254    2    1    2    0    0 -0.28608109470E+03 -0.22193717014E+03 -0.14447274204E+03  0.10012603450E+04  0.92225343861E+03 0.  0.
         23    2    4    4    0    0  0.28671271886E+03 -0.23393651486E+03  0.60836414683E+02  0.38598733697E+03  0.91403932111E+02 0.  0.
         23    2    4    4    0    0 -0.57279381356E+03  0.11999344718E+02 -0.20530915672E+03  0.61527300803E+03  0.90400704922E+02 0.  0.
          2    1    3    3  502    0  0.15091846890E+03  0.12124700323E+03 -0.53926959283E+03  0.57296501970E+03  0.00000000000E+00 0. -1.
         -1    1    3    3    0  502  0.13516262580E+03  0.10069016692E+03 -0.25125528708E+03  0.30255026758E+03  0.00000000000E+00 0.  1.
         11    1    5    5    0    0  0.17543194950E+03 -0.88120628021E+02  0.48048593911E+02  0.20211452537E+03  0.00000000000E+00 0.  1.
        -11    1    5    5    0    0  0.11128076936E+03 -0.14581588684E+03  0.12787820771E+02  0.18387281159E+03  0.00000000000E+00 0. -1.
          3    1    6    6  503    0 -0.19871039156E+03  0.41328873340E+02 -0.49048649911E+02  0.20880532930E+03  0.00000000000E+00 0. -1.
         -3    1    6    6    0  503 -0.37408342200E+03 -0.29329528622E+02 -0.15626050681E+03  0.40646767873E+03  0.00000000000E+00 0.  1.
<mgrwt>
<rscale>  0 0.16272880E+04</rscale>
<asrwt>0</asrwt>
<pdfrwt beam="1">  1        2 0.21629025E+00 0.16272880E+04</pdfrwt>
<pdfrwt beam="2">  1       -1 0.72444464E-01 0.16272880E+04</pdfrwt>
<totfact> 0.30098162E+01</totfact>
</mgrwt>
</event>
<event>
12    6  0.1510140E-007  0.1129334E+04  0.7818608E-02  0.9177064E-01
          2   -1    0    0  501    0  0.00000000000E+00  0.00000000000E+00  0.48065047025E+03  0.48065047025E+03  0.00000000000E+00 0. -1.
         -1   -1    0    0    0  501 -0.00000000000E+00 -0.00000000000E+00 -0.66336891152E+03  0.66336891152E+03  0.00000000000E+00 0.  1.
         24    2    1    2    0    0  0.49548716114E+02 -0.23986430763E+02  0.15403170016E+03  0.18268066109E+03  0.81339013728E+02 0.  0.
        254    2    1    2    0    0 -0.49548716114E+02  0.23986430763E+02 -0.33675014142E+03  0.96133872068E+03  0.89874415380E+03 0.  0.
         23    2    4    4    0    0 -0.24767484225E+03  0.73250982407E+02 -0.57376659236E+03  0.63594691809E+03  0.92259667276E+02 0.  0.
         23    2    4    4    0    0  0.19812612614E+03 -0.49264551645E+02  0.23701645094E+03  0.32539180259E+03  0.89566005072E+02 0.  0.
          4    1    3    3  502    0  0.46717501178E+02  0.22257732681E+02  0.76444683771E+02  0.92313169468E+02  0.00000000000E+00 0. -1.
         -3    1    3    3    0  502  0.28312149367E+01 -0.46244163444E+02  0.77587016387E+02  0.90367491625E+02  0.00000000000E+00 0.  1.
         11    1    5    5    0    0 -0.17349942331E+03  0.30564245255E+02 -0.46693246392E+03  0.49906126762E+03  0.00000000000E+00 0.  1.
        -11    1    5    5    0    0 -0.74175418943E+02  0.42686737152E+02 -0.10683412845E+03  0.13688565047E+03  0.00000000000E+00 0. -1.
          2    1    6    6  503    0  0.19325235715E+03 -0.31931057996E+02  0.18152840480E+03  0.26705547692E+03  0.00000000000E+00 0. -1.
         -2    1    6    6    0  503  0.48737689906E+01 -0.17333493649E+02  0.55488046149E+02  0.58336325661E+02  0.00000000000E+00 0.  1.
<mgrwt>
<rscale>  0 0.11293336E+04</rscale>
<asrwt>0</asrwt>
<pdfrwt beam="1">  1        2 0.73946226E-01 0.11293336E+04</pdfrwt>
<pdfrwt beam="2">  1       -1 0.10205676E+00 0.11293336E+04</pdfrwt>
<totfact> 0.66503844E+01</totfact>
</mgrwt>
</event>
<event>
12    6  0.1510140E-007  0.1804842E+04  0.7818608E-02  0.8703729E-01
          2   -1    0    0  501    0  0.00000000000E+00  0.00000000000E+00  0.21519988418E+04  0.21519988418E+04  0.00000000000E+00 0. -1.
         -1   -1    0    0    0  501 -0.00000000000E+00 -0.00000000000E+00 -0.37842192274E+03  0.37842192274E+03  0.00000000000E+00 0.  1.
         24    2    1    2    0    0 -0.87524224935E+02  0.43094342978E+03 -0.48085194893E+02  0.45010322167E+03  0.83114346338E+02 0.  0.
        254    2    1    2    0    0  0.87524224935E+02 -0.43094342978E+03  0.18216621140E+04  0.20803175429E+04  0.90326933534E+03 0.  0.
         23    2    4    4    0    0  0.31005749825E+03  0.11063750592E+03  0.32246667792E+03  0.46857246441E+03  0.84847428381E+02 0.  0.
         23    2    4    4    0    0 -0.22253327331E+03 -0.54158093570E+03  0.14991954360E+04  0.16117450785E+04  0.85465050619E+02 0.  0.
          2    1    3    3  502    0 -0.16774113457E+02  0.15483913319E+02  0.95397217017E+01  0.24741235702E+02  0.00000000000E+00 0. -1.
         -3    1    3    3    0  502 -0.70750111478E+02  0.41545951646E+03 -0.57624916594E+02  0.42536198597E+03  0.00000000000E+00 0.  1.
         11    1    5    5    0    0  0.23524254474E+02 -0.10013433867E+02  0.45528832937E+02  0.52216223867E+02  0.00000000000E+00 0.  1.
        -11    1    5    5    0    0  0.28653324377E+03  0.12065093978E+03  0.27693784498E+03  0.41635624054E+03  0.00000000000E+00 0. -1.
          2    1    6    6  503    0 -0.22168816088E+03 -0.47171465119E+03  0.12964986212E+04  0.13973435610E+04  0.00000000000E+00 0. -1.
         -2    1    6    6    0  503 -0.84511242677E+00 -0.69866284512E+02  0.20269681486E+03  0.21440151744E+03  0.00000000000E+00 0.  1.
<mgrwt>
<rscale>  0 0.18048419E+04</rscale>
<asrwt>0</asrwt>
<pdfrwt beam="1">  1        2 0.33107674E+00 0.18048419E+04</pdfrwt>
<pdfrwt beam="2">  1       -1 0.58218759E-01 0.18048419E+04</pdfrwt>
<totfact> 0.17655135E+01</totfact>
</mgrwt>
</event>
<event>
12    6  0.1510140E-007  0.1055414E+04  0.7818608E-02  0.9249772E-01
          2   -1    0    0  501    0  0.00000000000E+00  0.00000000000E+00  0.22005190635E+04  0.22005190635E+04  0.00000000000E+00 0. -1.
         -1   -1    0    0    0  501 -0.00000000000E+00 -0.00000000000E+00 -0.12654951659E+03  0.12654951659E+03  0.00000000000E+00 0.  1.
         24    2    1    2    0    0  0.71507978504E+02 -0.28726569983E+02  0.15513023193E+03  0.19107813888E+03  0.80665106987E+02 0.  0.
        254    2    1    2    0    0 -0.71507978504E+02  0.28726569983E+02  0.19188393150E+04  0.21359904412E+04  0.93518567218E+03 0.  0.
         23    2    4    4    0    0 -0.41890026667E+03 -0.10974253481E+03  0.15148552165E+04  0.15782340364E+04  0.92279409321E+02 0.  0.
         23    2    4    4    0    0  0.34739228817E+03  0.13846910479E+03  0.40398409846E+03  0.55775640478E+03  0.89632362500E+02 0.  0.
          4    1    3    3  502    0  0.58487997335E+02 -0.23993949111E+02  0.16322029704E+03  0.17503548438E+03  0.00000000000E+00 0. -1.
         -3    1    3    3    0  502  0.13019981169E+02 -0.47326208722E+01 -0.80900651068E+01  0.16042654499E+02  0.00000000000E+00 0.  1.
         11    1    5    5    0    0 -0.24765614160E+03 -0.29191117998E+02  0.96606205124E+03  0.99772820582E+03  0.00000000000E+00 0.  1.
        -11    1    5    5    0    0 -0.17124412508E+03 -0.80551416807E+02  0.54879316526E+03  0.58050583060E+03  0.00000000000E+00 0. -1.
          1    1    6    6  503    0  0.35514671914E+02  0.88964971421E+00  0.79755269509E+02  0.87309715451E+02  0.00000000000E+00 0. -1.
         -1    1    6    6    0  503  0.31187761626E+03  0.13757945507E+03  0.32422882895E+03  0.47044668933E+03  0.00000000000E+00 0.  1.
<mgrwt>
<rscale>  0 0.10554139E+04</rscale>
<asrwt>0</asrwt>
<pdfrwt beam="1">  1        2 0.33854137E+00 0.10554139E+04</pdfrwt>
<pdfrwt beam="2">  1       -1 0.19469158E-01 0.10554139E+04</pdfrwt>
<totfact> 0.12586182E+02</totfact>
</mgrwt>
</event>
<event>
12    6  0.1510140E-007  0.2289694E+04  0.7818608E-02  0.8481996E-01
          2   -1    0    0  501    0  0.00000000000E+00  0.00000000000E+00  0.16104082594E+04  0.16104082594E+04  0.00000000000E+00 0. -1.
         -1   -1    0    0    0  501 -0.00000000000E+00 -0.00000000000E+00 -0.81387735915E+03  0.81387735915E+03  0.00000000000E+00 0.  1.
         24    2    1    2    0    0 -0.75581395360E+03 -0.10055165316E+03  0.97638663182E+03  0.12414604821E+04  0.80795460517E+02 0.  0.
        254    2    1    2    0    0  0.75581395360E+03  0.10055165316E+03 -0.17985573155E+03  0.11828251365E+04  0.88620643864E+03 0.  0.
         23    2    4    4    0    0  0.70193985238E+03  0.30037506833E+03  0.15058888953E+03  0.78371633835E+03  0.92679810679E+02 0.  0.
         23    2    4    4    0    0  0.53874101217E+02 -0.19982341518E+03 -0.33044462108E+03  0.39910879812E+03  0.85219534712E+02 0.  0.
          4    1    3    3  502    0 -0.67984390665E+03 -0.10095288825E+03  0.84005347119E+03  0.10853888969E+04  0.00000000000E+00 0. -1.
         -3    1    3    3    0  502 -0.75970046952E+02  0.40123509489E+00  0.13633316063E+03  0.15607158522E+03  0.00000000000E+00 0.  1.
         11    1    5    5    0    0  0.44652986554E+03  0.23217092666E+03  0.12166867616E+03  0.51777941902E+03  0.00000000000E+00 0. -1.
        -11    1    5    5    0    0  0.25540998684E+03  0.68204141680E+02  0.28920213373E+02  0.26593691933E+03  0.00000000000E+00 0.  1.
          2    1    6    6  503    0  0.57663142814E+02 -0.19088755267E+03 -0.33381124915E+03  0.38883549974E+03  0.00000000000E+00 0. -1.
         -2    1    6    6    0  503 -0.37890415967E+01 -0.89358625060E+01  0.33666280636E+01  0.10273298373E+02  0.00000000000E+00 0.  1.
<mgrwt>
<rscale>  0 0.22896941E+04</rscale>
<asrwt>0</asrwt>
<pdfrwt beam="1">  1        2 0.24775512E+00 0.22896941E+04</pdfrwt>
<pdfrwt beam="2">  1       -1 0.12521190E+00 0.22896941E+04</pdfrwt>
<totfact> 0.63367142E+00</totfact>
</mgrwt>
</event>
<event>
12    6  0.1510140E-007  0.1013135E+04  0.7818608E-02  0.9294255E-01
         -1   -1    0    0    0  501 -0.00000000000E+00  0.00000000000E+00  0.17980896471E+03  0.17980896471E+03  0.00000000000E+00 0.  1.
          2   -1    0    0  501    0  0.00000000000E+00 -0.00000000000E+00 -0.14271295846E+04  0.14271295846E+04  0.00000000000E+00 0. -1.
         24    2    1    2    0    0 -0.81860410382E+02  0.33671884557E-01 -0.77836429545E+02  0.13747184702E+03  0.78350947897E+02 0.  0.
        254    2    1    2    0    0  0.81860410382E+02 -0.33671884556E-01 -0.11694841903E+04  0.14694667023E+04  0.88596726224E+03 0.  0.
         23    2    4    4    0    0 -0.11082069259E+02 -0.64169703985E+02  0.12406223937E+03  0.16753410933E+03  0.91845932851E+02 0.  0.
         23    2    4    4    0    0  0.92942479641E+02  0.64136032100E+02 -0.12935464297E+04  0.13019325930E+04  0.94944065900E+02 0.  0.
          4    1    3    3  502    0 -0.36254083328E+02  0.36266254035E+01 -0.83760875877E+02  0.91342187939E+02  0.00000000000E+00 0. -1.
         -3    1    3    3    0  502 -0.45606327054E+02 -0.35929535189E+01  0.59244463322E+01  0.46129659078E+02  0.00000000000E+00 0.  1.
         11    1    5    5    0    0 -0.30184102057E+01 -0.13024038255E+02  0.11400842534E+03  0.11478962244E+03  0.00000000000E+00 0.  1.
        -11    1    5    5    0    0 -0.80636590535E+01 -0.51145665730E+02  0.10053814038E+02  0.52744486887E+02  0.00000000000E+00 0. -1.
          3    1    6    6  503    0  0.34459844694E+02  0.79494489270E+02 -0.71257009754E+03  0.71781822116E+03  0.00000000000E+00 0. -1.
         -3    1    6    6    0  503  0.58482634947E+02 -0.15358457170E+02 -0.58097633218E+03  0.58411437180E+03  0.00000000000E+00 0.  1.
<mgrwt>
<rscale>  0 0.10131351E+04</rscale>
<asrwt>0</asrwt>
<pdfrwt beam="1">  1        2 0.21955841E+00 0.10131351E+04</pdfrwt>
<pdfrwt beam="2">  1       -1 0.27662916E-01 0.10131351E+04</pdfrwt>
<totfact> 0.18644882E+02</totfact>
</mgrwt>
</event>
<event>
12    6  0.1510140E-007  0.2349646E+04  0.7818608E-02  0.8458599E-01
          2   -1    0    0  501    0  0.00000000000E+00  0.00000000000E+00  0.15615052561E+04  0.15615052561E+04  0.00000000000E+00 0. -1.
         -1   -1    0    0    0  501 -0.00000000000E+00 -0.00000000000E+00 -0.88389682739E+03  0.88389682739E+03  0.00000000000E+00 0.  1.
         24    2    1    2    0    0 -0.73357213901E+03 -0.32399019325E+03 -0.33662886354E+03  0.87336688928E+03  0.79705727938E+02 0.  0.
        254    2    1    2    0    0  0.73357213901E+03  0.32399019325E+03  0.10142372922E+04  0.15720351942E+04  0.89415862037E+03 0.  0.
         23    2    4    4    0    0  0.49798518881E+03 -0.40133182622E+02  0.50083116313E+02  0.51011878788E+03  0.90071852360E+02 0.  0.
         23    2    4    4    0    0  0.23558695019E+03  0.36412337588E+03  0.96415417591E+03  0.10619164063E+04  0.99930651435E+02 0.  0.
          4    1    3    3  502    0 -0.59374070226E+02 -0.51873493135E+02 -0.33135281067E+02  0.85522431891E+02  0.00000000000E+00 0. -1.
         -3    1    3    3    0  502 -0.67419806878E+03 -0.27211670012E+03 -0.30349358247E+03  0.78784445738E+03  0.00000000000E+00 0.  1.
         11    1    5    5    0    0  0.22821382010E+02 -0.92396517505E+01  0.22174614072E+02  0.33134576360E+02  0.00000000000E+00 0.  1.
        -11    1    5    5    0    0  0.47516380680E+03 -0.30893530871E+02  0.27908502241E+02  0.47698421152E+03  0.00000000000E+00 0. -1.
          1    1    6    6  503    0  0.22374453229E+03  0.36464866554E+03  0.89793303041E+03  0.99464264543E+03  0.00000000000E+00 0. -1.
         -1    1    6    6    0  503  0.11842417903E+02 -0.52528966100E+00  0.66221145498E+02  0.67273760873E+02  0.00000000000E+00 0.  1.
<mgrwt>
<rscale>  0 0.23496464E+04</rscale>
<asrwt>0</asrwt>
<pdfrwt beam="1">  1        2 0.24023158E+00 0.23496464E+04</pdfrwt>
<pdfrwt beam="2">  1       -1 0.13598413E+00 0.23496464E+04</pdfrwt>
<totfact> 0.54497197E+00</totfact>
</mgrwt>
</event>
<event>
12    6  0.1510140E-007  0.1611525E+04  0.7818608E-02  0.8813499E-01
         -1   -1    0    0    0  501 -0.00000000000E+00  0.00000000000E+00  0.74053531241E+03  0.74053531241E+03  0.00000000000E+00 0.  1.
          2   -1    0    0  501    0  0.00000000000E+00 -0.00000000000E+00 -0.87673456704E+03  0.87673456704E+03  0.00000000000E+00 0. -1.
         24    2    1    2    0    0  0.46014693120E+03  0.30779638979E+03 -0.12023920459E+03  0.57217715323E+03  0.80345581681E+02 0.  0.
        254    2    1    2    0    0 -0.46014693120E+03 -0.30779638979E+03 -0.15960050040E+02  0.10450927262E+04  0.88627888802E+03 0.  0.
         23    2    4    4    0    0 -0.38491230627E+03  0.25307245536E+03 -0.78185249497E+01  0.47140658148E+03  0.99799221160E+02 0.  0.
         23    2    4    4    0    0 -0.75234624923E+02 -0.56086884515E+03 -0.81415250904E+01  0.57368614475E+03  0.93890350912E+02 0.  0.
          4    1    3    3  502    0  0.89592287105E+02  0.34317867534E+02  0.98660428986E+00  0.95945126655E+02  0.00000000000E+00 0. -1.
         -3    1    3    3    0  502  0.37055464409E+03  0.27347852226E+03 -0.12122580888E+03  0.47623202657E+03  0.00000000000E+00 0.  1.
         11    1    5    5    0    0 -0.26144797777E+03  0.19078549184E+03  0.37643191527E+02  0.32583916100E+03  0.00000000000E+00 0.  1.
        -11    1    5    5    0    0 -0.12346432850E+03  0.62286963518E+02 -0.45461716477E+02  0.14556742047E+03  0.00000000000E+00 0. -1.
          2    1    6    6  503    0 -0.28828938989E+02 -0.17790057397E+03  0.40922341391E+02  0.18480898238E+03  0.00000000000E+00 0. -1.
         -2    1    6    6    0  503 -0.46405685934E+02 -0.38296827118E+03 -0.49063866482E+02  0.38887716237E+03  0.00000000000E+00 0.  1.
<mgrwt>
<rscale>  0 0.16115246E+04</rscale>
<asrwt>0</asrwt>
<pdfrwt beam="1">  1        2 0.13488224E+00 0.16115246E+04</pdfrwt>
<pdfrwt beam="2">  1       -1 0.11392851E+00 0.16115246E+04</pdfrwt>
<totfact> 0.23352529E+01</totfact>
</mgrwt>
</event>
<event>
12    6  0.1510140E-007  0.3304708E+04  0.7818608E-02  0.8161698E-01
         -1   -1    0    0    0  501 -0.00000000000E+00  0.00000000000E+00  0.15209769180E+04  0.15209769180E+04  0.00000000000E+00 0.  1.
          2   -1    0    0  501    0  0.00000000000E+00 -0.00000000000E+00 -0.17950789783E+04  0.17950789783E+04  0.00000000000E+00 0. -1.
         24    2    1    2    0    0  0.25672820590E+03  0.11095744922E+04 -0.11497286696E+04  0.16214082871E+04  0.10011939883E+03 0.  0.
        254    2    1    2    0    0 -0.25672820590E+03 -0.11095744922E+04  0.87562660938E+03  0.16946476093E+04  0.89891247349E+03 0.  0.
         23    2    4    4    0    0  0.25133244287E+03 -0.80785918622E+03  0.55573089173E+03  0.10166537434E+04  0.94570335691E+02 0.  0.
         23    2    4    4    0    0 -0.50806064878E+03 -0.30171530601E+03  0.31989571766E+03  0.67799386584E+03  0.90469128572E+02 0.  0.
          2    1    3    3  502    0  0.16194127099E+03  0.62030681613E+03 -0.71207503493E+03  0.95815258531E+03  0.00000000000E+00 0. -1.
         -1    1    3    3    0  502  0.94786934917E+02  0.48926767611E+03 -0.43765363472E+03  0.66325570175E+03  0.00000000000E+00 0.  1.
         11    1    5    5    0    0  0.11949703775E+03 -0.34283291594E+03  0.29277979198E+03  0.46640535683E+03  0.00000000000E+00 0.  1.
        -11    1    5    5    0    0  0.13183540512E+03 -0.46502627028E+03  0.26295109975E+03  0.55024838659E+03  0.00000000000E+00 0. -1.
          1    1    6    6  503    0 -0.36967871333E+03 -0.18605034635E+03  0.25610621241E+03  0.48669032711E+03  0.00000000000E+00 0. -1.
         -1    1    6    6    0  503 -0.13838193544E+03 -0.11566495967E+03  0.63789505252E+02  0.19130353873E+03  0.00000000000E+00 0.  1.
<mgrwt>
<rscale>  0 0.33047080E+04</rscale>
<asrwt>0</asrwt>
<pdfrwt beam="1">  1        2 0.27616600E+00 0.33047080E+04</pdfrwt>
<pdfrwt beam="2">  1       -1 0.23399645E+00 0.33047080E+04</pdfrwt>
<totfact> 0.73263610E-01</totfact>
</mgrwt>
</event>
<event>
12    6  0.1510140E-007  0.3197121E+04  0.7818608E-02  0.8189578E-01
         -1   -1    0    0    0  501 -0.00000000000E+00  0.00000000000E+00  0.85763658032E+03  0.85763658032E+03  0.00000000000E+00 0.  1.
          2   -1    0    0  501    0  0.00000000000E+00 -0.00000000000E+00 -0.29795786506E+04  0.29795786506E+04  0.00000000000E+00 0. -1.
         24    2    1    2    0    0  0.76780252582E+03  0.12210981693E+04 -0.13299608316E+04  0.19636233327E+04  0.80120666832E+02 0.  0.
        254    2    1    2    0    0 -0.76780252582E+03 -0.12210981693E+04 -0.79198123865E+03  0.18735918983E+04  0.89582970542E+03 0.  0.
         23    2    4    4    0    0 -0.94975326579E+03 -0.10714977105E+04 -0.74206173854E+03  0.16155288393E+04  0.95599148729E+02 0.  0.
         23    2    4    4    0    0  0.18195073997E+03 -0.14960045877E+03 -0.49919500113E+02  0.25806305897E+03  0.92834351783E+02 0.  0.
          2    1    3    3  502    0  0.72616593737E+03  0.11506236166E+04 -0.12778489198E+04  0.18665876721E+04  0.00000000000E+00 0. -1.
         -1    1    3    3    0  502  0.41636588446E+02  0.70474552710E+02 -0.52111911826E+02  0.97035660617E+02  0.00000000000E+00 0.  1.
         11    1    5    5    0    0 -0.73404333770E+03 -0.81010213329E+03 -0.60941036063E+03  0.12515854248E+04  0.00000000000E+00 0.  1.
        -11    1    5    5    0    0 -0.21570992809E+03 -0.26139557723E+03 -0.13265137791E+03  0.36394341447E+03  0.00000000000E+00 0. -1.
          2    1    6    6  503    0  0.74690279415E+02 -0.30815087191E+02 -0.55328151049E+02  0.97925541797E+02  0.00000000000E+00 0. -1.
         -2    1    6    6    0  503  0.10726046056E+03 -0.11878537158E+03  0.54086509360E+01  0.16013751717E+03  0.00000000000E+00 0.  1.
<mgrwt>
<rscale>  0 0.31971210E+04</rscale>
<asrwt>0</asrwt>
<pdfrwt beam="1">  1        2 0.45839671E+00 0.31971210E+04</pdfrwt>
<pdfrwt beam="2">  1       -1 0.13194409E+00 0.31971210E+04</pdfrwt>
<totfact> 0.83730889E-01</totfact>
</mgrwt>
</event>
<event>
12    6  0.1510140E-007  0.1875758E+04  0.7818608E-02  0.8667018E-01
         -1   -1    0    0    0  501 -0.00000000000E+00  0.00000000000E+00  0.73655972818E+03  0.73655972818E+03  0.00000000000E+00 0.  1.
          2   -1    0    0  501    0  0.00000000000E+00 -0.00000000000E+00 -0.11942230151E+04  0.11942230151E+04  0.00000000000E+00 0. -1.
         24    2    1    2    0    0 -0.96300954291E+02 -0.61901758552E+03  0.18722890894E+03  0.65875074938E+03  0.80257339122E+02 0.  0.
        254    2    1    2    0    0  0.96300954291E+02  0.61901758552E+03 -0.64489219589E+03  0.12720319939E+04  0.89984598920E+03 0.  0.
         23    2    4    4    0    0  0.19383105076E+03  0.76647128819E+03 -0.70689960473E+03  0.10640483300E+04  0.86273318792E+02 0.  0.
         23    2    4    4    0    0 -0.97530096469E+02 -0.14745370267E+03  0.62007408844E+02  0.20798366393E+03  0.90319275698E+02 0.  0.
          2    1    3    3  502    0 -0.20485892302E+02 -0.55634769617E+02 -0.28433571952E+01  0.59354730679E+02  0.00000000000E+00 0. -1.
         -3    1    3    3    0  502 -0.75815061988E+02 -0.56338281591E+03  0.19007226614E+03  0.59939601870E+03  0.00000000000E+00 0.  1.
         11    1    5    5    0    0  0.10911227773E+03  0.36121338497E+03 -0.39007345154E+03  0.54271345683E+03  0.00000000000E+00 0. -1.
        -11    1    5    5    0    0  0.84718773031E+02  0.40525790323E+03 -0.31682615319E+03  0.52133487316E+03  0.00000000000E+00 0.  1.
          4    1    6    6  503    0 -0.62007366866E+02 -0.94594962765E+02 -0.79422957377E+01  0.11338518681E+03  0.00000000000E+00 0.  1.
         -4    1    6    6    0  503 -0.35522729603E+02 -0.52858739904E+02  0.69949704582E+02  0.94598477122E+02  0.00000000000E+00 0. -1.
<mgrwt>
<rscale>  0 0.18757575E+04</rscale>
<asrwt>0</asrwt>
<pdfrwt beam="1">  1        2 0.18372662E+00 0.18757575E+04</pdfrwt>
<pdfrwt beam="2">  1       -1 0.11331688E+00 0.18757575E+04</pdfrwt>
<totfact> 0.14528043E+01</totfact>
</mgrwt>
</event>
<event>
12    6  0.1525705E-007  0.1860878E+04  0.7818608E-02  0.8674579E-01
          2   -1    0    0  501    0  0.00000000000E+00  0.00000000000E+00  0.15543734983E+04  0.15543734983E+04  0.00000000000E+00 0. -1.
         -1   -1    0    0    0  501 -0.00000000000E+00 -0.00000000000E+00 -0.55695550644E+03  0.55695550644E+03  0.00000000000E+00 0.  1.
         24    2    1    2    0    0 -0.63228244394E+03 -0.25550906111E+03  0.14705505172E+03  0.70222764405E+03  0.80202909001E+02 0.  0.
        254    2    1    2    0    0  0.63228244394E+03  0.25550906111E+03  0.85036294019E+03  0.14091013607E+04  0.89296335062E+03 0.  0.
         23    2    4    4    0    0  0.16241405929E+03  0.70992594787E+02  0.87305949084E+03  0.89575158716E+03  0.93379634678E+02 0.  0.
         23    2    4    4    0    0  0.46986838464E+03  0.18451646632E+03 -0.22696550650E+02  0.51334977358E+03  0.90499897173E+02 0.  0.
          2    1    3    3  502    0 -0.82518222719E+01  0.37337098696E+01 -0.38561250114E+01  0.98439250455E+01  0.00000000000E+00 0. -1.
         -3    1    3    3    0  502 -0.62403062166E+03 -0.25924277098E+03  0.15091117673E+03  0.69238371900E+03  0.00000000000E+00 0.  1.
         11    1    5    5    0    0  0.63068817164E+02  0.13047863306E+02  0.14493888153E+03  0.15860391487E+03  0.00000000000E+00 0. -1.
        -11    1    5    5    0    0  0.99345242128E+02  0.57944731481E+02  0.72812060932E+03  0.73714767228E+03  0.00000000000E+00 0.  1.
          2    1    6    6  503    0  0.91097575070E+02  0.46239228338E+02 -0.40108425216E+02  0.10975208515E+03  0.00000000000E+00 0. -1.
         -2    1    6    6    0  503  0.37877080957E+03  0.13827723799E+03  0.17411874566E+02  0.40359768843E+03  0.00000000000E+00 0.  1.
<mgrwt>
<rscale>  0 0.18608782E+04</rscale>
<asrwt>0</asrwt>
<pdfrwt beam="1">  1        2 0.23913438E+00 0.18608782E+04</pdfrwt>
<pdfrwt beam="2">  1       -1 0.85685463E-01 0.18608782E+04</pdfrwt>
<totfact> 0.17034435E+01</totfact>
</mgrwt>
</event>
<event>
12    6  0.1510140E-007  0.1558222E+04  0.7818608E-02  0.8846633E-01
         -1   -1    0    0    0  501 -0.00000000000E+00  0.00000000000E+00  0.16164219399E+04  0.16164219399E+04  0.00000000000E+00 0.  1.
          2   -1    0    0  501    0  0.00000000000E+00 -0.00000000000E+00 -0.37552946182E+03  0.37552946182E+03  0.00000000000E+00 0. -1.
         24    2    1    2    0    0 -0.32347115737E+03 -0.43224668528E+02  0.93932318596E+03  0.99862258314E+03  0.91744505331E+02 0.  0.
        254    2    1    2    0    0  0.32347115737E+03  0.43224668528E+02  0.30156929214E+03  0.99332881859E+03  0.88840089051E+03 0.  0.
         23    2    4    4    0    0  0.84303013722E+02  0.22452609587E+03 -0.24863640582E+03  0.36042192500E+03  0.10278587391E+03 0.  0.
         23    2    4    4    0    0  0.23916814365E+03 -0.18130142734E+03  0.55020569796E+03  0.63290689358E+03  0.88165851591E+02 0.  0.
          2    1    3    3  502    0 -0.30895844181E+03 -0.42448993059E+02  0.80148948384E+03  0.86002478364E+03  0.00000000000E+00 0. -1.
         -1    1    3    3    0  502 -0.14512715563E+02 -0.77567546876E+00  0.13783370212E+03  0.13859779950E+03  0.00000000000E+00 0.  1.
         11    1    5    5    0    0  0.10913723074E+01  0.20343599900E+01  0.94090376743E+01  0.96881218014E+01  0.00000000000E+00 0.  1.
        -11    1    5    5    0    0  0.83211641415E+02  0.22249173588E+03 -0.25804544350E+03  0.35073380320E+03  0.00000000000E+00 0. -1.
          2    1    6    6  503    0  0.23638165477E+03 -0.18395606047E+03  0.50214857365E+03  0.58469591149E+03  0.00000000000E+00 0. -1.
         -2    1    6    6    0  503  0.27864888829E+01  0.26546331361E+01  0.48057124313E+02  0.48210982096E+02  0.00000000000E+00 0.  1.
<mgrwt>
<rscale>  0 0.15582221E+04</rscale>
<asrwt>0</asrwt>
<pdfrwt beam="1">  1        2 0.57773764E-01 0.15582221E+04</pdfrwt>
<pdfrwt beam="2">  1       -1 0.24868030E+00 0.15582221E+04</pdfrwt>
<totfact> 0.66864620E+00</totfact>
</mgrwt>
</event>
<event>
12    6  0.1510140E-007  0.1984295E+04  0.7818608E-02  0.8613999E-01
          2   -1    0    0  501    0  0.00000000000E+00  0.00000000000E+00  0.41221808605E+04  0.41221808605E+04  0.00000000000E+00 0. -1.
         -1   -1    0    0    0  501 -0.00000000000E+00 -0.00000000000E+00 -0.23879506412E+03  0.23879506412E+03  0.00000000000E+00 0.  1.
         24    2    1    2    0    0 -0.45189243228E+03  0.49010858628E+03  0.24589358454E+04  0.25489122519E+04  0.78581038180E+02 0.  0.
        254    2    1    2    0    0  0.45189243228E+03 -0.49010858628E+03  0.14244499510E+04  0.18120636727E+04  0.90005771725E+03 0.  0.
         23    2    4    4    0    0  0.71478976654E+03 -0.33026623480E+03  0.10838486271E+04  0.13436603318E+04  0.10341684820E+03 0.  0.
         23    2    4    4    0    0 -0.26289733426E+03 -0.15984235148E+03  0.34060132390E+03  0.46840334095E+03  0.93422921632E+02 0.  0.
          4    1    3    3  502    0 -0.14781774123E+03  0.14631386645E+03  0.63912334654E+03  0.67211344595E+03  0.00000000000E+00 0. -1.
         -1    1    3    3    0  502 -0.30407469105E+03  0.34379471983E+03  0.18198124988E+04  0.18767988059E+04  0.00000000000E+00 0.  1.
         11    1    5    5    0    0  0.71720302196E+03 -0.32315082553E+03  0.10741345916E+04  0.13313796422E+04  0.00000000000E+00 0.  1.
        -11    1    5    5    0    0 -0.24132554252E+01 -0.71154092696E+01  0.97140355223E+01  0.12280689596E+02  0.00000000000E+00 0. -1.
          4    1    6    6  503    0 -0.78112799223E+02 -0.54409071355E+02  0.47936494436E+02  0.10658266251E+03  0.00000000000E+00 0. -1.
         -4    1    6    6    0  503 -0.18478453504E+03 -0.10543328013E+03  0.29266482946E+03  0.36182067844E+03  0.00000000000E+00 0.  1.
<mgrwt>
<rscale>  0 0.19842948E+04</rscale>
<asrwt>0</asrwt>
<pdfrwt beam="1">  1        2 0.63418162E+00 0.19842948E+04</pdfrwt>
<pdfrwt beam="2">  1       -1 0.36737705E-01 0.19842948E+04</pdfrwt>
<totfact> 0.20663297E+00</totfact>
</mgrwt>
</event>
<event>
12    6  0.1510140E-007  0.1222265E+04  0.7818608E-02  0.9093588E-01
         -1   -1    0    0    0  501 -0.00000000000E+00  0.00000000000E+00  0.21087929403E+03  0.21087929403E+03  0.00000000000E+00 0.  1.
          2   -1    0    0  501    0  0.00000000000E+00 -0.00000000000E+00 -0.17710743231E+04  0.17710743231E+04  0.00000000000E+00 0. -1.
         24    2    1    2    0    0  0.98114151978E+00  0.18935362794E+03 -0.86305552252E+03  0.88719155308E+03  0.79926577886E+02 0.  0.
        254    2    1    2    0    0 -0.98114151978E+00 -0.18935362794E+03 -0.69713950660E+03  0.10947620641E+04  0.82258417580E+03 0.  0.
         23    2    4    4    0    0  0.10464805851E+03 -0.49197374080E+03 -0.43982571970E+03  0.67400113905E+03  0.88552210306E+02 0.  0.
         23    2    4    4    0    0 -0.10562920003E+03  0.30262011286E+03 -0.25731378690E+03  0.42076092505E+03  0.89960605349E+02 0.  0.
          2    1    3    3  502    0 -0.52431388252E+01  0.16694142092E+03 -0.83080582805E+03  0.84742861200E+03  0.00000000000E+00 0. -1.
         -1    1    3    3    0  502  0.62242803450E+01  0.22412207028E+02 -0.32249694470E+02  0.39762941077E+02  0.00000000000E+00 0.  1.
         11    1    5    5    0    0  0.97080715759E+02 -0.47861770735E+03 -0.44176844787E+03  0.65852785567E+03  0.00000000000E+00 0.  1.
        -11    1    5    5    0    0  0.75673427525E+01 -0.13356033455E+02  0.19427281719E+01  0.15473283386E+02  0.00000000000E+00 0. -1.
          3    1    6    6  503    0  0.16051204329E+02  0.26753616497E+02 -0.19990048286E+02  0.37054003651E+02  0.00000000000E+00 0. -1.
         -3    1    6    6    0  503 -0.12168040436E+03  0.27586649636E+03 -0.23732373862E+03  0.38370692140E+03  0.00000000000E+00 0.  1.
<mgrwt>
<rscale>  0 0.12222650E+04</rscale>
<asrwt>0</asrwt>
<pdfrwt beam="1">  1        2 0.27247296E+00 0.12222650E+04</pdfrwt>
<pdfrwt beam="2">  1       -1 0.32442970E-01 0.12222650E+04</pdfrwt>
<totfact> 0.89316698E+01</totfact>
</mgrwt>
</event>
<event>
12    6  0.1510140E-007  0.1733536E+04  0.7818608E-02  0.8742465E-01
         -1   -1    0    0    0  501 -0.00000000000E+00  0.00000000000E+00  0.34376766014E+03  0.34376766014E+03  0.00000000000E+00 0.  1.
          2   -1    0    0  501    0  0.00000000000E+00 -0.00000000000E+00 -0.21854498832E+04  0.21854498832E+04  0.00000000000E+00 0. -1.
         24    2    1    2    0    0  0.22729605419E+03  0.12910680132E+03  0.16023667474E+03  0.31719079017E+03  0.81253572469E+02 0.  0.
        254    2    1    2    0    0 -0.22729605419E+03 -0.12910680132E+03 -0.20019188978E+04  0.22120267531E+04  0.90390874594E+03 0.  0.
         23    2    4    4    0    0  0.28887060959E+03 -0.24961437160E+03 -0.10131132132E+04  0.10864580528E+04  0.90769786285E+02 0.  0.
         23    2    4    4    0    0 -0.51616666378E+03  0.12050757028E+03 -0.98880568450E+03  0.11255687003E+04  0.90653836623E+02 0.  0.
          2    1    3    3  502    0  0.13320184055E+03  0.35686298379E+02  0.57298951354E+02  0.14932987659E+03  0.00000000000E+00 0. -1.
         -1    1    3    3    0  502  0.94094213646E+02  0.93420502941E+02  0.10293772338E+03  0.16786091358E+03  0.00000000000E+00 0.  1.
         11    1    5    5    0    0  0.20071827109E+03 -0.16987769306E+03 -0.57090055935E+03  0.62854888721E+03  0.00000000000E+00 0.  1.
        -11    1    5    5    0    0  0.88152338504E+02 -0.79736678533E+02 -0.44221265390E+03  0.45790916562E+03  0.00000000000E+00 0. -1.
          1    1    6    6  503    0 -0.27962099461E+03  0.46943408122E+02 -0.61390332925E+03  0.67621659389E+03  0.00000000000E+00 0. -1.
         -1    1    6    6    0  503 -0.23654566917E+03  0.73564162156E+02 -0.37490235526E+03  0.44935210641E+03  0.00000000000E+00 0.  1.
<mgrwt>
<rscale>  0 0.17335363E+04</rscale>
<asrwt>0</asrwt>
<pdfrwt beam="1">  1        2 0.33622306E+00 0.17335363E+04</pdfrwt>
<pdfrwt beam="2">  1       -1 0.52887332E-01 0.17335363E+04</pdfrwt>
<totfact> 0.20506395E+01</totfact>
</mgrwt>
</event>
<event>
12    6  0.1510140E-007  0.1481783E+04  0.7818608E-02  0.8896658E-01
         -1   -1    0    0    0  501 -0.00000000000E+00  0.00000000000E+00  0.18008653224E+03  0.18008653224E+03  0.00000000000E+00 0.  1.
          2   -1    0    0  501    0  0.00000000000E+00 -0.00000000000E+00 -0.30480902819E+04  0.30480902819E+04  0.00000000000E+00 0. -1.
         24    2    1    2    0    0 -0.20905835632E+03  0.20078584857E+03 -0.11133654648E+03  0.32130980870E+03  0.82606375349E+02 0.  0.
        254    2    1    2    0    0  0.20905835632E+03 -0.20078584857E+03 -0.27566672032E+04  0.29068670054E+04  0.87558058732E+03 0.  0.
         23    2    4    4    0    0 -0.23120096029E+03  0.73575532634E+02 -0.17663708947E+04  0.17852354156E+04  0.90178202717E+02 0.  0.
         23    2    4    4    0    0  0.44025931661E+03 -0.27436138121E+03 -0.99029630843E+03  0.11216315898E+04  0.90929706251E+02 0.  0.
          4    1    3    3  502    0  0.48997800676E+01 -0.93303519904E+00  0.29856429648E+01  0.58131285301E+01  0.00000000000E+00 0. -1.
         -3    1    3    3    0  502 -0.21395813639E+03  0.20171888377E+03 -0.11432218945E+03  0.31549668017E+03  0.00000000000E+00 0.  1.
         11    1    5    5    0    0  0.82560929063E+01  0.54067629880E+01 -0.68762355033E+02  0.69466953479E+02  0.00000000000E+00 0.  1.
        -11    1    5    5    0    0 -0.23945705319E+03  0.68168769646E+02 -0.16976085397E+04  0.17157684621E+04  0.00000000000E+00 0. -1.
          2    1    6    6  503    0  0.21919048674E+03 -0.14434898183E+03 -0.59649459328E+03  0.65168005788E+03  0.00000000000E+00 0. -1.
         -2    1    6    6    0  503  0.22106882987E+03 -0.13001239938E+03 -0.39380171515E+03  0.46995153195E+03  0.00000000000E+00 0.  1.
<mgrwt>
<rscale>  0 0.14817827E+04</rscale>
<asrwt>0</asrwt>
<pdfrwt beam="1">  1        2 0.46893694E+00 0.14817827E+04</pdfrwt>
<pdfrwt beam="2">  1       -1 0.27705622E-01 0.14817827E+04</pdfrwt>
<totfact> 0.21153735E+01</totfact>
</mgrwt>
</event>
<event>
12    6  0.1510140E-007  0.1584441E+04  0.7818608E-02  0.8830164E-01
         -1   -1    0    0    0  501 -0.00000000000E+00  0.00000000000E+00  0.93471559444E+03  0.93471559444E+03  0.00000000000E+00 0.  1.
          2   -1    0    0  501    0  0.00000000000E+00 -0.00000000000E+00 -0.67144835061E+03  0.67144835061E+03  0.00000000000E+00 0. -1.
         24    2    1    2    0    0  0.34399276054E+03  0.21091868121E+03  0.46597101049E+03  0.62109939937E+03  0.76274319986E+02 0.  0.
        254    2    1    2    0    0 -0.34399276054E+03 -0.21091868121E+03 -0.20270376667E+03  0.98506454568E+03  0.87546880741E+03 0.  0.
         23    2    4    4    0    0  0.45624403775E+02 -0.40786598262E+03  0.11682924906E+03  0.43615920123E+03  0.90274743856E+02 0.  0.
         23    2    4    4    0    0 -0.38961716432E+03  0.19694730142E+03 -0.31953301573E+03  0.54890534446E+03  0.92768285339E+02 0.  0.
          4    1    3    3  502    0  0.28969350651E+02  0.43002493286E+02  0.80187482249E+02  0.95490680254E+02  0.00000000000E+00 0. -1.
         -3    1    3    3    0  502  0.31502340989E+03  0.16791618792E+03  0.38578352824E+03  0.52560871911E+03  0.00000000000E+00 0.  1.
         11    1    5    5    0    0  0.12429699850E+02 -0.35345496634E+03  0.11667476622E+03  0.37242168538E+03  0.00000000000E+00 0.  1.
        -11    1    5    5    0    0  0.33194703925E+02 -0.54411016280E+02  0.15448284556E+00  0.63737515846E+02  0.00000000000E+00 0. -1.
          3    1    6    6  503    0 -0.18281383088E+02 -0.68049636366E+01 -0.30207580199E+02  0.35958509413E+02  0.00000000000E+00 0. -1.
         -3    1    6    6    0  503 -0.37133578123E+03  0.20375226505E+03 -0.28932543553E+03  0.51294683504E+03  0.00000000000E+00 0.  1.
<mgrwt>
<rscale>  0 0.15844409E+04</rscale>
<asrwt>0</asrwt>
<pdfrwt beam="1">  1        2 0.10329975E+00 0.15844409E+04</pdfrwt>
<pdfrwt beam="2">  1       -1 0.14380240E+00 0.15844409E+04</pdfrwt>
<totfact> 0.18497417E+01</totfact>
</mgrwt>
</event>
<event>
12    6  0.1510140E-007  0.1342670E+04  0.7818608E-02  0.8996395E-01
          2   -1    0    0  501    0  0.00000000000E+00  0.00000000000E+00  0.10627197541E+04  0.10627197541E+04  0.00000000000E+00 0. -1.
         -3   -1    0    0    0  501 -0.00000000000E+00 -0.00000000000E+00 -0.42409198328E+03  0.42409198328E+03  0.00000000000E+00 0.  1.
         24    2    1    2    0    0 -0.33029251266E+03  0.12218236431E+03  0.14295735030E+03  0.38836776963E+03  0.79818834964E+02 0.  0.
        254    2    1    2    0    0  0.33029251266E+03 -0.12218236431E+03  0.49567042054E+03  0.10984439678E+04  0.91480506693E+03 0.  0.
         23    2    4    4    0    0 -0.28047843018E+03 -0.12930530405E+03  0.33007539523E+03  0.45950626603E+03  0.82512002351E+02 0.  0.
         23    2    4    4    0    0  0.61077094284E+03  0.71229397366E+01  0.16559502531E+03  0.63893770174E+03  0.87907868917E+02 0.  0.
          4    1    3    3  502    0 -0.23762388169E+03  0.76928090074E+02  0.62232109168E+02  0.25740216705E+03  0.00000000000E+00 0. -1.
         -3    1    3    3    0  502 -0.92668630966E+02  0.45254274236E+02  0.80725241132E+02  0.13096560257E+03  0.00000000000E+00 0.  1.
         11    1    5    5    0    0 -0.17187841400E+03 -0.62579399498E+02  0.13864121357E+03  0.22952071048E+03  0.00000000000E+00 0.  1.
        -11    1    5    5    0    0 -0.10860001618E+03 -0.66725904548E+02  0.19143418166E+03  0.22998555555E+03  0.00000000000E+00 0. -1.
          3    1    6    6  503    0  0.36832180830E+03 -0.23546744415E+02  0.65445111014E+02  0.37483125029E+03  0.00000000000E+00 0. -1.
         -3    1    6    6    0  503  0.24244913454E+03  0.30669684151E+02  0.10014991429E+03  0.26410645145E+03  0.00000000000E+00 0.  1.
<mgrwt>
<rscale>  0 0.13426704E+04</rscale>
<asrwt>0</asrwt>
<pdfrwt beam="1">  1        2 0.16349535E+00 0.13426704E+04</pdfrwt>
<pdfrwt beam="2">  1       -3 0.65244921E-01 0.13426704E+04</pdfrwt>
<totfact> 0.32472898E+01</totfact>
</mgrwt>
</event>
<event>
12    6  0.1510140E-007  0.1118962E+04  0.7818608E-02  0.9186905E-01
         -1   -1    0    0    0  501 -0.00000000000E+00  0.00000000000E+00  0.73087837196E+03  0.73087837196E+03  0.00000000000E+00 0.  1.
          2   -1    0    0  501    0  0.00000000000E+00 -0.00000000000E+00 -0.42827803425E+03  0.42827803425E+03  0.00000000000E+00 0. -1.
         24    2    1    2    0    0  0.46116312633E+02 -0.10670732997E+03  0.20390180107E+03  0.24676279735E+03  0.76175882767E+02 0.  0.
        254    2    1    2    0    0 -0.46116312633E+02  0.10670732997E+03  0.98698536635E+02  0.91239360886E+03  0.89955962992E+03 0.  0.
         23    2    4    4    0    0 -0.28710133378E+03 -0.27315776352E+03 -0.88370180464E+02  0.41645373981E+03  0.92639564841E+02 0.  0.
         23    2    4    4    0    0  0.24098502115E+03  0.37986509350E+03  0.18706871710E+03  0.49593986905E+03  0.92684298114E+02 0.  0.
          2    1    3    3  502    0  0.13853254477E+01 -0.65824223729E+02  0.54260344272E+02  0.85316660252E+02  0.00000000000E+00 0. -1.
         -1    1    3    3    0  502  0.44730987185E+02 -0.40883106245E+02  0.14964145680E+03  0.16144613710E+03  0.00000000000E+00 0.  1.
         11    1    5    5    0    0 -0.26473224480E+03 -0.20615146542E+03 -0.82773728652E+02  0.34559091175E+03  0.00000000000E+00 0.  1.
        -11    1    5    5    0    0 -0.22369088986E+02 -0.67006298106E+02 -0.55964518121E+01  0.70862828061E+02  0.00000000000E+00 0. -1.
          3    1    6    6  503    0  0.15691160886E+02  0.35169573788E+02  0.47475272434E+02  0.61131112726E+02  0.00000000000E+00 0. -1.
         -3    1    6    6    0  503  0.22529386026E+03  0.34469551971E+03  0.13959344466E+03  0.43480875632E+03  0.00000000000E+00 0.  1.
<mgrwt>
<rscale>  0 0.11189623E+04</rscale>
<asrwt>0</asrwt>
<pdfrwt beam="1">  1        2 0.65888928E-01 0.11189623E+04</pdfrwt>
<pdfrwt beam="2">  1       -1 0.11244283E+00 0.11189623E+04</pdfrwt>
<totfact> 0.60525387E+01</totfact>
</mgrwt>
</event>
<event>
12    6  0.1510140E-007  0.1919576E+04  0.7818608E-02  0.8645173E-01
          2   -1    0    0  501    0  0.00000000000E+00  0.00000000000E+00  0.37549482159E+03  0.37549482159E+03  0.00000000000E+00 0. -1.
         -1   -1    0    0    0  501 -0.00000000000E+00 -0.00000000000E+00 -0.24532787106E+04  0.24532787106E+04  0.00000000000E+00 0.  1.
         24    2    1    2    0    0 -0.17268442817E+03 -0.46974510219E+03 -0.16776181283E+04  0.17524048880E+04  0.77717015928E+02 0.  0.
        254    2    1    2    0    0  0.17268442817E+03  0.46974510219E+03 -0.40016576079E+03  0.10763686442E+04  0.86484475447E+03 0.  0.
         23    2    4    4    0    0  0.38530072310E+03 -0.39721998951E+02 -0.32068802254E+03  0.51142133828E+03  0.93147694718E+02 0.  0.
         23    2    4    4    0    0 -0.21261629493E+03  0.50946710114E+03 -0.79477738257E+02  0.56494730592E+03  0.89924032219E+02 0.  0.
          4    1    3    3  502    0 -0.52318985011E+02 -0.14843251975E+03 -0.40996481922E+03  0.43913624549E+03  0.00000000000E+00 0. -1.
         -3    1    3    3    0  502 -0.12036544316E+03 -0.32131258244E+03 -0.12676533090E+04  0.13132686425E+04  0.00000000000E+00 0.  1.
         11    1    5    5    0    0  0.17021548682E+03 -0.23438491895E+02 -0.84218511111E+02  0.19135159385E+03  0.00000000000E+00 0. -1.
        -11    1    5    5    0    0  0.21508523628E+03 -0.16283507056E+02 -0.23646951143E+03  0.32006974444E+03  0.00000000000E+00 0.  1.
          3    1    6    6  503    0 -0.34575030592E+02  0.18865309649E+03 -0.40012255958E+02  0.19592448592E+03  0.00000000000E+00 0. -1.
         -3    1    6    6    0  503 -0.17804126433E+03  0.32081400465E+03 -0.39465482298E+02  0.36902282000E+03  0.00000000000E+00 0.  1.
<mgrwt>
<rscale>  0 0.19195765E+04</rscale>
<asrwt>0</asrwt>
<pdfrwt beam="1">  1        2 0.57768436E-01 0.19195765E+04</pdfrwt>
<pdfrwt beam="2">  1       -1 0.37742748E+00 0.19195765E+04</pdfrwt>
<totfact> 0.93175883E-01</totfact>
</mgrwt>
</event>
<event>
12    6  0.1510140E-007  0.2404487E+04  0.7818608E-02  0.8437826E-01
         -1   -1    0    0    0  501 -0.00000000000E+00  0.00000000000E+00  0.55280721465E+03  0.55280721465E+03  0.00000000000E+00 0.  1.
          2   -1    0    0  501    0  0.00000000000E+00 -0.00000000000E+00 -0.26146361746E+04  0.26146361746E+04  0.00000000000E+00 0. -1.
         24    2    1    2    0    0 -0.98471464770E+03 -0.18741645646E+03 -0.56265640059E+03  0.11530399401E+04  0.90172128594E+02 0.  0.
        254    2    1    2    0    0  0.98471464770E+03  0.18741645646E+03 -0.14991725594E+04  0.20144034492E+04  0.89750489005E+03 0.  0.
         23    2    4    4    0    0  0.60206750154E+02 -0.23066783800E+03 -0.79723590046E+02  0.26714478242E+03  0.90432182935E+02 0.  0.
         23    2    4    4    0    0  0.92450789755E+03  0.41808429446E+03 -0.14194489693E+04  0.17472586667E+04  0.92564259200E+02 0.  0.
          4    1    3    3  502    0 -0.44739952140E+03 -0.53860610349E+02 -0.29000211083E+03  0.53588107018E+03  0.00000000000E+00 0. -1.
         -3    1    3    3    0  502 -0.53731512630E+03 -0.13355584611E+03 -0.27265428976E+03  0.61715886991E+03  0.00000000000E+00 0.  1.
         11    1    5    5    0    0  0.64378784011E+02 -0.87056219159E+02 -0.14079096606E+02  0.10918623579E+03  0.00000000000E+00 0. -1.
        -11    1    5    5    0    0 -0.41720338569E+01 -0.14361161885E+03 -0.65644493440E+02  0.15795854663E+03  0.00000000000E+00 0.  1.
          2    1    6    6  503    0  0.13284812792E+03  0.92896236807E+02 -0.25392517270E+03  0.30125791149E+03  0.00000000000E+00 0. -1.
         -2    1    6    6    0  503  0.79165976962E+03  0.32518805766E+03 -0.11655237966E+04  0.14460007552E+04  0.00000000000E+00 0.  1.
<mgrwt>
<rscale>  0 0.24044873E+04</rscale>
<asrwt>0</asrwt>
<pdfrwt beam="1">  1        2 0.40225171E+00 0.24044873E+04</pdfrwt>
<pdfrwt beam="2">  1       -1 0.85047265E-01 0.24044873E+04</pdfrwt>
<totfact> 0.41713891E+00</totfact>
</mgrwt>
</event>
<event>
12    6  0.1510140E-007  0.2034996E+04  0.7818608E-02  0.8590431E-01
          2   -1    0    0  501    0  0.00000000000E+00  0.00000000000E+00  0.19158022713E+04  0.19158022713E+04  0.00000000000E+00 0. -1.
         -1   -1    0    0    0  501 -0.00000000000E+00 -0.00000000000E+00 -0.54040155445E+03  0.54040155445E+03  0.00000000000E+00 0.  1.
         24    2    1    2    0    0 -0.35405715855E+03 -0.26138545292E+03  0.13686237270E+04  0.14408753797E+04  0.96499363149E+02 0.  0.
        254    2    1    2    0    0  0.35405715855E+03  0.26138545292E+03  0.67769897940E+01  0.10153284460E+04  0.91496835969E+03 0.  0.
         23    2    4    4    0    0  0.24342979135E+03 -0.32212531262E+03  0.27013382766E+01  0.41397503618E+03  0.91352356307E+02 0.  0.
         23    2    4    4    0    0  0.11062736720E+03  0.58351076554E+03  0.40756515174E+01  0.60135340986E+03  0.94266031763E+02 0.  0.
          4    1    3    3  502    0 -0.31484405085E+03 -0.21565890953E+03  0.12616986094E+04  0.13181498103E+04  0.00000000000E+00 0. -1.
         -3    1    3    3    0  502 -0.39213107704E+02 -0.45726543391E+02  0.10692511769E+03  0.12272556938E+03  0.00000000000E+00 0.  1.
         11    1    5    5    0    0  0.24351185206E+03 -0.28822737432E+03  0.15750398938E+02  0.37765211038E+03  0.00000000000E+00 0. -1.
        -11    1    5    5    0    0 -0.82060711953E-01 -0.33897938298E+02 -0.13049060661E+02  0.36322925804E+02  0.00000000000E+00 0.  1.
          1    1    6    6  503    0  0.70089246913E+02  0.52484894221E+03  0.11727250222E+02  0.52963803023E+03  0.00000000000E+00 0. -1.
         -1    1    6    6    0  503  0.40538120286E+02  0.58661823331E+02 -0.76515987043E+01  0.71715379631E+02  0.00000000000E+00 0.  1.
<mgrwt>
<rscale>  0 0.20349963E+04</rscale>
<asrwt>0</asrwt>
<pdfrwt beam="1">  1        2 0.29473881E+00 0.20349963E+04</pdfrwt>
<pdfrwt beam="2">  1       -1 0.83138701E-01 0.20349963E+04</pdfrwt>
<totfact> 0.11273728E+01</totfact>
</mgrwt>
</event>
<event>
12    6  0.1510140E-007  0.2202469E+04  0.7818608E-02  0.8517401E-01
         -1   -1    0    0    0  501 -0.00000000000E+00  0.00000000000E+00  0.90939571958E+03  0.90939571958E+03  0.00000000000E+00 0.  1.
          2   -1    0    0  501    0  0.00000000000E+00 -0.00000000000E+00 -0.13335417890E+04  0.13335417890E+04  0.00000000000E+00 0. -1.
         24    2    1    2    0    0 -0.40266502406E+02 -0.80063026015E+03 -0.61121501144E+03  0.10111426257E+04  0.78710956313E+02 0.  0.
        254    2    1    2    0    0  0.40266502406E+02  0.80063026015E+03  0.18706894206E+03  0.12317948828E+04  0.91634799042E+03 0.  0.
         23    2    4    4    0    0  0.27363282602E+03  0.34002618498E+03 -0.28272805747E+03  0.52809412735E+03  0.91953917325E+02 0.  0.
         23    2    4    4    0    0 -0.23336632362E+03  0.46060407517E+03  0.46979699953E+03  0.70370075547E+03  0.88710638655E+02 0.  0.
          2    1    3    3  502    0  0.82039397617E+01 -0.14232590673E+03 -0.14250511031E+03  0.20157300121E+03  0.00000000000E+00 0. -1.
         -1    1    3    3    0  502 -0.48470442168E+02 -0.65830435343E+03 -0.46870990113E+03  0.80956962450E+03  0.00000000000E+00 0.  1.
         11    1    5    5    0    0  0.25997341838E+03  0.28812521434E+03 -0.27051233554E+03  0.47305310599E+03  0.00000000000E+00 0.  1.
        -11    1    5    5    0    0  0.13659407639E+02  0.51900970633E+02 -0.12215721924E+02  0.55041021356E+02  0.00000000000E+00 0. -1.
          1    1    6    6  503    0 -0.12041221490E+03  0.27869285264E+03  0.32768662610E+03  0.44670721119E+03  0.00000000000E+00 0. -1.
         -1    1    6    6    0  503 -0.11295410872E+03  0.18191122254E+03  0.14211037343E+03  0.25699354427E+03  0.00000000000E+00 0.  1.
<mgrwt>
<rscale>  0 0.22024688E+04</rscale>
<asrwt>0</asrwt>
<pdfrwt beam="1">  1        2 0.20516028E+00 0.22024688E+04</pdfrwt>
<pdfrwt beam="2">  1       -1 0.13990703E+00 0.22024688E+04</pdfrwt>
<totfact> 0.69119626E+00</totfact>
</mgrwt>
</event>
<event>
12    6  0.1510140E-007  0.3589716E+04  0.7818608E-02  0.8092851E-01
         -1   -1    0    0    0  501 -0.00000000000E+00  0.00000000000E+00  0.12752661037E+04  0.12752661037E+04  0.00000000000E+00 0.  1.
          2   -1    0    0  501    0  0.00000000000E+00 -0.00000000000E+00 -0.25261518806E+04  0.25261518806E+04  0.00000000000E+00 0. -1.
         24    2    1    2    0    0  0.78896329627E+03  0.30299283973E+03 -0.21226685223E+04  0.22861809295E+04  0.81448405582E+02 0.  0.
        254    2    1    2    0    0 -0.78896329627E+03 -0.30299283973E+03  0.87178274533E+03  0.15152370548E+04  0.90646038718E+03 0.  0.
         23    2    4    4    0    0 -0.88924176697E+02  0.29139854382E+03  0.23847110001E+03  0.39564501520E+03  0.82739905556E+02 0.  0.
         23    2    4    4    0    0 -0.70003911957E+03 -0.59439138355E+03  0.63331164531E+03  0.11195920396E+04  0.95114716822E+02 0.  0.
          2    1    3    3  502    0  0.73102447997E+03  0.28248869176E+03 -0.19025347703E+04  0.20576285388E+04  0.00000000000E+00 0. -1.
         -1    1    3    3    0  502  0.57938816297E+02  0.20504147966E+02 -0.22013375199E+03  0.22855239068E+03  0.00000000000E+00 0.  1.
         11    1    5    5    0    0 -0.68602432480E+02  0.28584636156E+03  0.22856321753E+03  0.37236484873E+03  0.00000000000E+00 0. -1.
        -11    1    5    5    0    0 -0.20321744217E+02  0.55521822623E+01  0.99078824793E+01  0.23280166475E+02  0.00000000000E+00 0.  1.
          3    1    6    6  503    0 -0.26451219972E+03 -0.19809091771E+03  0.17877037219E+03  0.37572005729E+03  0.00000000000E+00 0. -1.
         -3    1    6    6    0  503 -0.43552691985E+03 -0.39630046585E+03  0.45454127312E+03  0.74387198235E+03  0.00000000000E+00 0.  1.
<mgrwt>
<rscale>  0 0.35897163E+04</rscale>
<asrwt>0</asrwt>
<pdfrwt beam="1">  1        2 0.38863875E+00 0.35897163E+04</pdfrwt>
<pdfrwt beam="2">  1       -1 0.19619479E+00 0.35897163E+04</pdfrwt>
<totfact> 0.49825146E-01</totfact>
</mgrwt>
</event>
<event>
12    6  0.1510140E-007  0.1792837E+04  0.7818608E-02  0.8710118E-01
          2   -1    0    0  501    0  0.00000000000E+00  0.00000000000E+00  0.21505147035E+04  0.21505147035E+04  0.00000000000E+00 0. -1.
         -1   -1    0    0    0  501 -0.00000000000E+00 -0.00000000000E+00 -0.37366223457E+03  0.37366223457E+03  0.00000000000E+00 0.  1.
         24    2    1    2    0    0  0.26411526798E+03  0.30433820477E+03 -0.73150892709E+02  0.41760776814E+03  0.81649110462E+02 0.  0.
        254    2    1    2    0    0 -0.26411526798E+03 -0.30433820477E+03  0.18500033616E+04  0.21065691699E+04  0.92344063806E+03 0.  0.
         23    2    4    4    0    0 -0.28354962151E+03  0.20248001168E+03  0.13169895272E+04  0.13651015603E+04  0.87420318896E+02 0.  0.
         23    2    4    4    0    0  0.19434353532E+02 -0.50681821646E+03  0.53301383440E+03  0.74146760962E+03  0.91804519616E+02 0.  0.
          4    1    3    3  502    0  0.14013259985E+03  0.11217427533E+03 -0.73918293119E+01  0.17965203235E+03  0.00000000000E+00 0. -1.
         -3    1    3    3    0  502  0.12398266813E+03  0.19216392944E+03 -0.65759063397E+02  0.23795573578E+03  0.00000000000E+00 0.  1.
         11    1    5    5    0    0 -0.12639943880E+03  0.55268359009E+02  0.39831788191E+03  0.42153119064E+03  0.00000000000E+00 0.  1.
        -11    1    5    5    0    0 -0.15715018271E+03  0.14721165267E+03  0.91867164533E+03  0.94357036968E+03  0.00000000000E+00 0. -1.
          4    1    6    6  503    0 -0.24024099085E+02 -0.22559189887E+03  0.19109569325E+03  0.29662505988E+03  0.00000000000E+00 0. -1.
         -4    1    6    6    0  503  0.43458452617E+02 -0.28122631759E+03  0.34191814115E+03  0.44484254974E+03  0.00000000000E+00 0.  1.
<mgrwt>
<rscale>  0 0.17928370E+04</rscale>
<asrwt>0</asrwt>
<pdfrwt beam="1">  1        2 0.33084841E+00 0.17928370E+04</pdfrwt>
<pdfrwt beam="2">  1       -1 0.57486499E-01 0.17928370E+04</pdfrwt>
<totfact> 0.18152778E+01</totfact>
</mgrwt>
</event>
<event>
12    6  0.1510140E-007  0.1431188E+04  0.7818608E-02  0.8931547E-01
         -1   -1    0    0    0  501 -0.00000000000E+00  0.00000000000E+00  0.58462966530E+03  0.58462966530E+03  0.00000000000E+00 0.  1.
          2   -1    0    0  501    0  0.00000000000E+00 -0.00000000000E+00 -0.87589646647E+03  0.87589646647E+03  0.00000000000E+00 0. -1.
         24    2    1    2    0    0 -0.62986071088E+02  0.28276531154E+03  0.22484572393E+03  0.37518701472E+03  0.79285748288E+02 0.  0.
        254    2    1    2    0    0  0.62986071088E+02 -0.28276531154E+03 -0.51611252510E+03  0.10853391170E+04  0.90976117408E+03 0.  0.
         23    2    4    4    0    0  0.17968826660E+03  0.72776530048E+02 -0.64429137585E+03  0.67911665068E+03  0.92215789110E+02 0.  0.
         23    2    4    4    0    0 -0.11670219551E+03 -0.35554184159E+03  0.12817885075E+03  0.40622246637E+03  0.92506598932E+02 0.  0.
          2    1    3    3  502    0  0.57100819648E+01  0.10208020325E+02  0.32641927118E+02  0.34674257324E+02  0.00000000000E+00 0. -1.
         -1    1    3    3    0  502 -0.68696153053E+02  0.27255729122E+03  0.19220379681E+03  0.34051275740E+03  0.00000000000E+00 0.  1.
         11    1    5    5    0    0  0.98997543499E+02  0.85950252401E+01 -0.42971925209E+03  0.44105897984E+03  0.00000000000E+00 0.  1.
        -11    1    5    5    0    0  0.80690723098E+02  0.64181504807E+02 -0.21457212375E+03  0.23805767084E+03  0.00000000000E+00 0. -1.
          4    1    6    6  503    0 -0.11071405314E+03 -0.19202978203E+03  0.67459296742E+02  0.23169763802E+03  0.00000000000E+00 0. -1.
         -4    1    6    6    0  503 -0.59881423734E+01 -0.16351205956E+03  0.60719554004E+02  0.17452482835E+03  0.00000000000E+00 0.  1.
<mgrwt>
<rscale>  0 0.14311884E+04</rscale>
<asrwt>0</asrwt>
<pdfrwt beam="1">  1        2 0.13475330E+00 0.14311884E+04</pdfrwt>
<pdfrwt beam="2">  1       -1 0.89943026E-01 0.14311884E+04</pdfrwt>
<totfact> 0.40846154E+01</totfact>
</mgrwt>
</event>
<event>
12    6  0.1510140E-007  0.1329851E+04  0.7818608E-02  0.9006223E-01
          2   -1    0    0  501    0  0.00000000000E+00  0.00000000000E+00  0.73220996548E+03  0.73220996548E+03  0.00000000000E+00 0. -1.
         -1   -1    0    0    0  501 -0.00000000000E+00 -0.00000000000E+00 -0.60382357301E+03  0.60382357301E+03  0.00000000000E+00 0.  1.
         24    2    1    2    0    0 -0.10957055683E+03  0.11438830934E+03  0.36177192467E+03  0.40279376833E+03  0.79205442294E+02 0.  0.
        254    2    1    2    0    0  0.10957055683E+03 -0.11438830934E+03 -0.23338553220E+03  0.93323977015E+03  0.88959387909E+03 0.  0.
         23    2    4    4    0    0  0.37711816398E+03 -0.15862781495E+03 -0.41920950456E+03  0.59232472816E+03  0.87926569359E+02 0.  0.
         23    2    4    4    0    0 -0.26754760715E+03  0.44239505609E+02  0.18582397236E+03  0.34091504199E+03  0.90297625676E+02 0.  0.
          2    1    3    3  502    0 -0.11822482623E+03  0.11357935568E+03  0.35707909198E+03  0.39291584023E+03  0.00000000000E+00 0. -1.
         -1    1    3    3    0  502  0.86542694002E+01  0.80895365408E+00  0.46928326877E+01  0.98779280975E+01  0.00000000000E+00 0.  1.
         11    1    5    5    0    0  0.17579659118E+03 -0.29359206151E+02 -0.19917463070E+03  0.26727689382E+03  0.00000000000E+00 0. -1.
        -11    1    5    5    0    0  0.20132157280E+03 -0.12926860879E+03 -0.22003487386E+03  0.32504783434E+03  0.00000000000E+00 0.  1.
          3    1    6    6  503    0 -0.17206395642E+03 -0.14217752584E+02  0.97237027986E+02  0.19814941130E+03  0.00000000000E+00 0. -1.
         -3    1    6    6    0  503 -0.95483650729E+02  0.58457258193E+02  0.88586944377E+02  0.14276563069E+03  0.00000000000E+00 0.  1.
<mgrwt>
<rscale>  0 0.13298506E+04</rscale>
<asrwt>0</asrwt>
<pdfrwt beam="1">  1        2 0.11264769E+00 0.13298506E+04</pdfrwt>
<pdfrwt beam="2">  1       -1 0.92895934E-01 0.13298506E+04</pdfrwt>
<totfact> 0.48675686E+01</totfact>
</mgrwt>
</event>
<event>
12    6  0.1510140E-007  0.2916564E+04  0.7818608E-02  0.8267966E-01
         -1   -1    0    0    0  501 -0.00000000000E+00  0.00000000000E+00  0.57631837404E+03  0.57631837404E+03  0.00000000000E+00 0.  1.
          2   -1    0    0  501    0  0.00000000000E+00 -0.00000000000E+00 -0.36899511164E+04  0.36899511164E+04  0.00000000000E+00 0. -1.
         24    2    1    2    0    0 -0.49069189439E+03 -0.27417543611E+03 -0.31387046662E+04  0.31897523679E+04  0.84276223924E+02 0.  0.
        254    2    1    2    0    0  0.49069189439E+03  0.27417543611E+03  0.25071923806E+02  0.10765171226E+04  0.91777437796E+03 0.  0.
         23    2    4    4    0    0  0.56948789659E+02  0.52827839243E+03 -0.10539094809E+03  0.54931055493E+03  0.91178995741E+02 0.  0.
         23    2    4    4    0    0  0.43374310473E+03 -0.25410295632E+03  0.13046287189E+03  0.52720656764E+03  0.90690742130E+02 0.  0.
          2    1    3    3  502    0 -0.48895691501E+03 -0.27875477273E+03 -0.31226297719E+04  0.31729481213E+04  0.00000000000E+00 0. -1.
         -1    1    3    3    0  502 -0.17349793824E+01  0.45793366177E+01 -0.16074894259E+02  0.16804246569E+02  0.00000000000E+00 0.  1.
         11    1    5    5    0    0  0.49981399575E+02  0.51247145526E+03 -0.83829045284E+02  0.52168231865E+03  0.00000000000E+00 0. -1.
        -11    1    5    5    0    0  0.69673900839E+01  0.15806937167E+02 -0.21561902801E+02  0.27628236273E+02  0.00000000000E+00 0.  1.
          1    1    6    6  503    0  0.12121851884E+03 -0.11995142270E+03  0.37099927998E+02  0.17452414668E+03  0.00000000000E+00 0. -1.
         -1    1    6    6    0  503  0.31252458590E+03 -0.13415153361E+03  0.93362943893E+02  0.35268242096E+03  0.00000000000E+00 0.  1.
<mgrwt>
<rscale>  0 0.29165642E+04</rscale>
<asrwt>0</asrwt>
<pdfrwt beam="1">  1        2 0.56768480E+00 0.29165642E+04</pdfrwt>
<pdfrwt beam="2">  1       -1 0.88664363E-01 0.29165642E+04</pdfrwt>
<totfact> 0.72561474E-01</totfact>
</mgrwt>
</event>
<event>
12    6  0.1510140E-007  0.1311899E+04  0.7818608E-02  0.9020182E-01
          2   -1    0    0  501    0  0.00000000000E+00  0.00000000000E+00  0.11607566160E+04  0.11607566160E+04  0.00000000000E+00 0. -1.
         -1   -1    0    0    0  501 -0.00000000000E+00 -0.00000000000E+00 -0.37068023168E+03  0.37068023168E+03  0.00000000000E+00 0.  1.
         24    2    1    2    0    0 -0.17405197115E+03  0.25103193050E+03 -0.18478438198E+02  0.31593094630E+03  0.78484338315E+02 0.  0.
        254    2    1    2    0    0  0.17405197115E+03 -0.25103193050E+03  0.80855482256E+03  0.12155059014E+04  0.85462423116E+03 0.  0.
         23    2    4    4    0    0  0.43482404071E+03 -0.62234482166E+02  0.14633224120E+03  0.47335323878E+03  0.98514398436E+02 0.  0.
         23    2    4    4    0    0 -0.26077206956E+03 -0.18879744834E+03  0.66222258137E+03  0.74215266263E+03  0.92764641008E+02 0.  0.
          2    1    3    3  502    0 -0.51852387421E+02  0.32139818519E+02  0.15508325327E+02  0.62945581022E+02  0.00000000000E+00 0. -1.
         -1    1    3    3    0  502 -0.12219958373E+03  0.21889211198E+03 -0.33986763525E+02  0.25298536528E+03  0.00000000000E+00 0.  1.
         11    1    5    5    0    0  0.34412637124E+02  0.15626781812E+02 -0.53126876743E+01  0.38166091678E+02  0.00000000000E+00 0. -1.
        -11    1    5    5    0    0  0.40041140359E+03 -0.77861263978E+02  0.15164492887E+03  0.43518714710E+03  0.00000000000E+00 0.  1.
          1    1    6    6  503    0 -0.58902589434E+02 -0.96524879078E+02  0.22179971352E+03  0.24896120228E+03  0.00000000000E+00 0. -1.
         -1    1    6    6    0  503 -0.20186948012E+03 -0.92272569257E+02  0.44042286785E+03  0.49319146035E+03  0.00000000000E+00 0.  1.
<mgrwt>
<rscale>  0 0.13118987E+04</rscale>
<asrwt>0</asrwt>
<pdfrwt beam="1">  1        2 0.17857794E+00 0.13118987E+04</pdfrwt>
<pdfrwt beam="2">  1       -1 0.57027729E-01 0.13118987E+04</pdfrwt>
<totfact> 0.69525970E+01</totfact>
</mgrwt>
</event>
<event>
12    6  0.1510140E-007  0.2795700E+04  0.7818608E-02  0.8304604E-01
          2   -1    0    0  501    0  0.00000000000E+00  0.00000000000E+00  0.36099022613E+04  0.36099022613E+04  0.00000000000E+00 0. -1.
         -1   -1    0    0    0  501 -0.00000000000E+00 -0.00000000000E+00 -0.54128476232E+03  0.54128476232E+03  0.00000000000E+00 0.  1.
         24    2    1    2    0    0  0.89148649325E+03 -0.48188834988E+02  0.26757518011E+04  0.28218881001E+04  0.79589051739E+02 0.  0.
        254    2    1    2    0    0 -0.89148649325E+03  0.48188834988E+02  0.39286569796E+03  0.13292989236E+04  0.90311784397E+03 0.  0.
         23    2    4    4    0    0  0.87871367154E+02  0.10019637620E+03 -0.13618013088E+03  0.21117711842E+03  0.91049746447E+02 0.  0.
         23    2    4    4    0    0 -0.97935786041E+03 -0.52007541215E+02  0.52904582884E+03  0.11181218051E+04  0.91979775223E+02 0.  0.
          4    1    3    3  502    0  0.78022359740E+03 -0.18207748964E+02  0.22937294527E+04  0.24228650780E+04  0.00000000000E+00 0. -1.
         -3    1    3    3    0  502  0.11126289586E+03 -0.29981086024E+02  0.38202234838E+03  0.39902302211E+03  0.00000000000E+00 0.  1.
         11    1    5    5    0    0  0.55190370348E+02  0.41025327667E+02 -0.12499276531E+03  0.14266129772E+03  0.00000000000E+00 0. -1.
        -11    1    5    5    0    0  0.32680996806E+02  0.59171048535E+02 -0.11187365571E+02  0.68515820694E+02  0.00000000000E+00 0.  1.
          2    1    6    6  503    0 -0.76676799204E+03 -0.78541046182E+02  0.41087365881E+03  0.87345235306E+03  0.00000000000E+00 0. -1.
         -2    1    6    6    0  503 -0.21258986836E+03  0.26533504967E+02  0.11817217003E+03  0.24466945209E+03  0.00000000000E+00 0.  1.
<mgrwt>
<rscale>  0 0.27957003E+04</rscale>
<asrwt>0</asrwt>
<pdfrwt beam="1">  1        2 0.55536956E+00 0.27957003E+04</pdfrwt>
<pdfrwt beam="2">  1       -1 0.83274581E-01 0.27957003E+04</pdfrwt>
<totfact> 0.96162624E-01</totfact>
</mgrwt>
</event>
<event>
12    6  0.1510140E-007  0.1527161E+04  0.7818608E-02  0.8866589E-01
          2   -1    0    0  501    0  0.00000000000E+00  0.00000000000E+00  0.36349361299E+04  0.36349361299E+04  0.00000000000E+00 0. -1.
         -1   -1    0    0    0  501 -0.00000000000E+00 -0.00000000000E+00 -0.16040315798E+03  0.16040315798E+03  0.00000000000E+00 0.  1.
         24    2    1    2    0    0  0.15281451959E+02 -0.36359761241E+03  0.30613368535E+03  0.48227680076E+03  0.80226758088E+02 0.  0.
        254    2    1    2    0    0 -0.15281451959E+02  0.36359761241E+03  0.31683992865E+04  0.33130624871E+04  0.89732505700E+03 0.  0.
         23    2    4    4    0    0  0.54055345950E+02  0.55332707152E+03  0.11297990164E+04  0.12624578079E+04  0.90890432865E+02 0.  0.
         23    2    4    4    0    0 -0.69336797908E+02 -0.18972945910E+03  0.20386002701E+04  0.20506046792E+04  0.91014447755E+02 0.  0.
          2    1    3    3  502    0 -0.88451949271E+01 -0.60109528925E+02  0.91282439046E+02  0.10965343870E+03  0.00000000000E+00 0. -1.
         -1    1    3    3    0  502  0.24126646886E+02 -0.30348808349E+03  0.21485124631E+03  0.37262336205E+03  0.00000000000E+00 0.  1.
         11    1    5    5    0    0 -0.12531903743E+01  0.27783091053E+02  0.23438043451E+02  0.36370489622E+02  0.00000000000E+00 0.  1.
        -11    1    5    5    0    0  0.55308536324E+02  0.52554398047E+03  0.11063609729E+04  0.12260873183E+04  0.00000000000E+00 0. -1.
          2    1    6    6  503    0 -0.31039420094E+02 -0.17689828738E+03  0.15604675445E+04  0.15707690495E+04  0.00000000000E+00 0. -1.
         -2    1    6    6    0  503 -0.38297377814E+02 -0.12831171728E+02  0.47813272568E+03  0.47983562965E+03  0.00000000000E+00 0.  1.
<mgrwt>
<rscale>  0 0.15271611E+04</rscale>
<asrwt>0</asrwt>
<pdfrwt beam="1">  1        2 0.55922088E+00 0.15271611E+04</pdfrwt>
<pdfrwt beam="2">  1       -1 0.24677412E-01 0.15271611E+04</pdfrwt>
<totfact> 0.10406183E+01</totfact>
</mgrwt>
</event>
<event>
12    6  0.1510140E-007  0.2088792E+04  0.7818608E-02  0.8566197E-01
         -1   -1    0    0    0  501 -0.00000000000E+00  0.00000000000E+00  0.78745940432E+03  0.78745940432E+03  0.00000000000E+00 0.  1.
          2   -1    0    0  501    0  0.00000000000E+00 -0.00000000000E+00 -0.13851671061E+04  0.13851671061E+04  0.00000000000E+00 0. -1.
         24    2    1    2    0    0  0.31944455969E+03 -0.14496075049E+03  0.54400427679E+03  0.65251231143E+03  0.82299559604E+02 0.  0.
        254    2    1    2    0    0 -0.31944455969E+03  0.14496075049E+03 -0.11417119785E+04  0.15201141990E+04  0.94030978410E+03 0.  0.
         23    2    4    4    0    0  0.28207199094E+03 -0.21102399211E+01 -0.11663514614E+03  0.31903018651E+03  0.92776297643E+02 0.  0.
         23    2    4    4    0    0 -0.60151655062E+03  0.14707099041E+03 -0.10250768324E+04  0.12010840125E+04  0.91478171023E+02 0.  0.
          4    1    3    3  502    0  0.17649676321E+02 -0.17144153132E+02  0.11338348033E+02  0.27092271905E+02  0.00000000000E+00 0. -1.
         -3    1    3    3    0  502  0.30179488336E+03 -0.12781659736E+03  0.53266592876E+03  0.62542003953E+03  0.00000000000E+00 0.  1.
         11    1    5    5    0    0  0.14693193347E+03  0.41626186917E+02 -0.41075491438E+02  0.15814211491E+03  0.00000000000E+00 0. -1.
        -11    1    5    5    0    0  0.13514005747E+03 -0.43736426838E+02 -0.75559654701E+02  0.16088807160E+03  0.00000000000E+00 0.  1.
          2    1    6    6  503    0 -0.26830223589E+03  0.19417716717E+02 -0.45239103342E+03  0.52632764000E+03  0.00000000000E+00 0. -1.
         -2    1    6    6    0  503 -0.33321431473E+03  0.12765327370E+03 -0.57268579899E+03  0.67475637247E+03  0.00000000000E+00 0.  1.
<mgrwt>
<rscale>  0 0.20887919E+04</rscale>
<asrwt>0</asrwt>
<pdfrwt beam="1">  1        2 0.21310263E+00 0.20887919E+04</pdfrwt>
<pdfrwt beam="2">  1       -1 0.12114760E+00 0.20887919E+04</pdfrwt>
<totfact> 0.93815689E+00</totfact>
</mgrwt>
</event>
<event>
12    6  0.1510140E-007  0.1244512E+04  0.7818608E-02  0.9074764E-01
         -3   -1    0    0    0  501 -0.00000000000E+00  0.00000000000E+00  0.59024780363E+03  0.59024780363E+03  0.00000000000E+00 0.  1.
          4   -1    0    0  501    0  0.00000000000E+00 -0.00000000000E+00 -0.65599950543E+03  0.65599950543E+03  0.00000000000E+00 0. -1.
         24    2    1    2    0    0 -0.22963022990E+03  0.22951928969E+02 -0.16378961727E+03  0.29405147530E+03  0.79889910971E+02 0.  0.
        254    2    1    2    0    0  0.22963022990E+03 -0.22951928969E+02  0.98037915469E+02  0.95219583377E+03  0.91859057226E+03 0.  0.
         23    2    4    4    0    0  0.33761248150E+03  0.29878497777E+03  0.30002080766E+03  0.54922708006E+03  0.91560088654E+02 0.  0.
         23    2    4    4    0    0 -0.10798225161E+03 -0.32173690674E+03 -0.20198289219E+03  0.40296875371E+03  0.80074489737E+02 0.  0.
          2    1    3    3  502    0 -0.20639904279E+03  0.36732206959E+02 -0.16533954743E+03  0.26699622813E+03  0.00000000000E+00 0. -1.
         -3    1    3    3    0  502 -0.23231187111E+02 -0.13780277990E+02  0.15499301569E+01  0.27055247173E+02  0.00000000000E+00 0.  1.
         11    1    5    5    0    0  0.28940000713E+03  0.23917497620E+03  0.28436475208E+03  0.47097807337E+03  0.00000000000E+00 0.  1.
        -11    1    5    5    0    0  0.48212474371E+02  0.59610001565E+02  0.15656055581E+02  0.78249006690E+02  0.00000000000E+00 0. -1.
          2    1    6    6  503    0 -0.55833756122E+02 -0.25041873205E+03 -0.12328488820E+03  0.28465086219E+03  0.00000000000E+00 0. -1.
         -2    1    6    6    0  503 -0.52148495486E+02 -0.71318174688E+02 -0.78698003986E+02  0.11831789152E+03  0.00000000000E+00 0.  1.
<mgrwt>
<rscale>  0 0.12445116E+04</rscale>
<asrwt>0</asrwt>
<pdfrwt beam="1">  1        4 0.10092300E+00 0.12445116E+04</pdfrwt>
<pdfrwt beam="2">  1       -3 0.90807355E-01 0.12445116E+04</pdfrwt>
<totfact> 0.19840759E+00</totfact>
</mgrwt>
</event>
<event>
12    6  0.1510140E-007  0.1462369E+04  0.7818608E-02  0.8909870E-01
         -1   -1    0    0    0  501 -0.00000000000E+00  0.00000000000E+00  0.38371021731E+03  0.38371021731E+03  0.00000000000E+00 0.  1.
          2   -1    0    0  501    0  0.00000000000E+00 -0.00000000000E+00 -0.13933196115E+04  0.13933196115E+04  0.00000000000E+00 0. -1.
         24    2    1    2    0    0 -0.23523623058E+03  0.25688016757E+03  0.24011270877E+02  0.35767711663E+03  0.77671577587E+02 0.  0.
        254    2    1    2    0    0  0.23523623058E+03 -0.25688016757E+03 -0.10336206651E+04  0.14193527122E+04  0.90822185488E+03 0.  0.
         23    2    4    4    0    0  0.23379328954E+03  0.15744063068E+03  0.43836162324E+01  0.29707531475E+03  0.93742584363E+02 0.  0.
         23    2    4    4    0    0  0.14429410453E+01 -0.41432079825E+03 -0.10380042813E+04  0.11222773975E+04  0.10193067666E+03 0.  0.
          2    1    3    3  502    0 -0.10339824509E+02  0.42355653271E+02  0.16992601699E+02  0.46793822748E+02  0.00000000000E+00 0. -1.
         -1    1    3    3    0  502 -0.22489640607E+03  0.21452451429E+03  0.70186691782E+01  0.31088329388E+03  0.00000000000E+00 0.  1.
         11    1    5    5    0    0  0.14917271587E+03  0.82862376847E+02 -0.40991373318E+02  0.17549633997E+03  0.00000000000E+00 0. -1.
        -11    1    5    5    0    0  0.84620573669E+02  0.74578253835E+02  0.45374989550E+02  0.12157897479E+03  0.00000000000E+00 0.  1.
          4    1    6    6  503    0 -0.18812277170E+02 -0.39378544614E+03 -0.92215188434E+03  0.10028883174E+04  0.00000000000E+00 0. -1.
         -4    1    6    6    0  503  0.20255218215E+02 -0.20535352110E+02 -0.11585239700E+03  0.11938908008E+03  0.00000000000E+00 0.  1.
<mgrwt>
<rscale>  0 0.14623693E+04</rscale>
<asrwt>0</asrwt>
<pdfrwt beam="1">  1        2 0.21435686E+00 0.14623693E+04</pdfrwt>
<pdfrwt beam="2">  1       -1 0.59032342E-01 0.14623693E+04</pdfrwt>
<totfact> 0.46887381E+01</totfact>
</mgrwt>
</event>
<event>
12    6  0.1510140E-007  0.1776835E+04  0.7818608E-02  0.8718716E-01
          2   -1    0    0  501    0  0.00000000000E+00  0.00000000000E+00  0.82015009026E+03  0.82015009026E+03  0.00000000000E+00 0. -1.
         -1   -1    0    0    0  501 -0.00000000000E+00 -0.00000000000E+00 -0.96236717474E+03  0.96236717474E+03  0.00000000000E+00 0.  1.
         24    2    1    2    0    0 -0.45534530934E+03 -0.22602705030E+03 -0.47182675076E+03  0.69821746073E+03  0.80371397420E+02 0.  0.
        254    2    1    2    0    0  0.45534530934E+03  0.22602705030E+03  0.32960966628E+03  0.10842998043E+04  0.89924187804E+03 0.  0.
         23    2    4    4    0    0  0.34391219298E+03 -0.21034412688E+03 -0.13136450535E+03  0.43350326103E+03  0.90267357662E+02 0.  0.
         23    2    4    4    0    0  0.11143311636E+03  0.43637117719E+03  0.46097417163E+03  0.65079654324E+03  0.90563845303E+02 0.  0.
          4    1    3    3  502    0 -0.43437268731E+03 -0.19379881368E+03 -0.44480105161E+03  0.65121854026E+03  0.00000000000E+00 0. -1.
         -3    1    3    3    0  502 -0.20972622034E+02 -0.32228236620E+02 -0.27025699151E+02  0.46998920469E+02  0.00000000000E+00 0.  1.
         11    1    5    5    0    0  0.31194229555E+03 -0.21665955628E+03 -0.11380484831E+03  0.39648569026E+03  0.00000000000E+00 0. -1.
        -11    1    5    5    0    0  0.31969897433E+02  0.63154293958E+01 -0.17559657044E+02  0.37017570772E+02  0.00000000000E+00 0.  1.
          3    1    6    6  503    0  0.73283951533E+02  0.39410041818E+03  0.38448671802E+03  0.55544190830E+03  0.00000000000E+00 0. -1.
         -3    1    6    6    0  503  0.38149164823E+02  0.42270759007E+02  0.76487453616E+02  0.95354634939E+02  0.00000000000E+00 0.  1.
<mgrwt>
<rscale>  0 0.17768349E+04</rscale>
<asrwt>0</asrwt>
<pdfrwt beam="1">  1        2 0.12617694E+00 0.17768349E+04</pdfrwt>
<pdfrwt beam="2">  1       -1 0.14805649E+00 0.17768349E+04</pdfrwt>
<totfact> 0.12998872E+01</totfact>
</mgrwt>
</event>
<event>
12    6  0.1510140E-007  0.1526026E+04  0.7818608E-02  0.8867328E-01
         -1   -1    0    0    0  501 -0.00000000000E+00  0.00000000000E+00  0.29153367195E+03  0.29153367195E+03  0.00000000000E+00 0.  1.
          2   -1    0    0  501    0  0.00000000000E+00 -0.00000000000E+00 -0.19969857774E+04  0.19969857774E+04  0.00000000000E+00 0. -1.
         24    2    1    2    0    0  0.46479487509E+03 -0.13860213924E+03 -0.57409331002E+03  0.75559471552E+03  0.78073149058E+02 0.  0.
        254    2    1    2    0    0 -0.46479487509E+03  0.13860213924E+03 -0.11313587955E+04  0.15329247338E+04  0.91358671547E+03 0.  0.
         23    2    4    4    0    0  0.13744118664E+03  0.34774642844E+03 -0.49040477280E+03  0.62434180046E+03  0.97407311546E+02 0.  0.
         23    2    4    4    0    0 -0.60223606173E+03 -0.20914428920E+03 -0.64095402265E+03  0.90858293338E+03  0.90946577343E+02 0.  0.
          2    1    3    3  502    0  0.21680044795E+03 -0.10013938760E+03 -0.25053404244E+03  0.34611795331E+03  0.00000000000E+00 0. -1.
         -1    1    3    3    0  502  0.24799442714E+03 -0.38462751632E+02 -0.32355926758E+03  0.40947676222E+03  0.00000000000E+00 0.  1.
         11    1    5    5    0    0  0.72795854478E+00  0.66084370481E+02 -0.13759823139E+03  0.15264647794E+03  0.00000000000E+00 0. -1.
        -11    1    5    5    0    0  0.13671322809E+03  0.28166205796E+03 -0.35280654141E+03  0.47169532252E+03  0.00000000000E+00 0.  1.
          4    1    6    6  503    0 -0.42435262526E+03 -0.11944373236E+03 -0.39365699465E+03  0.59102266049E+03  0.00000000000E+00 0.  1.
         -4    1    6    6    0  503 -0.17788343647E+03 -0.89700556839E+02 -0.24729702800E+03  0.31756027290E+03  0.00000000000E+00 0. -1.
<mgrwt>
<rscale>  0 0.15260257E+04</rscale>
<asrwt>0</asrwt>
<pdfrwt beam="1">  1        2 0.30722857E+00 0.15260257E+04</pdfrwt>
<pdfrwt beam="2">  1       -1 0.44851336E-01 0.15260257E+04</pdfrwt>
<totfact> 0.36315672E+01</totfact>
</mgrwt>
</event>
<event>
12    6  0.1510140E-007  0.1771241E+04  0.7818608E-02  0.8721744E-01
         -1   -1    0    0    0  501 -0.00000000000E+00  0.00000000000E+00  0.74335640773E+03  0.74335640773E+03  0.00000000000E+00 0.  1.
          2   -1    0    0  501    0  0.00000000000E+00 -0.00000000000E+00 -0.10551114024E+04  0.10551114024E+04  0.00000000000E+00 0. -1.
         24    2    1    2    0    0 -0.55017193473E+03  0.38470600382E+02  0.24338797383E+03  0.60819405244E+03  0.80580113925E+02 0.  0.
        254    2    1    2    0    0  0.55017193473E+03 -0.38470600382E+02 -0.55514296846E+03  0.11902737577E+04  0.89688280051E+03 0.  0.
         23    2    4    4    0    0 -0.12011852726E+03  0.17366126765E+03  0.73011564079E+02  0.24326305630E+03  0.96226449570E+02 0.  0.
         23    2    4    4    0    0  0.67029046200E+03 -0.21213186803E+03 -0.62815453254E+03  0.94701070136E+03  0.89229585072E+02 0.  0.
          4    1    3    3  502    0 -0.69826342913E+02  0.91944905267E+00  0.33812792091E+01  0.69914208858E+02  0.00000000000E+00 0. -1.
         -3    1    3    3    0  502 -0.48034559182E+03  0.37551151329E+02  0.24000669462E+03  0.53827984358E+03  0.00000000000E+00 0.  1.
         11    1    5    5    0    0 -0.13680909448E+03  0.15814612718E+03  0.68405484927E+02  0.22001417282E+03  0.00000000000E+00 0.  1.
        -11    1    5    5    0    0  0.16690567216E+02  0.15515140467E+02  0.46060791525E+01  0.23248883475E+02  0.00000000000E+00 0. -1.
          4    1    6    6  503    0  0.24088154680E+03 -0.40920793480E+02 -0.18326382863E+03  0.30542439623E+03  0.00000000000E+00 0. -1.
         -4    1    6    6    0  503  0.42940891519E+03 -0.17121107455E+03 -0.44489070391E+03  0.64158630512E+03  0.00000000000E+00 0.  1.
<mgrwt>
<rscale>  0 0.17712412E+04</rscale>
<asrwt>0</asrwt>
<pdfrwt beam="1">  1        2 0.16232483E+00 0.17712412E+04</pdfrwt>
<pdfrwt beam="2">  1       -1 0.11436252E+00 0.17712412E+04</pdfrwt>
<totfact> 0.17448646E+01</totfact>
</mgrwt>
</event>
<event>
12    6  0.1510140E-007  0.2080929E+04  0.7818608E-02  0.8569691E-01
          2   -1    0    0  501    0  0.00000000000E+00  0.00000000000E+00  0.22889845138E+04  0.22889845138E+04  0.00000000000E+00 0. -1.
         -1   -1    0    0    0  501 -0.00000000000E+00 -0.00000000000E+00 -0.47294625054E+03  0.47294625054E+03  0.00000000000E+00 0.  1.
         24    2    1    2    0    0  0.47101311818E+03 -0.30754668122E+03  0.15699461787E+04  0.16695539072E+04  0.78999533204E+02 0.  0.
        254    2    1    2    0    0 -0.47101311818E+03  0.30754668122E+03  0.24609208459E+03  0.10923768572E+04  0.90348633938E+03 0.  0.
         23    2    4    4    0    0 -0.34307736598E+03  0.61065127548E+03  0.25452288657E+03  0.75081716643E+03  0.91364425948E+02 0.  0.
         23    2    4    4    0    0 -0.12793575220E+03 -0.30310459426E+03 -0.84308019847E+01  0.34155969078E+03  0.91389234561E+02 0.  0.
          2    1    3    3  502    0  0.36202658188E+03 -0.19705194291E+03  0.11035813734E+04  0.11780426825E+04  0.00000000000E+00 0. -1.
         -1    1    3    3    0  502  0.10898653630E+03 -0.11049473831E+03  0.46636480532E+03  0.49151122462E+03  0.00000000000E+00 0.  1.
         11    1    5    5    0    0 -0.53526796042E+02  0.10616347145E+03  0.80805461512E+02  0.14375438489E+03  0.00000000000E+00 0.  1.
        -11    1    5    5    0    0 -0.28955056994E+03  0.50448780402E+03  0.17371742506E+03  0.60706278154E+03  0.00000000000E+00 0. -1.
          2    1    6    6  503    0 -0.95510830951E+01 -0.81752312627E+02  0.30016804530E+02  0.87610914630E+02  0.00000000000E+00 0. -1.
         -2    1    6    6    0  503 -0.11838466910E+03 -0.22135228163E+03 -0.38447606514E+02  0.25394877615E+03  0.00000000000E+00 0.  1.
<mgrwt>
<rscale>  0 0.20809293E+04</rscale>
<asrwt>0</asrwt>
<pdfrwt beam="1">  1        2 0.35215146E+00 0.20809293E+04</pdfrwt>
<pdfrwt beam="2">  1       -1 0.72760963E-01 0.20809293E+04</pdfrwt>
<totfact> 0.92036571E+00</totfact>
</mgrwt>
</event>
<event>
12    6  0.1510140E-007  0.1318128E+04  0.7818608E-02  0.9015312E-01
          2   -1    0    0  501    0  0.00000000000E+00  0.00000000000E+00  0.54187372659E+03  0.54187372659E+03  0.00000000000E+00 0. -1.
         -1   -1    0    0    0  501 -0.00000000000E+00 -0.00000000000E+00 -0.80159912890E+03  0.80159912890E+03  0.00000000000E+00 0.  1.
         24    2    1    2    0    0  0.19106571695E+03 -0.26434047197E+03  0.40096696010E+02  0.33541243067E+03  0.67169638262E+02 0.  0.
        254    2    1    2    0    0 -0.19106571695E+03  0.26434047197E+03 -0.29982209832E+03  0.10080604248E+04  0.90548911432E+03 0.  0.
         23    2    4    4    0    0 -0.28676235234E+03  0.56157035652E+03 -0.21656062999E+03  0.67167030741E+03  0.81538845682E+02 0.  0.
         23    2    4    4    0    0  0.95696635396E+02 -0.29722988455E+03 -0.83261468326E+02  0.33639011742E+03  0.93393729404E+02 0.  0.
          4    1    3    3  502    0  0.17725081437E+03 -0.23573190013E+03  0.55488771420E+02  0.30011061908E+03  0.00000000000E+00 0. -1.
         -3    1    3    3    0  502  0.13814902578E+02 -0.28608571834E+02 -0.15392075409E+02  0.35301811583E+02  0.00000000000E+00 0.  1.
         11    1    5    5    0    0 -0.16922694865E+03  0.40021304969E+03 -0.17067189212E+03  0.46683738073E+03  0.00000000000E+00 0. -1.
        -11    1    5    5    0    0 -0.11753540369E+03  0.16135730683E+03 -0.45888737878E+02  0.20483292668E+03  0.00000000000E+00 0.  1.
          4    1    6    6  503    0  0.10379175864E+03 -0.22368756685E+03 -0.89042187062E+02  0.26217812228E+03  0.00000000000E+00 0. -1.
         -4    1    6    6    0  503 -0.80951232479E+01 -0.73542317698E+02  0.57807187356E+01  0.74211995135E+02  0.00000000000E+00 0.  1.
<mgrwt>
<rscale>  0 0.13181282E+04</rscale>
<asrwt>0</asrwt>
<pdfrwt beam="1">  1        2 0.83365190E-01 0.13181282E+04</pdfrwt>
<pdfrwt beam="2">  1       -1 0.12332294E+00 0.13181282E+04</pdfrwt>
<totfact> 0.36304126E+01</totfact>
</mgrwt>
</event>
<event>
12    6  0.1510140E-007  0.1857998E+04  0.7818608E-02  0.8676051E-01
         -1   -1    0    0    0  501 -0.00000000000E+00  0.00000000000E+00  0.26941122911E+03  0.26941122911E+03  0.00000000000E+00 0.  1.
          2   -1    0    0  501    0  0.00000000000E+00 -0.00000000000E+00 -0.32034274386E+04  0.32034274386E+04  0.00000000000E+00 0. -1.
         24    2    1    2    0    0 -0.30195213682E+03  0.47830923107E+03 -0.18869810824E+04  0.19715098477E+04  0.78731575502E+02 0.  0.
        254    2    1    2    0    0  0.30195213682E+03 -0.47830923107E+03 -0.10470351271E+04  0.15013288199E+04  0.91528730725E+03 0.  0.
         23    2    4    4    0    0  0.43092935560E+03 -0.66567487659E+03 -0.94084667466E+03  0.12336424083E+04  0.88645222929E+02 0.  0.
         23    2    4    4    0    0 -0.12897721878E+03  0.18736564552E+03 -0.10618845240E+03  0.26768641161E+03  0.92946325661E+02 0.  0.
          4    1    3    3  502    0 -0.33102713523E+02  0.90923151013E+02 -0.40092159884E+03  0.41243294903E+03  0.00000000000E+00 0. -1.
         -3    1    3    3    0  502 -0.26884942329E+03  0.38738608006E+03 -0.14860594836E+04  0.15590768987E+04  0.00000000000E+00 0.  1.
         11    1    5    5    0    0  0.98378024933E+02 -0.16526662241E+03 -0.17323492155E+03  0.25884673132E+03  0.00000000000E+00 0. -1.
        -11    1    5    5    0    0  0.33255133067E+03 -0.50040825419E+03 -0.76761175311E+03  0.97479567700E+03  0.00000000000E+00 0.  1.
          3    1    6    6  503    0  0.10698996172E+02  0.84491532919E+01 -0.21424612969E+02  0.25394305490E+02  0.00000000000E+00 0. -1.
         -3    1    6    6    0  503 -0.13967621495E+03  0.17891649223E+03 -0.84763839428E+02  0.24229210612E+03  0.00000000000E+00 0.  1.
<mgrwt>
<rscale>  0 0.18579982E+04</rscale>
<asrwt>0</asrwt>
<pdfrwt beam="1">  1        2 0.49283502E+00 0.18579982E+04</pdfrwt>
<pdfrwt beam="2">  1       -1 0.41447879E-01 0.18579982E+04</pdfrwt>
<totfact> 0.79117727E+00</totfact>
</mgrwt>
</event>
<event>
12    6  0.1510140E-007  0.1227999E+04  0.7818608E-02  0.9088696E-01
          2   -1    0    0  501    0  0.00000000000E+00  0.00000000000E+00  0.21657297028E+04  0.21657297028E+04  0.00000000000E+00 0. -1.
         -1   -1    0    0    0  501 -0.00000000000E+00 -0.00000000000E+00 -0.17407304502E+03  0.17407304502E+03  0.00000000000E+00 0.  1.
         24    2    1    2    0    0  0.85461212524E+02 -0.75470677179E+02  0.85309878369E+03  0.86434982676E+03  0.79521357635E+02 0.  0.
        254    2    1    2    0    0 -0.85461212524E+02  0.75470677179E+02  0.11385578740E+04  0.14754529210E+04  0.93147616588E+03 0.  0.
         23    2    4    4    0    0 -0.24952937798E+03 -0.67600348349E+02 -0.36168203454E+02  0.27713830751E+03  0.93074083276E+02 0.  0.
         23    2    4    4    0    0  0.16406816545E+03  0.14307102553E+03  0.11747260775E+04  0.11983146135E+04  0.92676180927E+02 0.  0.
          4    1    3    3  502    0  0.80496430612E+02 -0.62878728548E+02  0.46817348930E+03  0.47918662954E+03  0.00000000000E+00 0. -1.
         -3    1    3    3    0  502  0.49647819119E+01 -0.12591948631E+02  0.38492529439E+03  0.38516319722E+03  0.00000000000E+00 0.  1.
         11    1    5    5    0    0 -0.16642532578E+03 -0.25720376443E+01 -0.41295522250E+02  0.17149147091E+03  0.00000000000E+00 0. -1.
        -11    1    5    5    0    0 -0.83104052203E+02 -0.65028310704E+02  0.51273187960E+01  0.10564683660E+03  0.00000000000E+00 0.  1.
          4    1    6    6  503    0  0.10017851880E+02  0.61436692264E+02  0.31127118372E+03  0.31743436224E+03  0.00000000000E+00 0.  1.
         -4    1    6    6    0  503  0.15405031357E+03  0.81634333264E+02  0.86345489377E+03  0.88088025126E+03  0.00000000000E+00 0. -1.
<mgrwt>
<rscale>  0 0.12279986E+04</rscale>
<asrwt>0</asrwt>
<pdfrwt beam="1">  1        2 0.33318917E+00 0.12279986E+04</pdfrwt>
<pdfrwt beam="2">  1       -1 0.26780470E-01 0.12279986E+04</pdfrwt>
<totfact> 0.75519288E+01</totfact>
</mgrwt>
</event>
<event>
12    6  0.1510140E-007  0.2772128E+04  0.7818608E-02  0.8311974E-01
         -1   -1    0    0    0  501 -0.00000000000E+00  0.00000000000E+00  0.51707789963E+03  0.51707789963E+03  0.00000000000E+00 0.  1.
          2   -1    0    0  501    0  0.00000000000E+00 -0.00000000000E+00 -0.37154417757E+04  0.37154417757E+04  0.00000000000E+00 0. -1.
         24    2    1    2    0    0  0.98800879190E+01  0.22254869200E+03 -0.32939176313E+04  0.33023902077E+04  0.79133971967E+02 0.  0.
        254    2    1    2    0    0 -0.98800879190E+01 -0.22254869200E+03  0.95553755257E+02  0.93012946763E+03  0.89798929279E+03 0.  0.
         23    2    4    4    0    0  0.17533481315E+03 -0.51752557511E+03  0.12953180734E+03  0.56880519704E+03  0.90475662325E+02 0.  0.
         23    2    4    4    0    0 -0.18521490106E+03  0.29497688311E+03 -0.33978052082E+02  0.36132427059E+03  0.89915512281E+02 0.  0.
          4    1    3    3  502    0 -0.21237704968E+02  0.15375674159E+03 -0.18500364021E+04  0.18565362546E+04  0.00000000000E+00 0. -1.
         -3    1    3    3    0  502  0.31117792887E+02  0.68791950410E+02 -0.14438812292E+04  0.14458539531E+04  0.00000000000E+00 0.  1.
         11    1    5    5    0    0  0.15805635158E+03 -0.45348661382E+03  0.81971481946E+02  0.48718707192E+03  0.00000000000E+00 0. -1.
        -11    1    5    5    0    0  0.17278461562E+02 -0.64038961286E+02  0.47560325393E+02  0.81618125120E+02  0.00000000000E+00 0.  1.
          4    1    6    6  503    0 -0.11293761921E+03  0.16433787249E+03  0.24657861788E+02  0.20092250326E+03  0.00000000000E+00 0. -1.
         -4    1    6    6    0  503 -0.72277281851E+02  0.13063901062E+03 -0.58635913870E+02  0.16040176733E+03  0.00000000000E+00 0.  1.
<mgrwt>
<rscale>  0 0.27721276E+04</rscale>
<asrwt>0</asrwt>
<pdfrwt beam="1">  1        2 0.57160646E+00 0.27721276E+04</pdfrwt>
<pdfrwt beam="2">  1       -1 0.79550442E-01 0.27721276E+04</pdfrwt>
<totfact> 0.88996208E-01</totfact>
</mgrwt>
</event>
<event>
12    6  0.1510140E-007  0.2012522E+04  0.7818608E-02  0.8600789E-01
          2   -1    0    0  501    0  0.00000000000E+00  0.00000000000E+00  0.16451615160E+04  0.16451615160E+04  0.00000000000E+00 0. -1.
         -1   -1    0    0    0  501 -0.00000000000E+00 -0.00000000000E+00 -0.61547824406E+03  0.61547824406E+03  0.00000000000E+00 0.  1.
         24    2    1    2    0    0 -0.53670772649E+03  0.48957938656E+02 -0.22482151567E+03  0.58928990077E+03  0.79156868358E+02 0.  0.
        254    2    1    2    0    0  0.53670772649E+03 -0.48957938656E+02  0.12545047876E+04  0.16713498593E+04  0.96393777113E+03 0.  0.
         23    2    4    4    0    0  0.11885378240E+03  0.19404788315E+03  0.11403347959E+04  0.11663635870E+04  0.90883264991E+02 0.  0.
         23    2    4    4    0    0  0.41785394409E+03 -0.24300582180E+03  0.11416999171E+03  0.50498627227E+03  0.91228285912E+02 0.  0.
          4    1    3    3  502    0 -0.42348800376E+03  0.21919564023E+02 -0.14505360157E+03  0.44817753619E+03  0.00000000000E+00 0. -1.
         -3    1    3    3    0  502 -0.11321972273E+03  0.27038374633E+02 -0.79767914094E+02  0.14111236458E+03  0.00000000000E+00 0.  1.
         11    1    5    5    0    0 -0.13107004047E+02  0.39913381240E+02  0.18248987119E+03  0.18726298258E+03  0.00000000000E+00 0. -1.
        -11    1    5    5    0    0  0.13196078644E+03  0.15413450191E+03  0.95784492470E+03  0.97910060444E+03  0.00000000000E+00 0.  1.
          3    1    6    6  503    0  0.42759887670E+02 -0.35519194665E+02  0.43408014714E+02  0.70528553966E+02  0.00000000000E+00 0. -1.
         -3    1    6    6    0  503  0.37509405642E+03 -0.20748662714E+03  0.70761976991E+02  0.43445771830E+03  0.00000000000E+00 0.  1.
<mgrwt>
<rscale>  0 0.20125219E+04</rscale>
<asrwt>0</asrwt>
<pdfrwt beam="1">  1        2 0.25310177E+00 0.20125219E+04</pdfrwt>
<pdfrwt beam="2">  1       -1 0.94688961E-01 0.20125219E+04</pdfrwt>
<totfact> 0.11998634E+01</totfact>
</mgrwt>
</event>
<event>
12    6  0.1510140E-007  0.1074158E+04  0.7818608E-02  0.9230751E-01
          2   -1    0    0  501    0  0.00000000000E+00  0.00000000000E+00  0.78319376200E+03  0.78319376200E+03  0.00000000000E+00 0. -1.
         -1   -1    0    0    0  501 -0.00000000000E+00 -0.00000000000E+00 -0.36830490328E+03  0.36830490328E+03  0.00000000000E+00 0.  1.
         24    2    1    2    0    0  0.19637513350E+02  0.13672374629E+01  0.21760445533E+03  0.23184922674E+03  0.77555552307E+02 0.  0.
        254    2    1    2    0    0 -0.19637513350E+02 -0.13672374629E+01  0.19728440340E+03  0.91964943853E+03  0.89802363705E+03 0.  0.
         23    2    4    4    0    0 -0.12080913629E+03 -0.23105946106E+03 -0.26645931453E+03  0.38424053168E+03  0.93042452294E+02 0.  0.
         23    2    4    4    0    0  0.10117162294E+03  0.22969222360E+03  0.46374371793E+03  0.53540890685E+03  0.92791415245E+02 0.  0.
          4    1    3    3  502    0  0.17972486901E+02 -0.30012817595E+02  0.17742431662E+03  0.18084017152E+03  0.00000000000E+00 0. -1.
         -1    1    3    3    0  502  0.16650264492E+01  0.31380055058E+02  0.40180138703E+02  0.51009055223E+02  0.00000000000E+00 0.  1.
         11    1    5    5    0    0  0.56646294937E+00 -0.19235623013E+02  0.42489893954E+01  0.19707460107E+02  0.00000000000E+00 0.  1.
        -11    1    5    5    0    0 -0.12137559924E+03 -0.21182383805E+03 -0.27070830393E+03  0.36453307158E+03  0.00000000000E+00 0. -1.
          2    1    6    6  503    0  0.11914237640E+03  0.19632748853E+03  0.39466010164E+03  0.45661360518E+03  0.00000000000E+00 0. -1.
         -2    1    6    6    0  503 -0.17970753455E+02  0.33364735073E+02  0.69083616285E+02  0.78795301670E+02  0.00000000000E+00 0.  1.
<mgrwt>
<rscale>  0 0.10741585E+04</rscale>
<asrwt>0</asrwt>
<pdfrwt beam="1">  1        2 0.12049135E+00 0.10741585E+04</pdfrwt>
<pdfrwt beam="2">  1       -1 0.56662293E-01 0.10741585E+04</pdfrwt>
<totfact> 0.12678636E+02</totfact>
</mgrwt>
</event>
<event>
12    6  0.1510140E-007  0.2581406E+04  0.7818608E-02  0.8374545E-01
         -1   -1    0    0    0  501 -0.00000000000E+00  0.00000000000E+00  0.10353057488E+04  0.10353057488E+04  0.00000000000E+00 0.  1.
          2   -1    0    0  501    0  0.00000000000E+00 -0.00000000000E+00 -0.16091038486E+04  0.16091038486E+04  0.00000000000E+00 0. -1.
         24    2    1    2    0    0  0.48096952610E+03 -0.64064891170E+03 -0.10698734578E+04  0.13389720408E+04  0.80338018210E+02 0.  0.
        254    2    1    2    0    0 -0.48096952610E+03  0.64064891170E+03  0.49607535803E+03  0.13054375567E+04  0.90350082480E+03 0.  0.
         23    2    4    4    0    0 -0.38520580573E+03 -0.11766632261E+03  0.30176075492E+03  0.51145439548E+03  0.91088798450E+02 0.  0.
         23    2    4    4    0    0 -0.95763720364E+02  0.75831523431E+03  0.19431460311E+03  0.79398316119E+03  0.91860821544E+02 0.  0.
          2    1    3    3  502    0  0.38181129598E+03 -0.51203389004E+03 -0.90358409927E+03  0.11065363956E+04  0.00000000000E+00 0. -1.
         -3    1    3    3    0  502  0.99158230120E+02 -0.12861502166E+03 -0.16628935854E+03  0.23243564520E+03  0.00000000000E+00 0.  1.
         11    1    5    5    0    0 -0.19247533274E+03 -0.71355070371E+02  0.20780334879E+03  0.29209678456E+03  0.00000000000E+00 0.  1.
        -11    1    5    5    0    0 -0.19273047299E+03 -0.46311252242E+02  0.93957406126E+02  0.21935761092E+03  0.00000000000E+00 0. -1.
          4    1    6    6  503    0 -0.50218773761E+02  0.51178668158E+03  0.17219606487E+03  0.54230896862E+03  0.00000000000E+00 0. -1.
         -4    1    6    6    0  503 -0.45544946604E+02  0.24652855273E+03  0.22118538244E+02  0.25167419257E+03  0.00000000000E+00 0.  1.
<mgrwt>
<rscale>  0 0.25814062E+04</rscale>
<asrwt>0</asrwt>
<pdfrwt beam="1">  1        2 0.24755444E+00 0.25814062E+04</pdfrwt>
<pdfrwt beam="2">  1       -1 0.15927781E+00 0.25814062E+04</pdfrwt>
<totfact> 0.32906782E+00</totfact>
</mgrwt>
</event>
<event>
12    6  0.1510140E-007  0.1206481E+04  0.7818608E-02  0.9107203E-01
          2   -1    0    0  501    0  0.00000000000E+00  0.00000000000E+00  0.39583541723E+03  0.39583541723E+03  0.00000000000E+00 0. -1.
         -1   -1    0    0    0  501 -0.00000000000E+00 -0.00000000000E+00 -0.91931910083E+03  0.91931910083E+03  0.00000000000E+00 0.  1.
         24    2    1    2    0    0 -0.23216728896E+03 -0.21000210316E+02 -0.23664187006E+03  0.33943807493E+03  0.69829600812E+02 0.  0.
        254    2    1    2    0    0  0.23216728896E+03  0.21000210316E+02 -0.28684181354E+03  0.97571644312E+03  0.90299595375E+03 0.  0.
         23    2    4    4    0    0  0.46567704331E+03  0.28577347897E+03 -0.88351514217E+02  0.56063738858E+03  0.89368347065E+02 0.  0.
         23    2    4    4    0    0 -0.23350975435E+03 -0.26477326865E+03 -0.19849029932E+03  0.41507905455E+03  0.90887476753E+02 0.  0.
          4    1    3    3  502    0 -0.45107605799E+02  0.13746667325E+02 -0.80567212680E+02  0.93352786367E+02  0.00000000000E+00 0. -1.
         -3    1    3    3    0  502 -0.18705968317E+03 -0.34746877642E+02 -0.15607465738E+03  0.24608528857E+03  0.00000000000E+00 0.  1.
         11    1    5    5    0    0  0.30811472151E+03  0.14027439642E+03 -0.67012249745E+02  0.34511190869E+03  0.00000000000E+00 0. -1.
        -11    1    5    5    0    0  0.15756232180E+03  0.14549908254E+03 -0.21339264472E+02  0.21552547989E+03  0.00000000000E+00 0.  1.
          2    1    6    6  503    0 -0.19899801875E+03 -0.16457464517E+03 -0.14872711489E+03  0.29800130873E+03  0.00000000000E+00 0. -1.
         -2    1    6    6    0  503 -0.34511735593E+02 -0.10019862347E+03 -0.49763184431E+02  0.11707774581E+03  0.00000000000E+00 0.  1.
<mgrwt>
<rscale>  0 0.12064809E+04</rscale>
<asrwt>0</asrwt>
<pdfrwt beam="1">  1        2 0.60897757E-01 0.12064809E+04</pdfrwt>
<pdfrwt beam="2">  1       -1 0.14143371E+00 0.12064809E+04</pdfrwt>
<totfact> 0.37077202E+01</totfact>
</mgrwt>
</event>
<event>
12    6  0.1510140E-007  0.2425085E+04  0.7818608E-02  0.8430171E-01
          2   -1    0    0  501    0  0.00000000000E+00  0.00000000000E+00  0.16895884389E+04  0.16895884389E+04  0.00000000000E+00 0. -1.
         -1   -1    0    0    0  501 -0.00000000000E+00 -0.00000000000E+00 -0.87018806654E+03  0.87018806654E+03  0.00000000000E+00 0.  1.
         24    2    1    2    0    0  0.16924911612E+03 -0.15815353551E+03  0.14271739676E+04  0.14480041672E+04  0.78947643554E+02 0.  0.
        254    2    1    2    0    0 -0.16924911612E+03  0.15815353551E+03 -0.60777359526E+03  0.11117723382E+04  0.90166023799E+03 0.  0.
         23    2    4    4    0    0  0.23081160849E+03 -0.16454225309E+03 -0.49500016414E+03  0.57772651736E+03  0.91622129941E+02 0.  0.
         23    2    4    4    0    0 -0.40006072461E+03  0.32269578860E+03 -0.11277343112E+03  0.53404582084E+03  0.91136911440E+02 0.  0.
          2    1    3    3  502    0  0.17690195389E+03 -0.15099753000E+03  0.13922180293E+04  0.14115118124E+04  0.00000000000E+00 0. -1.
         -1    1    3    3    0  502 -0.76528377690E+01 -0.71560055081E+01  0.34955938283E+02  0.36492354843E+02  0.00000000000E+00 0.  1.
         11    1    5    5    0    0  0.20202909798E+03 -0.10488478727E+03 -0.41956448329E+03  0.47733733425E+03  0.00000000000E+00 0. -1.
        -11    1    5    5    0    0  0.28782510510E+02 -0.59657465827E+02 -0.75435680852E+02  0.10038918311E+03  0.00000000000E+00 0.  1.
          4    1    6    6  503    0 -0.33201912815E+03  0.25579739386E+03 -0.55580750258E+02  0.42279809361E+03  0.00000000000E+00 0. -1.
         -4    1    6    6    0  503 -0.68041596463E+02  0.66898394746E+02 -0.57192680862E+02  0.11124772723E+03  0.00000000000E+00 0.  1.
<mgrwt>
<rscale>  0 0.24250853E+04</rscale>
<asrwt>0</asrwt>
<pdfrwt beam="1">  1        2 0.25993668E+00 0.24250853E+04</pdfrwt>
<pdfrwt beam="2">  1       -1 0.13387509E+00 0.24250853E+04</pdfrwt>
<totfact> 0.47792754E+00</totfact>
</mgrwt>
</event>
<event>
12    6  0.1510140E-007  0.1582042E+04  0.7818608E-02  0.8831657E-01
         -1   -1    0    0    0  501 -0.00000000000E+00  0.00000000000E+00  0.66980337328E+03  0.66980337328E+03  0.00000000000E+00 0.  1.
          2   -1    0    0  501    0  0.00000000000E+00 -0.00000000000E+00 -0.93417600884E+03  0.93417600884E+03  0.00000000000E+00 0. -1.
         24    2    1    2    0    0  0.71386726927E+02  0.52168065934E+03 -0.18611259026E+02  0.53320808912E+03  0.81961650917E+02 0.  0.
        254    2    1    2    0    0 -0.71386726927E+02 -0.52168065934E+03 -0.24576137653E+03  0.10707712930E+04  0.89939186821E+03 0.  0.
         23    2    4    4    0    0 -0.39332004644E+03  0.51742310764E+01 -0.18335864973E+03  0.44375966230E+03  0.92600279989E+02 0.  0.
         23    2    4    4    0    0  0.32193331952E+03 -0.52685489042E+03 -0.62402726804E+02  0.62701163070E+03  0.89623361610E+02 0.  0.
          2    1    3    3  502    0  0.60819240569E+02  0.30051733355E+03 -0.46233585656E+02  0.31007610716E+03  0.00000000000E+00 0. -1.
         -1    1    3    3    0  502  0.10567486358E+02  0.22116332579E+03  0.27622326630E+02  0.22313198196E+03  0.00000000000E+00 0.  1.
         11    1    5    5    0    0 -0.63463726153E+02 -0.30093232943E+02 -0.50025349410E+02  0.86230985091E+02  0.00000000000E+00 0. -1.
        -11    1    5    5    0    0 -0.32985632029E+03  0.35267464020E+02 -0.13333330032E+03  0.35752867721E+03  0.00000000000E+00 0.  1.
          1    1    6    6  503    0  0.12903230095E+03 -0.25833466230E+03  0.84009975249E+01  0.28888874881E+03  0.00000000000E+00 0. -1.
         -1    1    6    6    0  503  0.19290101857E+03 -0.26852022812E+03 -0.70803724329E+02  0.33812288189E+03  0.00000000000E+00 0.  1.
<mgrwt>
<rscale>  0 0.15820420E+04</rscale>
<asrwt>0</asrwt>
<pdfrwt beam="1">  1        2 0.14371939E+00 0.15820420E+04</pdfrwt>
<pdfrwt beam="2">  1       -1 0.10304667E+00 0.15820420E+04</pdfrwt>
<totfact> 0.27112480E+01</totfact>
</mgrwt>
</event>
<event>
12    6  0.1510140E-007  0.1736516E+04  0.7818608E-02  0.8740808E-01
          2   -1    0    0  501    0  0.00000000000E+00  0.00000000000E+00  0.84604516167E+03  0.84604516167E+03  0.00000000000E+00 0. -1.
         -1   -1    0    0    0  501 -0.00000000000E+00 -0.00000000000E+00 -0.89105429539E+03  0.89105429539E+03  0.00000000000E+00 0.  1.
         24    2    1    2    0    0 -0.48669796679E+02  0.55724329453E+03  0.28810108383E+03  0.63421378437E+03  0.79599317646E+02 0.  0.
        254    2    1    2    0    0  0.48669796679E+02 -0.55724329453E+03 -0.33311021755E+03  0.11028856727E+04  0.89022780880E+03 0.  0.
         23    2    4    4    0    0 -0.16541015027E+03 -0.13435758053E+03 -0.53218883522E+03  0.58078028843E+03  0.93103758464E+02 0.  0.
         23    2    4    4    0    0  0.21407994694E+03 -0.42288571400E+03  0.19907861767E+03  0.52210538425E+03  0.91099865337E+02 0.  0.
          2    1    3    3  502    0 -0.62524646099E+02  0.27510717553E+03  0.13201573627E+03  0.31148265445E+03  0.00000000000E+00 0. -1.
         -1    1    3    3    0  502  0.13854849421E+02  0.28213611900E+03  0.15608534757E+03  0.32273112993E+03  0.00000000000E+00 0.  1.
         11    1    5    5    0    0 -0.11111144440E+01 -0.36970695779E+02 -0.50406208403E+02  0.62520818670E+02  0.00000000000E+00 0.  1.
        -11    1    5    5    0    0 -0.16429903582E+03 -0.97386884755E+02 -0.48178262682E+03  0.51825946976E+03  0.00000000000E+00 0. -1.
          1    1    6    6  503    0  0.15511834023E+03 -0.33513172486E+03  0.11425409874E+03  0.38656043714E+03  0.00000000000E+00 0. -1.
         -1    1    6    6    0  503  0.58961606719E+02 -0.87753989140E+02  0.84824518929E+02  0.13554494712E+03  0.00000000000E+00 0.  1.
<mgrwt>
<rscale>  0 0.17365163E+04</rscale>
<asrwt>0</asrwt>
<pdfrwt beam="1">  1        2 0.13016079E+00 0.17365163E+04</pdfrwt>
<pdfrwt beam="2">  1       -1 0.13708528E+00 0.17365163E+04</pdfrwt>
<totfact> 0.15319399E+01</totfact>
</mgrwt>
</event>
<event>
12    6  0.1510140E-007  0.3478522E+04  0.7818608E-02  0.8118899E-01
         -1   -1    0    0    0  501 -0.00000000000E+00  0.00000000000E+00  0.12765541068E+04  0.12765541068E+04  0.00000000000E+00 0.  1.
          2   -1    0    0  501    0  0.00000000000E+00 -0.00000000000E+00 -0.23696827227E+04  0.23696827227E+04  0.00000000000E+00 0. -1.
         24    2    1    2    0    0  0.67095180192E+02  0.15753117457E+04 -0.10907482260E+03  0.15825411809E+04  0.80189856316E+02 0.  0.
        254    2    1    2    0    0 -0.67095180192E+02 -0.15753117457E+04 -0.98405379332E+03  0.20636956487E+04  0.89686621245E+03 0.  0.
         23    2    4    4    0    0 -0.42296510110E+03 -0.10246515587E+04 -0.82023755979E+03  0.13820135027E+04  0.91440546887E+02 0.  0.
         23    2    4    4    0    0  0.35586992091E+03 -0.55066018694E+03 -0.16381623353E+03  0.68168214598E+03  0.89357415470E+02 0.  0.
          2    1    3    3  502    0  0.59851562991E+02  0.13952556570E+04 -0.70881521019E+02  0.13983364216E+04  0.00000000000E+00 0. -1.
         -1    1    3    3    0  502  0.72436172012E+01  0.18005608864E+03 -0.38193301580E+02  0.18420475925E+03  0.00000000000E+00 0.  1.
         11    1    5    5    0    0 -0.10762823360E+03 -0.35831773005E+03 -0.24914591090E+03  0.44949873999E+03  0.00000000000E+00 0.  1.
        -11    1    5    5    0    0 -0.31533686750E+03 -0.66633382867E+03 -0.57109164889E+03  0.93251476271E+03  0.00000000000E+00 0. -1.
          4    1    6    6  503    0  0.25207580064E+03 -0.36048519675E+03 -0.69280139621E+02  0.44529936457E+03  0.00000000000E+00 0. -1.
         -4    1    6    6    0  503  0.10379412027E+03 -0.19017499019E+03 -0.94536093912E+02  0.23638278141E+03  0.00000000000E+00 0.  1.
<mgrwt>
<rscale>  0 0.34785216E+04</rscale>
<asrwt>0</asrwt>
<pdfrwt beam="1">  1        2 0.36456657E+00 0.34785216E+04</pdfrwt>
<pdfrwt beam="2">  1       -1 0.19639294E+00 0.34785216E+04</pdfrwt>
<totfact> 0.61712994E-01</totfact>
</mgrwt>
</event>
<event>
12    6  0.1510140E-007  0.1414480E+04  0.7818608E-02  0.8943403E-01
         -1   -1    0    0    0  501 -0.00000000000E+00  0.00000000000E+00  0.25261570975E+03  0.25261570975E+03  0.00000000000E+00 0.  1.
          2   -1    0    0  501    0  0.00000000000E+00 -0.00000000000E+00 -0.19800376545E+04  0.19800376545E+04  0.00000000000E+00 0. -1.
         24    2    1    2    0    0  0.40741799685E+03 -0.99206199403E+02 -0.53940652562E+03  0.68823050319E+03  0.82888669204E+02 0.  0.
        254    2    1    2    0    0 -0.40741799685E+03  0.99206199403E+02 -0.11880154191E+04  0.15444228610E+04  0.89332527307E+03 0.  0.
         23    2    4    4    0    0  0.21115998770E+03  0.24810494539E+03 -0.35977110470E+03  0.49598778957E+03  0.10209816500E+03 0.  0.
         23    2    4    4    0    0 -0.61857798455E+03 -0.14889874599E+03 -0.82824431441E+03  0.10484350715E+04  0.91749088351E+02 0.  0.
          4    1    3    3  502    0  0.96654301810E+02 -0.61083390261E+02 -0.14573540436E+03  0.18523510118E+03  0.00000000000E+00 0. -1.
         -3    1    3    3    0  502  0.31076369504E+03 -0.38122809141E+02 -0.39367112126E+03  0.50299540201E+03  0.00000000000E+00 0.  1.
         11    1    5    5    0    0  0.54499714311E+02  0.16364625467E+02 -0.32761269905E+02  0.65660647517E+02  0.00000000000E+00 0. -1.
        -11    1    5    5    0    0  0.15666027339E+03  0.23174031992E+03 -0.32700983480E+03  0.43032714206E+03  0.00000000000E+00 0.  1.
          3    1    6    6  503    0 -0.13140670355E+02  0.18815314169E+01 -0.25543871189E+01  0.13518219979E+02  0.00000000000E+00 0. -1.
         -3    1    6    6    0  503 -0.60543731419E+03 -0.15078027740E+03 -0.82568992730E+03  0.10349168515E+04  0.00000000000E+00 0.  1.
<mgrwt>
<rscale>  0 0.14144803E+04</rscale>
<asrwt>0</asrwt>
<pdfrwt beam="1">  1        2 0.30462119E+00 0.14144803E+04</pdfrwt>
<pdfrwt beam="2">  1       -1 0.38863954E-01 0.14144803E+04</pdfrwt>
<totfact> 0.48765904E+01</totfact>
</mgrwt>
</event>
<event>
12    6  0.1510140E-007  0.2113188E+04  0.7818608E-02  0.8555456E-01
         -1   -1    0    0    0  501 -0.00000000000E+00  0.00000000000E+00  0.64677240208E+03  0.64677240208E+03  0.00000000000E+00 0.  1.
          2   -1    0    0  501    0  0.00000000000E+00 -0.00000000000E+00 -0.17260959410E+04  0.17260959410E+04  0.00000000000E+00 0. -1.
         24    2    1    2    0    0  0.72732769372E+03  0.11441253189E+02  0.80062679837E+02  0.73574007557E+03  0.75940435650E+02 0.  0.
        254    2    1    2    0    0 -0.72732769372E+03 -0.11441253189E+02 -0.11593862187E+04  0.16371282675E+04  0.89826281438E+03 0.  0.
         23    2    4    4    0    0  0.15611766382E+03  0.62978298722E+02 -0.47958735915E+03  0.51627649093E+03  0.90544955493E+02 0.  0.
         23    2    4    4    0    0 -0.88344535755E+03 -0.74419551912E+02 -0.67979885959E+03  0.11208517766E+04  0.90378349468E+02 0.  0.
          2    1    3    3  502    0  0.61092929873E+03 -0.15262862178E+02  0.53953849415E+02  0.61349700967E+03  0.00000000000E+00 0. -1.
         -1    1    3    3    0  502  0.11639839500E+03  0.26704115368E+02  0.26108830422E+02  0.12224306590E+03  0.00000000000E+00 0.  1.
         11    1    5    5    0    0  0.24090802963E+02  0.34688383737E+00 -0.13073977163E+02  0.27411968092E+02  0.00000000000E+00 0.  1.
        -11    1    5    5    0    0  0.13202686086E+03  0.62631414885E+02 -0.46651338198E+03  0.48886452284E+03  0.00000000000E+00 0. -1.
          1    1    6    6  503    0 -0.67936172821E+03 -0.38051006043E+02 -0.47794616934E+03  0.83151234363E+03  0.00000000000E+00 0. -1.
         -1    1    6    6    0  503 -0.20408362933E+03 -0.36368545868E+02 -0.20185269025E+03  0.28933943293E+03  0.00000000000E+00 0.  1.
<mgrwt>
<rscale>  0 0.21131883E+04</rscale>
<asrwt>0</asrwt>
<pdfrwt beam="1">  1        2 0.26555322E+00 0.21131883E+04</pdfrwt>
<pdfrwt beam="2">  1       -1 0.99503448E-01 0.21131883E+04</pdfrwt>
<totfact> 0.95849859E+00</totfact>
</mgrwt>
</event>
<event>
12    6  0.1510140E-007  0.2044967E+04  0.7818608E-02  0.8585881E-01
          2   -1    0    0  501    0  0.00000000000E+00  0.00000000000E+00  0.26674514435E+04  0.26674514435E+04  0.00000000000E+00 0. -1.
         -1   -1    0    0    0  501 -0.00000000000E+00 -0.00000000000E+00 -0.39193695238E+03  0.39193695238E+03  0.00000000000E+00 0.  1.
         24    2    1    2    0    0 -0.29084103504E+03  0.26868091721E+03 -0.15795110979E+03  0.43396980958E+03  0.81260689159E+02 0.  0.
        254    2    1    2    0    0  0.29084103504E+03 -0.26868091721E+03  0.24334656009E+04  0.26254185863E+04  0.90238017461E+03 0.  0.
         23    2    4    4    0    0  0.36881837948E+03  0.21517716521E+03  0.15488704935E+04  0.16094017417E+04  0.94052915639E+02 0.  0.
         23    2    4    4    0    0 -0.77977344445E+02 -0.48385808242E+03  0.88459510732E+03  0.10160168446E+04  0.97890828746E+02 0.  0.
          4    1    3    3  502    0 -0.20054690648E+03  0.21969227444E+03 -0.89912810286E+02  0.31075403553E+03  0.00000000000E+00 0. -1.
         -3    1    3    3    0  502 -0.90294128561E+02  0.48988642771E+02 -0.68038299509E+02  0.12321577404E+03  0.00000000000E+00 0.  1.
         11    1    5    5    0    0  0.76473776395E+02  0.37198134442E+02  0.19127478203E+03  0.20932745143E+03  0.00000000000E+00 0.  1.
        -11    1    5    5    0    0  0.29234460309E+03  0.17797903077E+03  0.13575957115E+04  0.14000742903E+04  0.00000000000E+00 0. -1.
          2    1    6    6  503    0 -0.40229657163E+02 -0.20858364490E+03  0.48324847989E+03  0.52787750051E+03  0.00000000000E+00 0.  1.
         -2    1    6    6    0  503 -0.37747687282E+02 -0.27527443753E+03  0.40134662743E+03  0.48813934404E+03  0.00000000000E+00 0. -1.
<mgrwt>
<rscale>  0 0.20449673E+04</rscale>
<asrwt>0</asrwt>
<pdfrwt beam="1">  1        2 0.41037713E+00 0.20449673E+04</pdfrwt>
<pdfrwt beam="2">  1       -1 0.60297994E-01 0.20449673E+04</pdfrwt>
<totfact> 0.81660179E+00</totfact>
</mgrwt>
</event>
<event>
12    6  0.1510140E-007  0.1583655E+04  0.7818608E-02  0.8830653E-01
          2   -1    0    0  501    0  0.00000000000E+00  0.00000000000E+00  0.72603991335E+03  0.72603991335E+03  0.00000000000E+00 0. -1.
         -1   -1    0    0    0  501 -0.00000000000E+00 -0.00000000000E+00 -0.86357578226E+03  0.86357578226E+03  0.00000000000E+00 0.  1.
         24    2    1    2    0    0 -0.66028307468E+02 -0.49312549638E+03 -0.23175661809E+03  0.55418499427E+03  0.76664106860E+02 0.  0.
        254    2    1    2    0    0  0.66028307468E+02  0.49312549638E+03  0.94220749181E+02  0.10354307013E+04  0.90316482168E+03 0.  0.
         23    2    4    4    0    0 -0.12371114289E+03  0.12311683143E+03 -0.36215322809E+03  0.41218718174E+03  0.91000610538E+02 0.  0.
         23    2    4    4    0    0  0.18973945036E+03  0.37000866495E+03  0.45637397727E+03  0.62324351959E+03  0.85134049722E+02 0.  0.
          2    1    3    3  502    0 -0.76243509266E+01 -0.41688417935E+02 -0.45990064176E+02  0.62539115119E+02  0.00000000000E+00 0. -1.
         -1    1    3    3    0  502 -0.58403956541E+02 -0.45143707845E+03 -0.18576655391E+03  0.49164587916E+03  0.00000000000E+00 0.  1.
         11    1    5    5    0    0 -0.83049160957E+02  0.92865577559E+02 -0.32855176718E+03  0.35137934252E+03  0.00000000000E+00 0. -1.
        -11    1    5    5    0    0 -0.40661981936E+02  0.30251253870E+02 -0.33601460910E+02  0.60807839223E+02  0.00000000000E+00 0.  1.
          1    1    6    6  503    0  0.59803331782E+02  0.99054890666E+02  0.75758359202E+02  0.13830270730E+03  0.00000000000E+00 0.  1.
         -1    1    6    6    0  503  0.12993611858E+03  0.27095377429E+03  0.38061561807E+03  0.48494081230E+03  0.00000000000E+00 0. -1.
<mgrwt>
<rscale>  0 0.15836546E+04</rscale>
<asrwt>0</asrwt>
<pdfrwt beam="1">  1        2 0.11169845E+00 0.15836546E+04</pdfrwt>
<pdfrwt beam="2">  1       -1 0.13285781E+00 0.15836546E+04</pdfrwt>
<totfact> 0.20580849E+01</totfact>
</mgrwt>
</event>
<event>
12    6  0.1510140E-007  0.4376073E+04  0.7818608E-02  0.7932699E-01
          2   -1    0    0  501    0  0.00000000000E+00  0.00000000000E+00  0.30653216922E+04  0.30653216922E+04  0.00000000000E+00 0. -1.
         -1   -1    0    0    0  501 -0.00000000000E+00 -0.00000000000E+00 -0.15618278571E+04  0.15618278571E+04  0.00000000000E+00 0.  1.
         24    2    1    2    0    0  0.11210390116E+03 -0.45066758500E+03 -0.14408546960E+04  0.15158982960E+04  0.78846888991E+02 0.  0.
        254    2    1    2    0    0 -0.11210390116E+03  0.45066758500E+03  0.29443485312E+04  0.31112512532E+04  0.89164316354E+03 0.  0.
         23    2    4    4    0    0 -0.21033886444E+03  0.18921408408E+03  0.21605144130E+03  0.36720780055E+03  0.90105138487E+02 0.  0.
         23    2    4    4    0    0  0.98234963287E+02  0.26145350091E+03  0.27282970899E+04  0.27440434527E+04  0.90340570369E+02 0.  0.
          4    1    3    3  502    0  0.17848604089E+02 -0.14924599902E+03 -0.36762192317E+03  0.39716346671E+03  0.00000000000E+00 0. -1.
         -3    1    3    3    0  502  0.94255297067E+02 -0.30142158598E+03 -0.10732327729E+04  0.11187348293E+04  0.00000000000E+00 0.  1.
         11    1    5    5    0    0 -0.67822714465E+02  0.12098382394E+03  0.10803426429E+03  0.17580787386E+03  0.00000000000E+00 0. -1.
        -11    1    5    5    0    0 -0.14251614998E+03  0.68230260150E+02  0.10801717701E+03  0.19139992668E+03  0.00000000000E+00 0.  1.
          1    1    6    6  503    0  0.54972295353E+02  0.53371872197E+02  0.53233954493E+03  0.53782515848E+03  0.00000000000E+00 0. -1.
         -1    1    6    6    0  503  0.43262667935E+02  0.20808162872E+03  0.21959575449E+04  0.22062182942E+04  0.00000000000E+00 0.  1.
<mgrwt>
<rscale>  0 0.43760735E+04</rscale>
<asrwt>0</asrwt>
<pdfrwt beam="1">  1        2 0.47158795E+00 0.43760735E+04</pdfrwt>
<pdfrwt beam="2">  1       -1 0.24028121E+00 0.43760735E+04</pdfrwt>
<totfact> 0.11104275E-01</totfact>
</mgrwt>
</event>
<event>
12    6  0.1510140E-007  0.1961167E+04  0.7818608E-02  0.8624995E-01
          2   -1    0    0  501    0  0.00000000000E+00  0.00000000000E+00  0.24625205684E+04  0.24625205684E+04  0.00000000000E+00 0. -1.
         -1   -1    0    0    0  501 -0.00000000000E+00 -0.00000000000E+00 -0.39047145116E+03  0.39047145116E+03  0.00000000000E+00 0.  1.
         24    2    1    2    0    0 -0.48423832748E+02  0.30280023644E+03 -0.20049695491E+03  0.37462194933E+03  0.78164731321E+02 0.  0.
        254    2    1    2    0    0  0.48423832748E+02 -0.30280023644E+03  0.22725460722E+04  0.24783700703E+04  0.94011685668E+03 0.  0.
         23    2    4    4    0    0  0.32339844734E+03 -0.52508055886E+03  0.13908698448E+04  0.15241294744E+04  0.90308252729E+02 0.  0.
         23    2    4    4    0    0 -0.27497461460E+03  0.22228032241E+03  0.88167622741E+03  0.95424059590E+03  0.90568010160E+02 0.  0.
          4    1    3    3  502    0  0.26266002570E+01 -0.82371772276E+00 -0.14836428958E+02  0.15089637637E+02  0.00000000000E+00 0. -1.
         -3    1    3    3    0  502 -0.51050433005E+02  0.30362395417E+03 -0.18566052596E+03  0.35953231169E+03  0.00000000000E+00 0.  1.
         11    1    5    5    0    0  0.22872683091E+03 -0.43215397338E+03  0.11374075126E+04  0.12380504310E+04  0.00000000000E+00 0. -1.
        -11    1    5    5    0    0  0.94671616436E+02 -0.92926585472E+02  0.25346233218E+03  0.28607904341E+03  0.00000000000E+00 0.  1.
          2    1    6    6  503    0 -0.26494526261E+03  0.22816617534E+03  0.87056240765E+03  0.93815494528E+03  0.00000000000E+00 0. -1.
         -2    1    6    6    0  503 -0.10029351983E+02 -0.58858529256E+01  0.11113819769E+02  0.16085650615E+02  0.00000000000E+00 0.  1.
<mgrwt>
<rscale>  0 0.19611670E+04</rscale>
<asrwt>0</asrwt>
<pdfrwt beam="1">  1        2 0.37884931E+00 0.19611670E+04</pdfrwt>
<pdfrwt beam="2">  1       -1 0.60072532E-01 0.19611670E+04</pdfrwt>
<totfact> 0.10915090E+01</totfact>
</mgrwt>
</event>
<event>
12    6  0.1510140E-007  0.1599840E+04  0.7818608E-02  0.8820647E-01
          2   -1    0    0  501    0  0.00000000000E+00  0.00000000000E+00  0.26403934130E+04  0.26403934130E+04  0.00000000000E+00 0. -1.
         -1   -1    0    0    0  501 -0.00000000000E+00 -0.00000000000E+00 -0.24233950250E+03  0.24233950250E+03  0.00000000000E+00 0.  1.
         24    2    1    2    0    0  0.49914091829E+03 -0.15982332278E+03  0.11000316669E+04  0.12209302359E+04  0.76914379649E+02 0.  0.
        254    2    1    2    0    0 -0.49914091829E+03  0.15982332278E+03  0.12980222435E+04  0.16618026796E+04  0.89556755768E+03 0.  0.
         23    2    4    4    0    0  0.18963641274E+03 -0.11425578390E+03  0.12981850939E+03  0.27527994714E+03  0.99548233152E+02 0.  0.
         23    2    4    4    0    0 -0.68877733103E+03  0.27407910668E+03  0.11682037342E+04  0.13865227325E+04  0.90618732613E+02 0.  0.
          2    1    3    3  502    0  0.13871283167E+03 -0.33430885112E+02  0.22867582531E+03  0.26953943465E+03  0.00000000000E+00 0. -1.
         -3    1    3    3    0  502  0.36042808662E+03 -0.12639243767E+03  0.87135584160E+03  0.95139080120E+03  0.00000000000E+00 0.  1.
         11    1    5    5    0    0  0.37340127567E+00  0.14055669177E+02  0.85273318965E+01  0.16444350209E+02  0.00000000000E+00 0.  1.
        -11    1    5    5    0    0  0.18926301146E+03 -0.12831145307E+03  0.12129117750E+03  0.25883559693E+03  0.00000000000E+00 0. -1.
          3    1    6    6  503    0 -0.50349748638E+03  0.23661368200E+03  0.83294467953E+03  0.10016449433E+04  0.00000000000E+00 0. -1.
         -3    1    6    6    0  503 -0.18527984465E+03  0.37465424679E+02  0.33525905463E+03  0.38487778916E+03  0.00000000000E+00 0.  1.
<mgrwt>
<rscale>  0 0.15998395E+04</rscale>
<asrwt>0</asrwt>
<pdfrwt beam="1">  1        2 0.40621435E+00 0.15998395E+04</pdfrwt>
<pdfrwt beam="2">  1       -1 0.37283002E-01 0.15998395E+04</pdfrwt>
<totfact> 0.21848498E+01</totfact>
</mgrwt>
</event>
<event>
12    6  0.1510140E-007  0.3506748E+04  0.7818608E-02  0.8112193E-01
         -1   -1    0    0    0  501 -0.00000000000E+00  0.00000000000E+00  0.21766091439E+04  0.21766091439E+04  0.00000000000E+00 0.  1.
          2   -1    0    0  501    0  0.00000000000E+00 -0.00000000000E+00 -0.14124356487E+04  0.14124356487E+04  0.00000000000E+00 0. -1.
         24    2    1    2    0    0  0.16110139989E+04  0.15155754852E+03  0.61149776174E+03  0.17318280125E+04  0.83444336084E+02 0.  0.
        254    2    1    2    0    0 -0.16110139989E+04 -0.15155754852E+03  0.15267573343E+03  0.18572167802E+04  0.89867040338E+03 0.  0.
         23    2    4    4    0    0 -0.45582051919E+03 -0.41085934219E+03  0.24487614741E+03  0.66626305238E+03  0.85815981093E+02 0.  0.
         23    2    4    4    0    0 -0.11551934797E+04  0.25930179368E+03 -0.92200413980E+02  0.11909537278E+04  0.90335318175E+02 0.  0.
          4    1    3    3  502    0  0.24177753868E+03  0.41583910897E+02  0.68076760922E+02  0.25459781074E+03  0.00000000000E+00 0. -1.
         -3    1    3    3    0  502  0.13692364602E+04  0.10997363762E+03  0.54342100082E+03  0.14772302018E+04  0.00000000000E+00 0.  1.
         11    1    5    5    0    0 -0.16458760623E+03 -0.99076312069E+02  0.92579736711E+02  0.21325150266E+03  0.00000000000E+00 0.  1.
        -11    1    5    5    0    0 -0.29123291296E+03 -0.31178303013E+03  0.15229641070E+03  0.45301154972E+03  0.00000000000E+00 0. -1.
          3    1    6    6  503    0 -0.66033060191E+03  0.15257702908E+03 -0.81136085037E+01  0.67777731171E+03  0.00000000000E+00 0. -1.
         -3    1    6    6    0  503 -0.49486287776E+03  0.10672476460E+03 -0.84086805476E+02  0.51317641608E+03  0.00000000000E+00 0.  1.
<mgrwt>
<rscale>  0 0.35067480E+04</rscale>
<asrwt>0</asrwt>
<pdfrwt beam="1">  1        2 0.21729779E+00 0.35067480E+04</pdfrwt>
<pdfrwt beam="2">  1       -1 0.33486295E+00 0.35067480E+04</pdfrwt>
<totfact> 0.26030647E-01</totfact>
</mgrwt>
</event>
<event>
12    6  0.1510140E-007  0.1249743E+04  0.7818608E-02  0.9070397E-01
         -1   -1    0    0    0  501 -0.00000000000E+00  0.00000000000E+00  0.30959529408E+03  0.30959529408E+03  0.00000000000E+00 0.  1.
          2   -1    0    0  501    0  0.00000000000E+00 -0.00000000000E+00 -0.12612090234E+04  0.12612090234E+04  0.00000000000E+00 0. -1.
         24    2    1    2    0    0 -0.10012045595E+03  0.25118960421E+03 -0.37411467429E+03  0.46860458707E+03  0.80673084331E+02 0.  0.
        254    2    1    2    0    0  0.10012045595E+03 -0.25118960421E+03 -0.57749905501E+03  0.11021997304E+04  0.89900987992E+03 0.  0.
         23    2    4    4    0    0 -0.12476214843E+03  0.53107204175E+02 -0.67968891918E+03  0.69924497789E+03  0.92631222759E+02 0.  0.
         23    2    4    4    0    0  0.22488260438E+03 -0.30429680838E+03  0.10218986417E+03  0.40295475251E+03  0.93600378676E+02 0.  0.
          2    1    3    3  502    0 -0.62457388288E+02  0.71744698801E+02 -0.16529874076E+03  0.19071418630E+03  0.00000000000E+00 0. -1.
         -1    1    3    3    0  502 -0.37663067666E+02  0.17944490541E+03 -0.20881593353E+03  0.27789040077E+03  0.00000000000E+00 0.  1.
         11    1    5    5    0    0 -0.16315866835E+02 -0.14676420622E+01 -0.30370220482E+03  0.30414370074E+03  0.00000000000E+00 0.  1.
        -11    1    5    5    0    0 -0.10844628159E+03  0.54574846237E+02 -0.37598671436E+03  0.39510127715E+03  0.00000000000E+00 0. -1.
          4    1    6    6  503    0  0.22334210508E+03 -0.25967182389E+03  0.10492814681E+03  0.35821930157E+03  0.00000000000E+00 0. -1.
         -4    1    6    6    0  503  0.15404992990E+01 -0.44624984498E+02 -0.27382826390E+01  0.44735450946E+02  0.00000000000E+00 0.  1.
<mgrwt>
<rscale>  0 0.12497430E+04</rscale>
<asrwt>0</asrwt>
<pdfrwt beam="1">  1        2 0.19403216E+00 0.12497430E+04</pdfrwt>
<pdfrwt beam="2">  1       -1 0.47630045E-01 0.12497430E+04</pdfrwt>
<totfact> 0.85932187E+01</totfact>
</mgrwt>
</event>
<event>
12    6  0.1510140E-007  0.1839016E+04  0.7818608E-02  0.8685822E-01
          2   -1    0    0  501    0  0.00000000000E+00  0.00000000000E+00  0.12675617640E+04  0.12675617640E+04  0.00000000000E+00 0. -1.
         -1   -1    0    0    0  501 -0.00000000000E+00 -0.00000000000E+00 -0.66702445503E+03  0.66702445503E+03  0.00000000000E+00 0.  1.
         24    2    1    2    0    0 -0.18639208985E+03 -0.27799347996E+02  0.91170282039E+03  0.93437019030E+03  0.79566355363E+02 0.  0.
        254    2    1    2    0    0  0.18639208985E+03  0.27799347996E+02 -0.31116551143E+03  0.10002160287E+04  0.93171525355E+03 0.  0.
         23    2    4    4    0    0  0.68545134616E+02  0.46474141916E+03 -0.84532468352E+02  0.48596074905E+03  0.91263844179E+02 0.  0.
         23    2    4    4    0    0  0.11784695523E+03 -0.43694207116E+03 -0.22663304308E+03  0.51425527967E+03  0.91047669063E+02 0.  0.
          2    1    3    3  502    0 -0.11513680544E+03 -0.27527749461E+02  0.38274419107E+03  0.40063371895E+03  0.00000000000E+00 0. -1.
         -1    1    3    3    0  502 -0.71255284406E+02 -0.27159853557E+00  0.52895862932E+03  0.53373647135E+03  0.00000000000E+00 0.  1.
         11    1    5    5    0    0  0.20692047775E+02  0.38267496905E+03 -0.74788024190E+02  0.39046323942E+03  0.00000000000E+00 0. -1.
        -11    1    5    5    0    0  0.47853086841E+02  0.82066450106E+02 -0.97444441610E+01  0.95497509628E+02  0.00000000000E+00 0.  1.
          2    1    6    6  503    0  0.12145848942E+03 -0.43655919811E+03 -0.21403793848E+03  0.50114702155E+03  0.00000000000E+00 0. -1.
         -2    1    6    6    0  503 -0.36115341825E+01 -0.38287305528E+00 -0.12595104600E+02  0.13108258115E+02  0.00000000000E+00 0.  1.
<mgrwt>
<rscale>  0 0.18390157E+04</rscale>
<asrwt>0</asrwt>
<pdfrwt beam="1">  1        2 0.19500950E+00 0.18390157E+04</pdfrwt>
<pdfrwt beam="2">  1       -1 0.10261915E+00 0.18390157E+04</pdfrwt>
<totfact> 0.16641497E+01</totfact>
</mgrwt>
</event>
<event>
12    6  0.1510140E-007  0.2880525E+04  0.7818608E-02  0.8278695E-01
          2   -1    0    0  501    0  0.00000000000E+00  0.00000000000E+00  0.19784466347E+04  0.19784466347E+04  0.00000000000E+00 0. -1.
         -1   -1    0    0    0  501 -0.00000000000E+00 -0.00000000000E+00 -0.10484772238E+04  0.10484772238E+04  0.00000000000E+00 0.  1.
         24    2    1    2    0    0  0.11528411693E+04 -0.59273654086E+03  0.35815957366E+03  0.13472294388E+04  0.79809222429E+02 0.  0.
        254    2    1    2    0    0 -0.11528411693E+04  0.59273654086E+03  0.57180983729E+03  0.16796944197E+04  0.90223471720E+03 0.  0.
         23    2    4    4    0    0 -0.91899796447E+03 -0.99681209770E+01  0.38704922124E+03  0.10012075550E+04  0.89178733453E+02 0.  0.
         23    2    4    4    0    0 -0.23384320488E+03  0.60270466183E+03  0.18476061605E+03  0.67848686464E+03  0.90952660139E+02 0.  0.
          2    1    3    3  502    0  0.61295952392E+03 -0.34672088705E+03  0.16515646305E+03  0.72333353909E+03  0.00000000000E+00 0. -1.
         -1    1    3    3    0  502  0.53988164542E+03 -0.24601565381E+03  0.19300311061E+03  0.62389589972E+03  0.00000000000E+00 0.  1.
         11    1    5    5    0    0 -0.76665721637E+03 -0.52868360252E+01  0.35761567907E+03  0.84597884841E+03  0.00000000000E+00 0.  1.
        -11    1    5    5    0    0 -0.15234074810E+03 -0.46812849519E+01  0.29433542166E+02  0.15522870664E+03  0.00000000000E+00 0. -1.
          4    1    6    6  503    0 -0.11121536863E+03  0.40151021973E+03  0.13191228535E+03  0.43701277532E+03  0.00000000000E+00 0.  1.
         -4    1    6    6    0  503 -0.12262783625E+03  0.20119444210E+03  0.52848330698E+02  0.24147408932E+03  0.00000000000E+00 0. -1.
<mgrwt>
<rscale>  0 0.28805251E+04</rscale>
<asrwt>0</asrwt>
<pdfrwt beam="1">  1        2 0.30437641E+00 0.28805251E+04</pdfrwt>
<pdfrwt beam="2">  1       -1 0.16130419E+00 0.28805251E+04</pdfrwt>
<totfact> 0.19295435E+00</totfact>
</mgrwt>
</event>
<event>
12    6  0.1510140E-007  0.1666597E+04  0.7818608E-02  0.8780648E-01
         -1   -1    0    0    0  501 -0.00000000000E+00  0.00000000000E+00  0.33683536930E+03  0.33683536930E+03  0.00000000000E+00 0.  1.
          2   -1    0    0  501    0  0.00000000000E+00 -0.00000000000E+00 -0.20615006264E+04  0.20615006264E+04  0.00000000000E+00 0. -1.
         24    2    1    2    0    0  0.24436999909E+03  0.51653008245E+03 -0.77453790647E+03  0.96581582280E+03  0.79819875266E+02 0.  0.
        254    2    1    2    0    0 -0.24436999909E+03 -0.51653008245E+03 -0.95012735059E+03  0.14325201729E+04  0.90711192296E+03 0.  0.
         23    2    4    4    0    0 -0.56966731517E+03 -0.43837902112E+03 -0.65089924059E+03  0.97402027484E+03  0.91370992522E+02 0.  0.
         23    2    4    4    0    0  0.32529731608E+03 -0.78151061325E+02 -0.29922811000E+03  0.45849989802E+03  0.93588260126E+02 0.  0.
          4    1    3    3  502    0  0.24450172208E+03  0.51212260186E+03 -0.77582182001E+03  0.96122325598E+03  0.00000000000E+00 0. -1.
         -3    1    3    3    0  502 -0.13172298931E+00  0.44074805876E+01  0.12839135350E+01  0.45925668249E+01  0.00000000000E+00 0.  1.
         11    1    5    5    0    0 -0.12558865307E+03 -0.80603453807E+02 -0.18461411166E+03  0.23738533394E+03  0.00000000000E+00 0. -1.
        -11    1    5    5    0    0 -0.44407866209E+03 -0.35777556732E+03 -0.46628512892E+03  0.73663494090E+03  0.00000000000E+00 0.  1.
          2    1    6    6  503    0  0.28331729912E+02  0.15809813681E+02 -0.49918401153E+02  0.59535568378E+02  0.00000000000E+00 0. -1.
         -2    1    6    6    0  503  0.29696558617E+03 -0.93960875006E+02 -0.24930970885E+03  0.39896432964E+03  0.00000000000E+00 0.  1.
<mgrwt>
<rscale>  0 0.16665969E+04</rscale>
<asrwt>0</asrwt>
<pdfrwt beam="1">  1        2 0.31715394E+00 0.16665969E+04</pdfrwt>
<pdfrwt beam="2">  1       -1 0.51820827E-01 0.16665969E+04</pdfrwt>
<totfact> 0.25153271E+01</totfact>
</mgrwt>
</event>
<event>
12    6  0.1809629E-007  0.2067690E+04  0.7818608E-02  0.8575611E-01
          2   -1    0    0  501    0  0.00000000000E+00  0.00000000000E+00  0.19521091072E+04  0.19521091072E+04  0.00000000000E+00 0. -1.
         -1   -1    0    0    0  501 -0.00000000000E+00 -0.00000000000E+00 -0.54752855708E+03  0.54752855708E+03  0.00000000000E+00 0.  1.
         24    2    1    2    0    0  0.61228980911E+03 -0.20266878553E+03  0.12454014987E+04  0.14044375220E+04  0.73799819407E+02 0.  0.
        254    2    1    2    0    0 -0.61228980911E+03  0.20266878553E+03  0.15917905148E+03  0.10952001423E+04  0.87071920522E+03 0.  0.
         23    2    4    4    0    0 -0.29431670870E+03  0.44890008861E+03 -0.16667216461E+03  0.56942801469E+03  0.91296434127E+02 0.  0.
         23    2    4    4    0    0 -0.31797310040E+03 -0.24623130308E+03  0.32585121609E+03  0.52577212762E+03  0.92306922624E+02 0.  0.
          4    1    3    3  502    0  0.59007819022E+03 -0.20755688913E+03  0.11863065920E+04  0.13411172443E+04  0.00000000000E+00 0. -1.
         -3    1    3    3    0  502  0.22211618887E+02  0.48881036074E+01  0.59094906668E+02  0.63320277673E+02  0.00000000000E+00 0.  1.
         11    1    5    5    0    0 -0.22382569740E+03  0.37682997337E+03 -0.10312734786E+03  0.45025994883E+03  0.00000000000E+00 0. -1.
        -11    1    5    5    0    0 -0.70491011303E+02  0.72070115239E+02 -0.63544816742E+02  0.11916806586E+03  0.00000000000E+00 0.  1.
          2    1    6    6  503    0 -0.27033469836E+03 -0.24408329464E+03  0.27777861561E+03  0.45805945373E+03  0.00000000000E+00 0. -1.
         -2    1    6    6    0  503 -0.47638402039E+02 -0.21480084404E+01  0.48072600481E+02  0.67712673895E+02  0.00000000000E+00 0.  1.
<mgrwt>
<rscale>  0 0.20676900E+04</rscale>
<asrwt>0</asrwt>
<pdfrwt beam="1">  1        2 0.30032447E+00 0.20676900E+04</pdfrwt>
<pdfrwt beam="2">  1       -1 0.84235164E-01 0.20676900E+04</pdfrwt>
<totfact> 0.10432971E+01</totfact>
</mgrwt>
</event>
<event>
12    6  0.1510140E-007  0.1877702E+04  0.7818608E-02  0.8666036E-01
         -1   -1    0    0    0  501 -0.00000000000E+00  0.00000000000E+00  0.78751992462E+03  0.78751992462E+03  0.00000000000E+00 0.  1.
          2   -1    0    0  501    0  0.00000000000E+00 -0.00000000000E+00 -0.11192618553E+04  0.11192618553E+04  0.00000000000E+00 0. -1.
         24    2    1    2    0    0  0.29391586341E+03  0.36527426174E+02  0.52321037487E+03  0.60658100842E+03  0.80440262179E+02 0.  0.
        254    2    1    2    0    0 -0.29391586341E+03 -0.36527426174E+02 -0.85495230552E+03  0.13002007715E+04  0.93373326694E+03 0.  0.
         23    2    4    4    0    0 -0.78623511956E+02  0.28401151485E+03 -0.84843132535E+03  0.90286074517E+03  0.92073960099E+02 0.  0.
         23    2    4    4    0    0 -0.21529235145E+03 -0.32053894103E+03 -0.65209801663E+01  0.39734002630E+03  0.93490983553E+02 0.  0.
          4    1    3    3  502    0  0.12193698361E+03  0.53206609014E+02  0.20262981446E+03  0.24240134678E+03  0.00000000000E+00 0. -1.
         -3    1    3    3    0  502  0.17197887979E+03 -0.16679182840E+02  0.32058056042E+03  0.36417966164E+03  0.00000000000E+00 0.  1.
         11    1    5    5    0    0 -0.95753186038E+01  0.12361255858E+01 -0.55575591035E+01  0.11140071634E+02  0.00000000000E+00 0.  1.
        -11    1    5    5    0    0 -0.69048193352E+02  0.28277538927E+03 -0.84287376625E+03  0.89172067354E+03  0.00000000000E+00 0. -1.
          1    1    6    6  503    0 -0.10283306334E+03 -0.19452122232E+03 -0.43865381653E+02  0.22435979265E+03  0.00000000000E+00 0. -1.
         -1    1    6    6    0  503 -0.11245928811E+03 -0.12601771871E+03  0.37344401486E+02  0.17298023365E+03  0.00000000000E+00 0.  1.
<mgrwt>
<rscale>  0 0.18777018E+04</rscale>
<asrwt>0</asrwt>
<pdfrwt beam="1">  1        2 0.17219413E+00 0.18777018E+04</pdfrwt>
<pdfrwt beam="2">  1       -1 0.12115691E+00 0.18777018E+04</pdfrwt>
<totfact> 0.13717002E+01</totfact>
</mgrwt>
</event>
<event>
12    6  0.1510140E-007  0.1468613E+04  0.7818608E-02  0.8905597E-01
          2   -1    0    0  501    0  0.00000000000E+00  0.00000000000E+00  0.16885408288E+04  0.16885408288E+04  0.00000000000E+00 0. -1.
         -1   -1    0    0    0  501 -0.00000000000E+00 -0.00000000000E+00 -0.31933253520E+03  0.31933253520E+03  0.00000000000E+00 0.  1.
         24    2    1    2    0    0  0.11366074042E+03  0.23208717457E+03  0.10759044766E+04  0.11094917135E+04  0.81352314113E+02 0.  0.
        254    2    1    2    0    0 -0.11366074042E+03 -0.23208717457E+03  0.29330381700E+03  0.89838165051E+03  0.80887529348E+03 0.  0.
         23    2    4    4    0    0  0.27891966158E+03  0.10177248583E+03  0.18998412350E+03  0.36471954757E+03  0.93661970470E+02 0.  0.
         23    2    4    4    0    0 -0.39258040200E+03 -0.33385966040E+03  0.10331969350E+03  0.53366210294E+03  0.92404741050E+02 0.  0.
          4    1    3    3  502    0  0.11804847835E+03  0.16704085815E+03  0.76890407855E+03  0.79564538178E+03  0.00000000000E+00 0. -1.
         -3    1    3    3    0  502 -0.43877379294E+01  0.65046316424E+02  0.30700039804E+03  0.31384633170E+03  0.00000000000E+00 0.  1.
         11    1    5    5    0    0  0.93141770081E+02  0.62662086620E+01  0.10138505973E+03  0.13781721605E+03  0.00000000000E+00 0.  1.
        -11    1    5    5    0    0  0.18577789150E+03  0.95506277166E+02  0.88599063774E+02  0.22690233152E+03  0.00000000000E+00 0. -1.
          4    1    6    6  503    0 -0.37306083472E+03 -0.32973548851E+03  0.11436057570E+03  0.51086027450E+03  0.00000000000E+00 0. -1.
         -4    1    6    6    0  503 -0.19519567280E+02 -0.41241718923E+01 -0.11040882196E+02  0.22801828441E+02  0.00000000000E+00 0.  1.
<mgrwt>
<rscale>  0 0.14686130E+04</rscale>
<asrwt>0</asrwt>
<pdfrwt beam="1">  1        2 0.25977551E+00 0.14686130E+04</pdfrwt>
<pdfrwt beam="2">  1       -1 0.49128084E-01 0.14686130E+04</pdfrwt>
<totfact> 0.45572544E+01</totfact>
</mgrwt>
</event>
<event>
12    6  0.1510140E-007  0.1850211E+04  0.7818608E-02  0.8680044E-01
          2   -1    0    0  501    0  0.00000000000E+00  0.00000000000E+00  0.27628507021E+04  0.27628507021E+04  0.00000000000E+00 0. -1.
         -1   -1    0    0    0  501 -0.00000000000E+00 -0.00000000000E+00 -0.30975997544E+03  0.30975997544E+03  0.00000000000E+00 0.  1.
         24    2    1    2    0    0 -0.35101486352E+03  0.59315299156E+03  0.10718222122E+04  0.12763586370E+04  0.72433485129E+02 0.  0.
        254    2    1    2    0    0  0.35101486352E+03 -0.59315299156E+03  0.13812685144E+04  0.17962520405E+04  0.91846435880E+03 0.  0.
         23    2    4    4    0    0  0.34515094631E+03  0.10759352614E+03  0.20862312868E+03  0.42725948205E+03  0.91222324997E+02 0.  0.
         23    2    4    4    0    0  0.58639172070E+01 -0.70074651770E+03  0.11726453857E+04  0.13689925585E+04  0.89237642818E+02 0.  0.
          2    1    3    3  502    0 -0.86596034496E+01  0.27214952223E+02  0.24343320318E+02  0.37526518630E+02  0.00000000000E+00 0. -1.
         -1    1    3    3    0  502 -0.34235526007E+03  0.56593803934E+03  0.10474788919E+04  0.12388321183E+04  0.00000000000E+00 0.  1.
         11    1    5    5    0    0  0.59005910695E+02 -0.82826144830E+01  0.10680535998E+02  0.60534065193E+02  0.00000000000E+00 0. -1.
        -11    1    5    5    0    0  0.28614503561E+03  0.11587614062E+03  0.19794259269E+03  0.36672541686E+03  0.00000000000E+00 0.  1.
          1    1    6    6  503    0  0.21102012138E+02 -0.64331741238E+02  0.84096633947E+02  0.10796347386E+03  0.00000000000E+00 0. -1.
         -1    1    6    6    0  503 -0.15238094931E+02 -0.63641477646E+03  0.10885487518E+04  0.12610290846E+04  0.00000000000E+00 0.  1.
<mgrwt>
<rscale>  0 0.18502114E+04</rscale>
<asrwt>0</asrwt>
<pdfrwt beam="1">  1        2 0.42505394E+00 0.18502114E+04</pdfrwt>
<pdfrwt beam="2">  1       -1 0.47655383E-01 0.18502114E+04</pdfrwt>
<totfact> 0.11485224E+01</totfact>
</mgrwt>
</event>
<event>
12    6  0.1510140E-007  0.2154130E+04  0.7818608E-02  0.8537766E-01
         -1   -1    0    0    0  501 -0.00000000000E+00  0.00000000000E+00  0.77781387708E+03  0.77781387708E+03  0.00000000000E+00 0.  1.
          2   -1    0    0  501    0  0.00000000000E+00 -0.00000000000E+00 -0.14914485827E+04  0.14914485827E+04  0.00000000000E+00 0. -1.
         24    2    1    2    0    0 -0.54765424375E+03 -0.10555058233E+03  0.44106704384E+03  0.71543623632E+03  0.79011233067E+02 0.  0.
        254    2    1    2    0    0  0.54765424375E+03  0.10555058233E+03 -0.11547017495E+04  0.15538262235E+04  0.87748145644E+03 0.  0.
         23    2    4    4    0    0  0.47051103212E+03 -0.99549949556E+02 -0.12138855845E+04  0.13089914020E+04  0.93002442944E+02 0.  0.
         23    2    4    4    0    0  0.77143211629E+02  0.20510053188E+03  0.59183835064E+02  0.24483482146E+03  0.91782679119E+02 0.  0.
          4    1    3    3  502    0 -0.82040992862E+02 -0.44135500741E+02  0.62101747635E+02  0.11196112716E+03  0.00000000000E+00 0. -1.
         -3    1    3    3    0  502 -0.46561325089E+03 -0.61415081586E+02  0.37896529620E+03  0.60347510916E+03  0.00000000000E+00 0.  1.
         11    1    5    5    0    0  0.13327379110E+03 -0.61919505098E+02 -0.44265199878E+03  0.46640831953E+03  0.00000000000E+00 0. -1.
        -11    1    5    5    0    0  0.33723724102E+03 -0.37630444458E+02 -0.77123358577E+03  0.84258308249E+03  0.00000000000E+00 0.  1.
          3    1    6    6  503    0  0.48454192954E+02  0.27563193934E+02  0.78709123009E+00  0.55750856381E+02  0.00000000000E+00 0. -1.
         -3    1    6    6    0  503  0.28689018675E+02  0.17753733795E+03  0.58396743834E+02  0.18908396508E+03  0.00000000000E+00 0.  1.
<mgrwt>
<rscale>  0 0.21541304E+04</rscale>
<asrwt>0</asrwt>
<pdfrwt beam="1">  1        2 0.22945363E+00 0.21541304E+04</pdfrwt>
<pdfrwt beam="2">  1       -1 0.11966367E+00 0.21541304E+04</pdfrwt>
<totfact> 0.83639471E+00</totfact>
</mgrwt>
</event>
<event>
12    6  0.1510140E-007  0.2895980E+04  0.7818608E-02  0.8274075E-01
         -1   -1    0    0    0  501 -0.00000000000E+00  0.00000000000E+00  0.21144077391E+04  0.21144077391E+04  0.00000000000E+00 0.  1.
          2   -1    0    0  501    0  0.00000000000E+00 -0.00000000000E+00 -0.99161324165E+03  0.99161324165E+03  0.00000000000E+00 0. -1.
         24    2    1    2    0    0 -0.49487759312E+03 -0.61102856662E+02 -0.79987484415E+03  0.94517471201E+03  0.70129014329E+02 0.  0.
        254    2    1    2    0    0  0.49487759312E+03  0.61102856662E+02  0.19226693416E+04  0.21608462687E+04  0.85085945297E+03 0.  0.
         23    2    4    4    0    0  0.35948806402E+03  0.41896964861E+03  0.84473192697E+03  0.10131852394E+04  0.90581820955E+02 0.  0.
         23    2    4    4    0    0  0.13538952910E+03 -0.35786679194E+03  0.10779374146E+04  0.11476610293E+04  0.93689930135E+02 0.  0.
          4    1    3    3  502    0 -0.35523449864E+03 -0.51185260958E+02 -0.62987431261E+03  0.72495043255E+03  0.00000000000E+00 0. -1.
         -1    1    3    3    0  502 -0.13964309448E+03 -0.99175957040E+01 -0.17000053154E+03  0.22022427946E+03  0.00000000000E+00 0.  1.
         11    1    5    5    0    0  0.21772187835E+03  0.19452512863E+03  0.39946301587E+03  0.49478636100E+03  0.00000000000E+00 0.  1.
        -11    1    5    5    0    0  0.14176618567E+03  0.22444451998E+03  0.44526891109E+03  0.51839887840E+03  0.00000000000E+00 0. -1.
          2    1    6    6  503    0  0.57833526533E+02 -0.50273134967E+02  0.21870571786E+03  0.23174187346E+03  0.00000000000E+00 0. -1.
         -2    1    6    6    0  503  0.77556002572E+02 -0.30759365698E+03  0.85923169675E+03  0.91591915585E+03  0.00000000000E+00 0.  1.
<mgrwt>
<rscale>  0 0.28959798E+04</rscale>
<asrwt>0</asrwt>
<pdfrwt beam="1">  1        2 0.15255588E+00 0.28959798E+04</pdfrwt>
<pdfrwt beam="2">  1       -1 0.32529350E+00 0.28959798E+04</pdfrwt>
<totfact> 0.56710741E-01</totfact>
</mgrwt>
</event>
<event>
12    6  0.1510140E-007  0.1869815E+04  0.7818608E-02  0.8670029E-01
         -1   -1    0    0    0  501 -0.00000000000E+00  0.00000000000E+00  0.69206280943E+03  0.69206280943E+03  0.00000000000E+00 0.  1.
          2   -1    0    0  501    0  0.00000000000E+00 -0.00000000000E+00 -0.12629657960E+04  0.12629657960E+04  0.00000000000E+00 0. -1.
         24    2    1    2    0    0 -0.33051217274E+03  0.15966110870E+03 -0.85923452984E+03  0.93744276317E+03  0.76059128256E+02 0.  0.
        254    2    1    2    0    0  0.33051217274E+03 -0.15966110870E+03  0.28833154325E+03  0.10175858423E+04  0.90422115746E+03 0.  0.
         23    2    4    4    0    0 -0.21393767505E+03 -0.29884743901E+03 -0.34581324754E+01  0.37847544164E+03  0.90291642119E+02 0.  0.
         23    2    4    4    0    0  0.54444984779E+03  0.13918633031E+03  0.29178967573E+03  0.63911040064E+03  0.86731874372E+02 0.  0.
          2    1    3    3  502    0 -0.25941941998E+03  0.10096505449E+03 -0.70190648600E+03  0.75509277097E+03  0.00000000000E+00 0. -1.
         -1    1    3    3    0  502 -0.71092752763E+02  0.58696054213E+02 -0.15732804384E+03  0.18234999220E+03  0.00000000000E+00 0.  1.
         11    1    5    5    0    0 -0.21795494925E+03 -0.29879573944E+03 -0.10917096105E+02  0.37000329296E+03  0.00000000000E+00 0.  1.
        -11    1    5    5    0    0  0.40172742001E+01 -0.51699562982E-01  0.74589636292E+01  0.84721486805E+01  0.00000000000E+00 0. -1.
          4    1    6    6  503    0  0.19587934267E+03  0.96440663252E+01  0.11518607530E+03  0.22744132615E+03  0.00000000000E+00 0. -1.
         -4    1    6    6    0  503  0.34857050513E+03  0.12954226398E+03  0.17660360043E+03  0.41166907448E+03  0.00000000000E+00 0.  1.
<mgrwt>
<rscale>  0 0.18698146E+04</rscale>
<asrwt>0</asrwt>
<pdfrwt beam="1">  1        2 0.19430243E+00 0.18698146E+04</pdfrwt>
<pdfrwt beam="2">  1       -1 0.10647120E+00 0.18698146E+04</pdfrwt>
<totfact> 0.15330415E+01</totfact>
</mgrwt>
</event>
<event>
12    6  0.1510140E-007  0.1247045E+04  0.7818608E-02  0.9072646E-01
         -1   -1    0    0    0  501 -0.00000000000E+00  0.00000000000E+00  0.30290693904E+03  0.30290693904E+03  0.00000000000E+00 0.  1.
          2   -1    0    0  501    0  0.00000000000E+00 -0.00000000000E+00 -0.12834970903E+04  0.12834970903E+04  0.00000000000E+00 0. -1.
         24    2    1    2    0    0  0.50627060326E+02 -0.26424435341E+03 -0.38084107741E+03  0.47291349242E+03  0.78861064657E+02 0.  0.
        254    2    1    2    0    0 -0.50627060326E+02  0.26424435341E+03 -0.59974907380E+03  0.11134905369E+04  0.89876250848E+03 0.  0.
         23    2    4    4    0    0  0.12911268306E+03  0.23131991844E+03 -0.78675212764E+03  0.83502615387E+03  0.90059856281E+02 0.  0.
         23    2    4    4    0    0 -0.17973974339E+03  0.32924434972E+02  0.18700305384E+03  0.27846438301E+03  0.95822109605E+02 0.  0.
          4    1    3    3  502    0  0.71562579320E+02 -0.21430381859E+03 -0.29859524606E+03  0.37444151799E+03  0.00000000000E+00 0. -1.
         -3    1    3    3    0  502 -0.20935518994E+02 -0.49940534820E+02 -0.82245831353E+02  0.98471974433E+02  0.00000000000E+00 0.  1.
         11    1    5    5    0    0  0.11177169165E+03  0.16395677944E+03 -0.46036228255E+03  0.50130646093E+03  0.00000000000E+00 0. -1.
        -11    1    5    5    0    0  0.17340991412E+02  0.67363139002E+02 -0.32638984508E+03  0.33371969294E+03  0.00000000000E+00 0.  1.
          4    1    6    6  503    0 -0.18786359928E+03  0.41093688118E+02  0.18485504206E+03  0.26674484009E+03  0.00000000000E+00 0. -1.
         -4    1    6    6    0  503  0.81238558969E+01 -0.81692531460E+01  0.21480117714E+01  0.11719542916E+02  0.00000000000E+00 0.  1.
<mgrwt>
<rscale>  0 0.12470448E+04</rscale>
<asrwt>0</asrwt>
<pdfrwt beam="1">  1        2 0.19746109E+00 0.12470448E+04</pdfrwt>
<pdfrwt beam="2">  1       -1 0.46601067E-01 0.12470448E+04</pdfrwt>
<totfact> 0.86894571E+01</totfact>
</mgrwt>
</event>
<event>
12    6  0.1510140E-007  0.3060935E+04  0.7818608E-02  0.8226542E-01
          2   -1    0    0  501    0  0.00000000000E+00  0.00000000000E+00  0.17421842862E+04  0.17421842862E+04  0.00000000000E+00 0. -1.
         -1   -1    0    0    0  501 -0.00000000000E+00 -0.00000000000E+00 -0.13444789911E+04  0.13444789911E+04  0.00000000000E+00 0.  1.
         24    2    1    2    0    0  0.36355973760E+03  0.87922260618E+03  0.12107846242E+04  0.15421734647E+04  0.84211132593E+02 0.  0.
        254    2    1    2    0    0 -0.36355973760E+03 -0.87922260618E+03 -0.81307932910E+03  0.15444898127E+04  0.90506503201E+03 0.  0.
         23    2    4    4    0    0 -0.26491182854E+03 -0.98565274838E+03 -0.40509578969E+03  0.11016950074E+04  0.89104843891E+02 0.  0.
         23    2    4    4    0    0 -0.98647909057E+02  0.10643014220E+03 -0.40798353941E+03  0.44279480533E+03  0.92508843177E+02 0.  0.
          4    1    3    3  502    0  0.15051152391E+03  0.37491287526E+03  0.58168309295E+03  0.70821508279E+03  0.00000000000E+00 0. -1.
         -3    1    3    3    0  502  0.21304821369E+03  0.50430973092E+03  0.62910153125E+03  0.83395838186E+03  0.00000000000E+00 0.  1.
         11    1    5    5    0    0 -0.22711588175E+03 -0.92529512622E+03 -0.38583898896E+03  0.10279223802E+04  0.00000000000E+00 0. -1.
        -11    1    5    5    0    0 -0.37795946787E+02 -0.60357622157E+02 -0.19256800736E+02  0.73772627176E+02  0.00000000000E+00 0.  1.
          3    1    6    6  503    0 -0.11277624402E+03  0.78217833677E+02 -0.36091009481E+03  0.38612511866E+03  0.00000000000E+00 0. -1.
         -3    1    6    6    0  503  0.14128334965E+02  0.28212308522E+02 -0.47073444598E+02  0.56669686670E+02  0.00000000000E+00 0.  1.
<mgrwt>
<rscale>  0 0.30609346E+04</rscale>
<asrwt>0</asrwt>
<pdfrwt beam="1">  1        2 0.26802835E+00 0.30609346E+04</pdfrwt>
<pdfrwt beam="2">  1       -1 0.20684292E+00 0.30609346E+04</pdfrwt>
<totfact> 0.12166183E+00</totfact>
</mgrwt>
</event>
<event>
12    6  0.1510140E-007  0.1321052E+04  0.7818608E-02  0.9013035E-01
         -1   -1    0    0    0  501 -0.00000000000E+00  0.00000000000E+00  0.53005723714E+03  0.53005723714E+03  0.00000000000E+00 0.  1.
          2   -1    0    0  501    0  0.00000000000E+00 -0.00000000000E+00 -0.82310820610E+03  0.82310820610E+03  0.00000000000E+00 0. -1.
         24    2    1    2    0    0 -0.11168754206E+03 -0.13304133796E+03  0.22688837817E+03  0.29606796421E+03  0.77484183043E+02 0.  0.
        254    2    1    2    0    0  0.11168754206E+03  0.13304133796E+03 -0.51993934713E+03  0.10570974790E+04  0.90384957313E+03 0.  0.
         23    2    4    4    0    0 -0.17358344800E+03  0.17188310606E+03  0.16446864443E+03  0.30849173963E+03  0.91881460877E+02 0.  0.
         23    2    4    4    0    0  0.28527099006E+03 -0.38841768097E+02 -0.68440799156E+03  0.74860573941E+03  0.95436017563E+02 0.  0.
          4    1    3    3  502    0 -0.19024724431E+02 -0.69565873951E+02  0.54840388988E+02  0.90602534305E+02  0.00000000000E+00 0. -1.
         -3    1    3    3    0  502 -0.92662817629E+02 -0.63475464012E+02  0.17204798918E+03  0.20546542990E+03  0.00000000000E+00 0.  1.
         11    1    5    5    0    0 -0.11786689562E+03  0.13282225694E+03  0.16204852109E+03  0.24040399375E+03  0.00000000000E+00 0. -1.
        -11    1    5    5    0    0 -0.55716552376E+02  0.39060849118E+02  0.24201233392E+01  0.68087745883E+02  0.00000000000E+00 0.  1.
          1    1    6    6  503    0  0.22862114151E+03  0.27746474832E+01 -0.57231993688E+03  0.61629979326E+03  0.00000000000E+00 0. -1.
         -1    1    6    6    0  503  0.56649848546E+02 -0.41616415580E+02 -0.11208805468E+03  0.13230594615E+03  0.00000000000E+00 0.  1.
<mgrwt>
<rscale>  0 0.13210518E+04</rscale>
<asrwt>0</asrwt>
<pdfrwt beam="1">  1        2 0.12663203E+00 0.13210518E+04</pdfrwt>
<pdfrwt beam="2">  1       -1 0.81547267E-01 0.13210518E+04</pdfrwt>
<totfact> 0.55489991E+01</totfact>
</mgrwt>
</event>
<event>
12    6  0.1510140E-007  0.1719969E+04  0.7818608E-02  0.8750057E-01
          2   -1    0    0  501    0  0.00000000000E+00  0.00000000000E+00  0.32293244532E+04  0.32293244532E+04  0.00000000000E+00 0. -1.
         -1   -1    0    0    0  501 -0.00000000000E+00 -0.00000000000E+00 -0.22901799947E+03  0.22901799947E+03  0.00000000000E+00 0.  1.
         24    2    1    2    0    0 -0.13829626246E+03  0.12084863468E+02 -0.12340150196E+03  0.20267760771E+03  0.81107224361E+02 0.  0.
        254    2    1    2    0    0  0.13829626246E+03 -0.12084863468E+02  0.31237079557E+04  0.32556648450E+04  0.90693455671E+03 0.  0.
         23    2    4    4    0    0  0.12687273182E+03 -0.17424612515E+03  0.30444741112E+04  0.30534335074E+04  0.90416636301E+02 0.  0.
         23    2    4    4    0    0  0.11423530639E+02  0.16216126168E+03  0.79233844556E+02  0.20223133763E+03  0.90513755611E+02 0.  0.
          2    1    3    3  502    0 -0.38279145007E+02  0.20969928011E+01 -0.88210034631E+02  0.96180562126E+02  0.00000000000E+00 0. -1.
         -1    1    3    3    0  502 -0.10001711745E+03  0.99878706664E+01 -0.35191467328E+02  0.10649704558E+03  0.00000000000E+00 0.  1.
         11    1    5    5    0    0  0.96176340440E+02 -0.10271821299E+03  0.13837653039E+04  0.13909016270E+04  0.00000000000E+00 0.  1.
        -11    1    5    5    0    0  0.30696391383E+02 -0.71527912158E+02  0.16607088073E+04  0.16625318804E+04  0.00000000000E+00 0. -1.
          2    1    6    6  503    0  0.31440646189E+02  0.16025794329E+02  0.10812464699E+01  0.35305940161E+02  0.00000000000E+00 0. -1.
         -2    1    6    6    0  503 -0.20017115551E+02  0.14613546735E+03  0.78152598086E+02  0.16692539747E+03  0.00000000000E+00 0.  1.
<mgrwt>
<rscale>  0 0.17199691E+04</rscale>
<asrwt>0</asrwt>
<pdfrwt beam="1">  1        2 0.49681911E+00 0.17199691E+04</pdfrwt>
<pdfrwt beam="2">  1       -1 0.35233541E-01 0.17199691E+04</pdfrwt>
<totfact> 0.10358777E+01</totfact>
</mgrwt>
</event>
<event>
12    6  0.1510140E-007  0.2563125E+04  0.7818608E-02  0.8380836E-01
         -1   -1    0    0    0  501 -0.00000000000E+00  0.00000000000E+00  0.70340107583E+03  0.70340107583E+03  0.00000000000E+00 0.  1.
          2   -1    0    0  501    0  0.00000000000E+00 -0.00000000000E+00 -0.23349439698E+04  0.23349439698E+04  0.00000000000E+00 0. -1.
         24    2    1    2    0    0  0.10234048418E+04 -0.88132303440E+02 -0.17383603600E+03  0.10448880117E+04  0.80294560341E+02 0.  0.
        254    2    1    2    0    0 -0.10234048418E+04  0.88132303440E+02 -0.14577068580E+04  0.19934570340E+04  0.89097524625E+03 0.  0.
         23    2    4    4    0    0 -0.64114513584E+03 -0.79767080041E+02 -0.22710307392E+03  0.69075029815E+03  0.90168153647E+02 0.  0.
         23    2    4    4    0    0 -0.38225970594E+03  0.16789938348E+03 -0.12306037841E+04  0.13027067358E+04  0.91359074435E+02 0.  0.
          2    1    3    3  502    0  0.78738453418E+03 -0.77999496236E+02 -0.10089172913E+03  0.79764495051E+03  0.00000000000E+00 0. -1.
         -1    1    3    3    0  502  0.23602030761E+03 -0.10132807204E+02 -0.72944306864E+02  0.24724306115E+03  0.00000000000E+00 0.  1.
         11    1    5    5    0    0 -0.53405073273E+03 -0.83998237906E+02 -0.15802014604E+03  0.56323729959E+03  0.00000000000E+00 0. -1.
        -11    1    5    5    0    0 -0.10709440311E+03  0.42311578649E+01 -0.69082927881E+02  0.12751299855E+03  0.00000000000E+00 0.  1.
          1    1    6    6  503    0 -0.30540237908E+03  0.16550036995E+03 -0.10627533502E+04  0.11180812444E+04  0.00000000000E+00 0. -1.
         -1    1    6    6    0  503 -0.76857326858E+02  0.23990135270E+01 -0.16785043381E+03  0.18462549143E+03  0.00000000000E+00 0.  1.
<mgrwt>
<rscale>  0 0.25631247E+04</rscale>
<asrwt>0</asrwt>
<pdfrwt beam="1">  1        2 0.35922214E+00 0.25631247E+04</pdfrwt>
<pdfrwt beam="2">  1       -1 0.10821555E+00 0.25631247E+04</pdfrwt>
<totfact> 0.34661369E+00</totfact>
</mgrwt>
</event>
<event>
12    6  0.1510140E-007  0.1316075E+04  0.7818608E-02  0.9016914E-01
         -1   -1    0    0    0  501 -0.00000000000E+00  0.00000000000E+00  0.27421250956E+03  0.27421250956E+03  0.00000000000E+00 0.  1.
          2   -1    0    0  501    0  0.00000000000E+00 -0.00000000000E+00 -0.15791149929E+04  0.15791149929E+04  0.00000000000E+00 0. -1.
         24    2    1    2    0    0 -0.17081293667E+03  0.93061155453E+02  0.50995473540E+02  0.21615734386E+03  0.79284430960E+02 0.  0.
        254    2    1    2    0    0  0.17081293667E+03 -0.93061155453E+02 -0.13558979569E+04  0.16371701586E+04  0.89667687646E+03 0.  0.
         23    2    4    4    0    0  0.30664135042E+03 -0.43286970190E+03 -0.84357260582E+03  0.10009237123E+04  0.93959777861E+02 0.  0.
         23    2    4    4    0    0 -0.13582841375E+03  0.33980854645E+03 -0.51232535107E+03  0.63624644636E+03  0.91722783053E+02 0.  0.
          4    1    3    3  502    0 -0.22350719907E+02 -0.12517908984E+02 -0.38494837582E+01  0.25905042962E+02  0.00000000000E+00 0. -1.
         -3    1    3    3    0  502 -0.14846221677E+03  0.10557906444E+03  0.54844957298E+02  0.19025230089E+03  0.00000000000E+00 0.  1.
         11    1    5    5    0    0  0.14985345425E+03 -0.17618218082E+03 -0.29027607488E+03  0.37115551759E+03  0.00000000000E+00 0. -1.
        -11    1    5    5    0    0  0.15678789617E+03 -0.25668752108E+03 -0.55329653094E+03  0.62976819466E+03  0.00000000000E+00 0.  1.
          4    1    6    6  503    0 -0.82079700728E+02  0.10879429487E+03 -0.23174618407E+03  0.26884859996E+03  0.00000000000E+00 0. -1.
         -4    1    6    6    0  503 -0.53748713022E+02  0.23101425158E+03 -0.28057916700E+03  0.36739784640E+03  0.00000000000E+00 0.  1.
<mgrwt>
<rscale>  0 0.13160746E+04</rscale>
<asrwt>0</asrwt>
<pdfrwt beam="1">  1        2 0.24294077E+00 0.13160746E+04</pdfrwt>
<pdfrwt beam="2">  1       -1 0.42186539E-01 0.13160746E+04</pdfrwt>
<totfact> 0.70560832E+01</totfact>
</mgrwt>
</event>
<event>
12    6  0.1510140E-007  0.1178519E+04  0.7818608E-02  0.9131869E-01
         -1   -1    0    0    0  501 -0.00000000000E+00  0.00000000000E+00  0.13036408440E+03  0.13036408440E+03  0.00000000000E+00 0.  1.
          2   -1    0    0  501    0  0.00000000000E+00 -0.00000000000E+00 -0.26635152397E+04  0.26635152397E+04  0.00000000000E+00 0. -1.
         24    2    1    2    0    0 -0.10013890162E+03 -0.23068809089E+03 -0.49858342467E+03  0.56405292038E+03  0.79532828095E+02 0.  0.
        254    2    1    2    0    0  0.10013890162E+03  0.23068809089E+03 -0.20345677306E+04  0.22298264037E+04  0.87716312352E+03 0.  0.
         23    2    4    4    0    0 -0.33391868904E+03 -0.96607774236E+02 -0.81859019651E+03  0.89418273680E+03  0.92941401112E+02 0.  0.
         23    2    4    4    0    0  0.43405759066E+03  0.32729586513E+03 -0.12159775341E+04  0.13356436669E+04  0.99065968568E+02 0.  0.
          4    1    3    3  502    0 -0.37153924151E+02 -0.59204160998E+02 -0.22064679247E+03  0.23145313518E+03  0.00000000000E+00 0. -1.
         -3    1    3    3    0  502 -0.62984977467E+02 -0.17148392989E+03 -0.27793663220E+03  0.33259978520E+03  0.00000000000E+00 0.  1.
         11    1    5    5    0    0 -0.33050514100E+03 -0.94484151740E+02 -0.74495866306E+03  0.82044153529E+03  0.00000000000E+00 0. -1.
        -11    1    5    5    0    0 -0.34135480405E+01 -0.21236224963E+01 -0.73631533445E+02  0.73741201510E+02  0.00000000000E+00 0.  1.
          2    1    6    6  503    0  0.39628554241E+03  0.27168484763E+03 -0.11174439194E+04  0.12163617063E+04  0.00000000000E+00 0. -1.
         -2    1    6    6    0  503  0.37772048252E+02  0.55611017493E+02 -0.98533614704E+02  0.11928196059E+03  0.00000000000E+00 0.  1.
<mgrwt>
<rscale>  0 0.11785189E+04</rscale>
<asrwt>0</asrwt>
<pdfrwt beam="1">  1        2 0.40977156E+00 0.11785189E+04</pdfrwt>
<pdfrwt beam="2">  1       -1 0.20056014E-01 0.11785189E+04</pdfrwt>
<totfact> 0.64560085E+01</totfact>
</mgrwt>
</event>
<event>
12    6  0.1510140E-007  0.2706681E+04  0.7818608E-02  0.8332840E-01
          2   -1    0    0  501    0  0.00000000000E+00  0.00000000000E+00  0.14275052124E+04  0.14275052124E+04  0.00000000000E+00 0. -1.
         -1   -1    0    0    0  501 -0.00000000000E+00 -0.00000000000E+00 -0.12830291394E+04  0.12830291394E+04  0.00000000000E+00 0.  1.
         24    2    1    2    0    0  0.10028131231E+03 -0.66927462305E+03  0.10608552733E+04  0.12608448908E+04  0.79567990763E+02 0.  0.
        254    2    1    2    0    0 -0.10028131231E+03  0.66927462305E+03 -0.91637920034E+03  0.14496894610E+04  0.89658453697E+03 0.  0.
         23    2    4    4    0    0  0.33207834374E+03  0.56457031648E+03 -0.62680803020E+03  0.91125426759E+03  0.92088896411E+02 0.  0.
         23    2    4    4    0    0 -0.43235965606E+03  0.10470430657E+03 -0.28957117014E+03  0.53843519343E+03  0.90350046765E+02 0.  0.
          2    1    3    3  502    0  0.67176611024E+02 -0.55345341408E+03  0.91741684129E+03  0.10735348338E+04  0.00000000000E+00 0. -1.
         -1    1    3    3    0  502  0.33104701287E+02 -0.11582120898E+03  0.14343843200E+03  0.18731005704E+03  0.00000000000E+00 0.  1.
         11    1    5    5    0    0  0.25496314773E+02  0.19938267217E+02 -0.11906286741E+02  0.34487044387E+02  0.00000000000E+00 0. -1.
        -11    1    5    5    0    0  0.30658202897E+03  0.54463204927E+03 -0.61490174346E+03  0.87676722321E+03  0.00000000000E+00 0.  1.
          3    1    6    6  503    0 -0.40401549883E+02 -0.11974953818E+02 -0.10795436462E+02  0.43499726439E+02  0.00000000000E+00 0. -1.
         -3    1    6    6    0  503 -0.39195810617E+03  0.11667926039E+03 -0.27877573368E+03  0.49493546699E+03  0.00000000000E+00 0.  1.
<mgrwt>
<rscale>  0 0.27066812E+04</rscale>
<asrwt>0</asrwt>
<pdfrwt beam="1">  1        2 0.21961619E+00 0.27066812E+04</pdfrwt>
<pdfrwt beam="2">  1       -1 0.19738910E+00 0.27066812E+04</pdfrwt>
<totfact> 0.21868865E+00</totfact>
</mgrwt>
</event>
<event>
12    6  0.1510140E-007  0.2477577E+04  0.7818608E-02  0.8411017E-01
         -1   -1    0    0    0  501 -0.00000000000E+00  0.00000000000E+00  0.61626446584E+03  0.61626446584E+03  0.00000000000E+00 0.  1.
          2   -1    0    0  501    0  0.00000000000E+00 -0.00000000000E+00 -0.24901606447E+04  0.24901606447E+04  0.00000000000E+00 0. -1.
         24    2    1    2    0    0 -0.96866311824E+03  0.42867775120E+03 -0.10378802824E+04  0.14849518362E+04  0.76247126528E+02 0.  0.
        254    2    1    2    0    0  0.96866311824E+03 -0.42867775120E+03 -0.83601589641E+03  0.16214732743E+04  0.89898840324E+03 0.  0.
         23    2    4    4    0    0 -0.12609745100E+03 -0.10647238634E+03  0.22568035903E+02  0.19053051227E+03  0.92496614326E+02 0.  0.
         23    2    4    4    0    0  0.10947605692E+04 -0.32220536486E+03 -0.85858393231E+03  0.14309427620E+04  0.90076735182E+02 0.  0.
          2    1    3    3  502    0 -0.76065245756E+03  0.33190951640E+03 -0.85517059818E+03  0.11916680915E+04  0.00000000000E+00 0. -1.
         -1    1    3    3    0  502 -0.20801066068E+03  0.96768234794E+02 -0.18270968423E+03  0.29328374475E+03  0.00000000000E+00 0.  1.
         11    1    5    5    0    0 -0.57965914021E+02 -0.92482999987E+02  0.44101620371E+02  0.11772045444E+03  0.00000000000E+00 0. -1.
        -11    1    5    5    0    0 -0.68131536976E+02 -0.13989386353E+02 -0.21533584468E+02  0.72810057831E+02  0.00000000000E+00 0.  1.
          2    1    6    6  503    0  0.84208349785E+03 -0.21556868021E+03 -0.68067745503E+03  0.11040363540E+04  0.00000000000E+00 0. -1.
         -2    1    6    6    0  503  0.25267707139E+03 -0.10663668464E+03 -0.17790647728E+03  0.32690640798E+03  0.00000000000E+00 0.  1.
<mgrwt>
<rscale>  0 0.24775775E+04</rscale>
<asrwt>0</asrwt>
<pdfrwt beam="1">  1        2 0.38310163E+00 0.24775775E+04</pdfrwt>
<pdfrwt beam="2">  1       -1 0.94809919E-01 0.24775775E+04</pdfrwt>
<totfact> 0.38550265E+00</totfact>
</mgrwt>
</event>
<event>
12    6  0.1510140E-007  0.2200605E+04  0.7818608E-02  0.8518176E-01
         -1   -1    0    0    0  501 -0.00000000000E+00  0.00000000000E+00  0.23540621656E+04  0.23540621656E+04  0.00000000000E+00 0.  1.
          2   -1    0    0  501    0  0.00000000000E+00 -0.00000000000E+00 -0.51428774565E+03  0.51428774565E+03  0.00000000000E+00 0. -1.
         24    2    1    2    0    0  0.48609059684E+03  0.52312295869E+03  0.13892080653E+04  0.15640181886E+04  0.79449024950E+02 0.  0.
        254    2    1    2    0    0 -0.48609059684E+03 -0.52312295869E+03  0.45056635466E+03  0.13043317226E+04  0.99414762702E+03 0.  0.
         23    2    4    4    0    0 -0.34779883527E+03  0.18248898245E+03 -0.73967220418E+02  0.40965747707E+03  0.89899056108E+02 0.  0.
         23    2    4    4    0    0 -0.13829176157E+03 -0.70561194115E+03  0.52453357508E+03  0.89467424551E+03  0.91069815948E+02 0.  0.
          4    1    3    3  502    0  0.49674925642E+02  0.31380950922E+02  0.83231512923E+02  0.10188153445E+03  0.00000000000E+00 0. -1.
         -3    1    3    3    0  502  0.43641567120E+03  0.49174200777E+03  0.13059765523E+04  0.14621366542E+04  0.00000000000E+00 0.  1.
         11    1    5    5    0    0 -0.34814768614E+03  0.18094310165E+03 -0.82532002458E+02  0.40094731428E+03  0.00000000000E+00 0.  1.
        -11    1    5    5    0    0  0.34885087123E+00  0.15458808063E+01  0.85647820394E+01  0.87101627872E+01  0.00000000000E+00 0. -1.
          3    1    6    6  503    0  0.11473839970E+02 -0.81548314875E+02  0.72018662851E+02  0.10940047743E+03  0.00000000000E+00 0. -1.
         -3    1    6    6    0  503 -0.14976560154E+03 -0.62406362627E+03  0.45251491223E+03  0.78527376808E+03  0.00000000000E+00 0.  1.
<mgrwt>
<rscale>  0 0.22006048E+04</rscale>
<asrwt>0</asrwt>
<pdfrwt beam="1">  1        2 0.79121193E-01 0.22006048E+04</pdfrwt>
<pdfrwt beam="2">  1       -1 0.36216341E+00 0.22006048E+04</pdfrwt>
<totfact> 0.80267868E-01</totfact>
</mgrwt>
</event>
<event>
12    6  0.1510140E-007  0.3225258E+04  0.7818608E-02  0.8182178E-01
         -1   -1    0    0    0  501 -0.00000000000E+00  0.00000000000E+00  0.16070377439E+04  0.16070377439E+04  0.00000000000E+00 0.  1.
          2   -1    0    0  501    0  0.00000000000E+00 -0.00000000000E+00 -0.16182394225E+04  0.16182394225E+04  0.00000000000E+00 0. -1.
         24    2    1    2    0    0  0.83108064782E+03 -0.35172232655E+03  0.11519613701E+04  0.14649527936E+04  0.68323137566E+02 0.  0.
        254    2    1    2    0    0 -0.83108064782E+03  0.35172232655E+03 -0.11631630487E+04  0.17603243728E+04  0.96508547873E+03 0.  0.
         23    2    4    4    0    0 -0.17810791117E+03 -0.17767392727E+02 -0.95572621891E+03  0.97667072866E+03  0.91842247586E+02 0.  0.
         23    2    4    4    0    0 -0.65297273665E+03  0.36948971928E+03 -0.20743682980E+03  0.78365364410E+03  0.90481755533E+02 0.  0.
          2    1    3    3  502    0  0.12729055616E+03 -0.59595019434E+02  0.14226827303E+03  0.19998678341E+03  0.00000000000E+00 0. -1.
         -1    1    3    3    0  502  0.70379009166E+03 -0.29212730712E+03  0.10096930971E+04  0.12649660102E+04  0.00000000000E+00 0.  1.
         11    1    5    5    0    0 -0.10331499098E+03  0.23177398344E+02 -0.67585395653E+03  0.68409776327E+03  0.00000000000E+00 0. -1.
        -11    1    5    5    0    0 -0.74792920186E+02 -0.40944791071E+02 -0.27987226238E+03  0.29257296539E+03  0.00000000000E+00 0.  1.
          1    1    6    6  503    0 -0.62111867141E+03  0.35586263746E+03 -0.17667133198E+03  0.73731904916E+03  0.00000000000E+00 0. -1.
         -1    1    6    6    0  503 -0.31854065240E+02  0.13627081817E+02 -0.30765497824E+02  0.46334594932E+02  0.00000000000E+00 0.  1.
<mgrwt>
<rscale>  0 0.32252577E+04</rscale>
<asrwt>0</asrwt>
<pdfrwt beam="1">  1        2 0.24895991E+00 0.32252577E+04</pdfrwt>
<pdfrwt beam="2">  1       -1 0.24723658E+00 0.32252577E+04</pdfrwt>
<totfact> 0.75730054E-01</totfact>
</mgrwt>
</event>
<event>
12    6  0.1510140E-007  0.1266171E+04  0.7818608E-02  0.9056831E-01
          2   -1    0    0  501    0  0.00000000000E+00  0.00000000000E+00  0.20495341768E+03  0.20495341768E+03  0.00000000000E+00 0. -1.
         -1   -1    0    0    0  501 -0.00000000000E+00 -0.00000000000E+00 -0.19555522742E+04  0.19555522742E+04  0.00000000000E+00 0.  1.
         24    2    1    2    0    0  0.63684081409E+02  0.24015209914E+03 -0.14754350568E+03  0.29934106238E+03  0.78149168969E+02 0.  0.
        254    2    1    2    0    0 -0.63684081409E+02 -0.24015209914E+03 -0.16030553508E+04  0.18611646295E+04  0.91236978647E+03 0.  0.
         23    2    4    4    0    0 -0.25568409480E+03  0.54458179108E+02 -0.14341489942E+04  0.14604606016E+04  0.88440836636E+02 0.  0.
         23    2    4    4    0    0  0.19200001339E+03 -0.29461027825E+03 -0.16890635664E+03  0.40070402791E+03  0.91515788146E+02 0.  0.
          4    1    3    3  502    0  0.38100350777E+02  0.20913119553E+03 -0.94124540005E+02  0.23247994044E+03  0.00000000000E+00 0. -1.
         -3    1    3    3    0  502  0.25583730632E+02  0.31020903612E+02 -0.53418965674E+02  0.66861121944E+02  0.00000000000E+00 0.  1.
         11    1    5    5    0    0 -0.14681995544E+03  0.38229462320E+02 -0.10482327424E+04  0.10591550752E+04  0.00000000000E+00 0. -1.
        -11    1    5    5    0    0 -0.10886413936E+03  0.16228716788E+02 -0.38591625176E+03  0.40130552633E+03  0.00000000000E+00 0.  1.
          3    1    6    6  503    0  0.15991328212E+03 -0.27515386087E+03 -0.12246681493E+03  0.34099857142E+03  0.00000000000E+00 0. -1.
         -3    1    6    6    0  503  0.32086731274E+02 -0.19456417379E+02 -0.46439541711E+02  0.59705456496E+02  0.00000000000E+00 0.  1.
<mgrwt>
<rscale>  0 0.12661708E+04</rscale>
<asrwt>0</asrwt>
<pdfrwt beam="1">  1        2 0.31531293E-01 0.12661708E+04</pdfrwt>
<pdfrwt beam="2">  1       -1 0.30085421E+00 0.12661708E+04</pdfrwt>
<totfact> 0.62176530E+00</totfact>
</mgrwt>
</event>
<event>
12    6  0.1510140E-007  0.2178742E+04  0.7818608E-02  0.8527328E-01
         -1   -1    0    0    0  501 -0.00000000000E+00  0.00000000000E+00  0.50155252917E+03  0.50155252917E+03  0.00000000000E+00 0.  1.
          2   -1    0    0  501    0  0.00000000000E+00 -0.00000000000E+00 -0.23661119469E+04  0.23661119469E+04  0.00000000000E+00 0. -1.
         24    2    1    2    0    0  0.86961193802E+03  0.15415563606E+03 -0.52652955354E+03  0.10312765273E+04  0.79429353259E+02 0.  0.
        254    2    1    2    0    0 -0.86961193802E+03 -0.15415563606E+03 -0.13380298642E+04  0.18363879488E+04  0.89554893672E+03 0.  0.
         23    2    4    4    0    0 -0.89289589017E+03  0.68379307050E+02 -0.13108545124E+04  0.15907028775E+04  0.10028604731E+03 0.  0.
         23    2    4    4    0    0  0.23283952153E+02 -0.22253494311E+03 -0.27175351800E+02  0.24568507134E+03  0.97768661653E+02 0.  0.
          4    1    3    3  502    0  0.25752112821E+03  0.38777842170E+02 -0.19748614888E+03  0.32683578677E+03  0.00000000000E+00 0. -1.
         -3    1    3    3    0  502  0.61209080982E+03  0.11537779389E+03 -0.32904340466E+03  0.70444074054E+03  0.00000000000E+00 0.  1.
         11    1    5    5    0    0 -0.64772375107E+03  0.47099104882E+01 -0.93385521212E+03  0.11365094800E+04  0.00000000000E+00 0. -1.
        -11    1    5    5    0    0 -0.24517213910E+03  0.63669396562E+02 -0.37699930030E+03  0.45419339744E+03  0.00000000000E+00 0.  1.
          1    1    6    6  503    0  0.56741138990E+02 -0.89865142568E+02 -0.47326548233E+00  0.10628040592E+03  0.00000000000E+00 0. -1.
         -1    1    6    6    0  503 -0.33457186837E+02 -0.13266980054E+03 -0.26702086317E+02  0.13940466542E+03  0.00000000000E+00 0.  1.
<mgrwt>
<rscale>  0 0.21787422E+04</rscale>
<asrwt>0</asrwt>
<pdfrwt beam="1">  1        2 0.36401721E+00 0.21787422E+04</pdfrwt>
<pdfrwt beam="2">  1       -1 0.77161929E-01 0.21787422E+04</pdfrwt>
<totfact> 0.72956015E+00</totfact>
</mgrwt>
</event>
<event>
12    6  0.1854555E-007  0.2153183E+04  0.7818608E-02  0.8538171E-01
          2   -1    0    0  501    0  0.00000000000E+00  0.00000000000E+00  0.22959710085E+04  0.22959710085E+04  0.00000000000E+00 0. -1.
         -1   -1    0    0    0  501 -0.00000000000E+00 -0.00000000000E+00 -0.50481887145E+03  0.50481887145E+03  0.00000000000E+00 0.  1.
         24    2    1    2    0    0  0.68052118011E+03  0.43637124643E+03  0.12261168169E+04  0.14708009440E+04  0.79774851954E+02 0.  0.
        254    2    1    2    0    0 -0.68052118011E+03 -0.43637124643E+03  0.56503532016E+03  0.13299889359E+04  0.89223131270E+03 0.  0.
         23    2    4    4    0    0  0.16520733531E+03  0.75884191806E+02  0.38749843029E+02  0.20616158630E+03  0.89158146718E+02 0.  0.
         23    2    4    4    0    0 -0.84572851542E+03 -0.51225543824E+03  0.52628547713E+03  0.11238273496E+04  0.91373697133E+02 0.  0.
          2    1    3    3  502    0  0.62822366583E+03  0.42463151658E+03  0.11321589912E+04  0.13626301335E+04  0.00000000000E+00 0. -1.
         -3    1    3    3    0  502  0.52297514280E+02  0.11739729850E+02  0.93957825668E+02  0.10817081058E+03  0.00000000000E+00 0.  1.
         11    1    5    5    0    0  0.17248719747E+03  0.58197200525E+02  0.27883016564E+02  0.18416354159E+03  0.00000000000E+00 0. -1.
        -11    1    5    5    0    0 -0.72798621592E+01  0.17686991281E+02  0.10866826465E+02  0.21998044710E+02  0.00000000000E+00 0.  1.
          2    1    6    6  503    0 -0.80393668694E+03 -0.47414760357E+03  0.47401416075E+03  0.10468140098E+04  0.00000000000E+00 0. -1.
         -2    1    6    6    0  503 -0.41791828483E+02 -0.38107834665E+02  0.52271316380E+02  0.77013339799E+02  0.00000000000E+00 0.  1.
<mgrwt>
<rscale>  0 0.21531832E+04</rscale>
<asrwt>0</asrwt>
<pdfrwt beam="1">  1        2 0.35322630E+00 0.21531832E+04</pdfrwt>
<pdfrwt beam="2">  1       -1 0.77664443E-01 0.21531832E+04</pdfrwt>
<totfact> 0.79062783E+00</totfact>
</mgrwt>
</event>
<event>
12    6  0.1510140E-007  0.1038967E+04  0.7818608E-02  0.9266810E-01
         -1   -1    0    0    0  501 -0.00000000000E+00  0.00000000000E+00  0.21384408622E+03  0.21384408622E+03  0.00000000000E+00 0.  1.
          2   -1    0    0  501    0  0.00000000000E+00 -0.00000000000E+00 -0.12619618177E+04  0.12619618177E+04  0.00000000000E+00 0. -1.
         24    2    1    2    0    0  0.39778036112E+02  0.15991289321E+03 -0.35218518564E+03  0.39775115275E+03  0.83768424592E+02 0.  0.
        254    2    1    2    0    0 -0.39778036112E+02 -0.15991289321E+03 -0.69593254585E+03  0.10780547512E+04  0.80667559317E+03 0.  0.
         23    2    4    4    0    0 -0.37201152829E+03  0.45431413174E+02 -0.18299621274E+03  0.42688648571E+03  0.91037724725E+02 0.  0.
         23    2    4    4    0    0  0.33223349217E+03 -0.20534430638E+03 -0.51293633311E+03  0.65116826548E+03  0.91493445969E+02 0.  0.
          2    1    3    3  502    0  0.10756239106E+02  0.10781473014E+03 -0.29833034992E+03  0.31739677124E+03  0.00000000000E+00 0. -1.
         -1    1    3    3    0  502  0.29021797006E+02  0.52098163067E+02 -0.53854835725E+02  0.80354381507E+02  0.00000000000E+00 0.  1.
         11    1    5    5    0    0 -0.10793616299E+03  0.39719205150E+01 -0.99460513575E+02  0.14682773986E+03  0.00000000000E+00 0.  1.
        -11    1    5    5    0    0 -0.26407536530E+03  0.41459492659E+02 -0.83535699164E+02  0.28005874585E+03  0.00000000000E+00 0. -1.
          2    1    6    6  503    0  0.12458986137E+03 -0.32768250315E+02 -0.13400567349E+03  0.18588682663E+03  0.00000000000E+00 0.  1.
         -2    1    6    6    0  503  0.20764363080E+03 -0.17257605607E+03 -0.37893065962E+03  0.46528143885E+03  0.00000000000E+00 0. -1.
<mgrwt>
<rscale>  0 0.10389669E+04</rscale>
<asrwt>0</asrwt>
<pdfrwt beam="1">  1        2 0.19414797E+00 0.10389669E+04</pdfrwt>
<pdfrwt beam="2">  1       -1 0.32899090E-01 0.10389669E+04</pdfrwt>
<totfact> 0.17106716E+02</totfact>
</mgrwt>
</event>
<event>
12    6  0.1510140E-007  0.1618973E+04  0.7818608E-02  0.8808976E-01
          2   -1    0    0  501    0  0.00000000000E+00  0.00000000000E+00  0.20107428420E+04  0.20107428420E+04  0.00000000000E+00 0. -1.
         -1   -1    0    0    0  501 -0.00000000000E+00 -0.00000000000E+00 -0.32588377004E+03  0.32588377004E+03  0.00000000000E+00 0.  1.
         24    2    1    2    0    0  0.63816768826E+02 -0.54606029943E+03  0.45893849674E+03  0.72062149944E+03  0.80102253919E+02 0.  0.
        254    2    1    2    0    0 -0.63816768826E+02  0.54606029943E+03  0.12259205752E+04  0.16160051126E+04  0.89796260312E+03 0.  0.
         23    2    4    4    0    0 -0.32673157684E+03  0.86053974989E+02  0.94879991585E+03  0.10110538878E+04  0.88599513397E+02 0.  0.
         23    2    4    4    0    0  0.26291480801E+03  0.46000632444E+03  0.27712065937E+03  0.60495122481E+03  0.91870069975E+02 0.  0.
          2    1    3    3  502    0  0.70763400698E+02 -0.35492659273E+03  0.33154748262E+03  0.49081980231E+03  0.00000000000E+00 0. -1.
         -1    1    3    3    0  502 -0.69466318727E+01 -0.19113370669E+03  0.12739101411E+03  0.22980169713E+03  0.00000000000E+00 0.  1.
         11    1    5    5    0    0 -0.31436858944E+03  0.91240445183E+02  0.93907331759E+03  0.99449038441E+03  0.00000000000E+00 0.  1.
        -11    1    5    5    0    0 -0.12362987398E+02 -0.51864701940E+01  0.97265982556E+01  0.16563503376E+02  0.00000000000E+00 0. -1.
          4    1    6    6  503    0  0.41931195209E+02  0.14141800894E+03  0.10309309209E+03  0.17995961775E+03  0.00000000000E+00 0. -1.
         -4    1    6    6    0  503  0.22098361280E+03  0.31858831549E+03  0.17402756728E+03  0.42499160706E+03  0.00000000000E+00 0.  1.
<mgrwt>
<rscale>  0 0.16189731E+04</rscale>
<asrwt>0</asrwt>
<pdfrwt beam="1">  1        2 0.30934504E+00 0.16189731E+04</pdfrwt>
<pdfrwt beam="2">  1       -1 0.50135966E-01 0.16189731E+04</pdfrwt>
<totfact> 0.28706034E+01</totfact>
</mgrwt>
</event>
<event>
12    6  0.1510140E-007  0.1187559E+04  0.7818608E-02  0.9123816E-01
         -1   -1    0    0    0  501 -0.00000000000E+00  0.00000000000E+00  0.43530819121E+03  0.43530819121E+03  0.00000000000E+00 0.  1.
          2   -1    0    0  501    0  0.00000000000E+00 -0.00000000000E+00 -0.80994162303E+03  0.80994162303E+03  0.00000000000E+00 0. -1.
         24    2    1    2    0    0  0.56674863173E+02 -0.77059583234E+02  0.16531248038E+03  0.20693219609E+03  0.79639802405E+02 0.  0.
        254    2    1    2    0    0 -0.56674863173E+02  0.77059583234E+02 -0.53994591220E+03  0.10383176181E+04  0.88170951485E+03 0.  0.
         23    2    4    4    0    0 -0.93468715061E+02  0.21482383774E+03 -0.73716700628E+03  0.77896771943E+03  0.92140277881E+02 0.  0.
         23    2    4    4    0    0  0.36793851888E+02 -0.13776425451E+03  0.19722109408E+03  0.25934989871E+03  0.89629418470E+02 0.  0.
          2    1    3    3  502    0 -0.14537516415E+02  0.23705211555E+01  0.77258611140E+01  0.16632729301E+02  0.00000000000E+00 0. -1.
         -1    1    3    3    0  502  0.71212379588E+02 -0.79430104390E+02  0.15758661926E+03  0.19029946679E+03  0.00000000000E+00 0.  1.
         11    1    5    5    0    0 -0.10402182748E+03  0.20687157771E+03 -0.63405907792E+03  0.67501652169E+03  0.00000000000E+00 0.  1.
        -11    1    5    5    0    0  0.10553112416E+02  0.79522600253E+01 -0.10310792837E+03  0.10395119775E+03  0.00000000000E+00 0. -1.
          3    1    6    6  503    0  0.10342139414E+02 -0.39299260088E+02  0.39421901893E+01  0.40828085366E+02  0.00000000000E+00 0. -1.
         -3    1    6    6    0  503  0.26451712474E+02 -0.98464994418E+02  0.19327890390E+03  0.21852181335E+03  0.00000000000E+00 0.  1.
<mgrwt>
<rscale>  0 0.11875592E+04</rscale>
<asrwt>0</asrwt>
<pdfrwt beam="1">  1        2 0.12460640E+00 0.11875592E+04</pdfrwt>
<pdfrwt beam="2">  1       -1 0.66970492E-01 0.11875592E+04</pdfrwt>
<totfact> 0.86296001E+01</totfact>
</mgrwt>
</event>
<event>
12    6  0.1510140E-007  0.1835261E+04  0.7818608E-02  0.8687770E-01
          2   -1    0    0  501    0  0.00000000000E+00  0.00000000000E+00  0.10371604222E+04  0.10371604222E+04  0.00000000000E+00 0. -1.
         -1   -1    0    0    0  501 -0.00000000000E+00 -0.00000000000E+00 -0.81187573017E+03  0.81187573017E+03  0.00000000000E+00 0.  1.
         24    2    1    2    0    0 -0.57447268182E+03  0.39104999447E+03  0.13143616952E+03  0.71173589325E+03  0.79709188630E+02 0.  0.
        254    2    1    2    0    0  0.57447268182E+03 -0.39104999447E+03  0.93848522539E+02  0.11373002591E+04  0.89538001649E+03 0.  0.
         23    2    4    4    0    0  0.54532361362E+03 -0.12708512152E+03 -0.30923918821E+03  0.64601769072E+03  0.90451697075E+02 0.  0.
         23    2    4    4    0    0  0.29149068196E+02 -0.26396487295E+03  0.40308771075E+03  0.49128256842E+03  0.91387839162E+02 0.  0.
          2    1    3    3  502    0 -0.56663774857E+03  0.38332954111E+03  0.11775325914E+03  0.69417987960E+03  0.00000000000E+00 0. -1.
         -1    1    3    3    0  502 -0.78349332460E+01  0.77204533602E+01  0.13682910379E+02  0.17556013656E+02  0.00000000000E+00 0.  1.
         11    1    5    5    0    0  0.31646545131E+03 -0.10605543540E+03 -0.21853773212E+03  0.39894470495E+03  0.00000000000E+00 0.  1.
        -11    1    5    5    0    0  0.22885816232E+03 -0.21029686120E+02 -0.90701456096E+02  0.24707298576E+03  0.00000000000E+00 0. -1.
          1    1    6    6  503    0 -0.14267375795E+02 -0.22227154208E+02  0.10977023373E+02  0.28602437631E+02  0.00000000000E+00 0. -1.
         -1    1    6    6    0  503  0.43416443991E+02 -0.24173771875E+03  0.39211068738E+03  0.46268013079E+03  0.00000000000E+00 0.  1.
<mgrwt>
<rscale>  0 0.18352606E+04</rscale>
<asrwt>0</asrwt>
<pdfrwt beam="1">  1        2 0.15956314E+00 0.18352606E+04</pdfrwt>
<pdfrwt beam="2">  1       -1 0.12490396E+00 0.18352606E+04</pdfrwt>
<totfact> 0.14362353E+01</totfact>
</mgrwt>
</event>
<event>
12    6  0.1510140E-007  0.2758450E+04  0.7818608E-02  0.8316285E-01
          2   -1    0    0  501    0  0.00000000000E+00  0.00000000000E+00  0.19535618470E+04  0.19535618470E+04  0.00000000000E+00 0. -1.
         -1   -1    0    0    0  501 -0.00000000000E+00 -0.00000000000E+00 -0.97373981072E+03  0.97373981072E+03  0.00000000000E+00 0.  1.
         24    2    1    2    0    0 -0.49366000972E+03 -0.81068279951E+03  0.12682465442E+04  0.15874452174E+04  0.10308353226E+03 0.  0.
        254    2    1    2    0    0  0.49366000972E+03  0.81068279951E+03 -0.28842450790E+03  0.13398564404E+04  0.90062188372E+03 0.  0.
         23    2    4    4    0    0  0.48574218849E+03  0.98837638145E+03 -0.19969575858E+03  0.11233804687E+04  0.96290894973E+02 0.  0.
         23    2    4    4    0    0  0.79178212303E+01 -0.17769358194E+03 -0.88728749318E+02  0.21647597164E+03  0.85740039586E+02 0.  0.
          2    1    3    3  502    0 -0.45586671968E+03 -0.78315363533E+03  0.11825333645E+04  0.14898084578E+04  0.00000000000E+00 0. -1.
         -1    1    3    3    0  502 -0.37793290040E+02 -0.27529164184E+02  0.85713179663E+02  0.97636759577E+02  0.00000000000E+00 0.  1.
         11    1    5    5    0    0  0.25448773852E+03  0.43441848028E+03 -0.12238431210E+03  0.51813255535E+03  0.00000000000E+00 0.  1.
        -11    1    5    5    0    0  0.23125444996E+03  0.55395790117E+03 -0.77311446482E+02  0.60524791338E+03  0.00000000000E+00 0. -1.
          2    1    6    6  503    0  0.86342502568E+01 -0.26377198211E+01 -0.30779818197E+02  0.32076549871E+02  0.00000000000E+00 0. -1.
         -2    1    6    6    0  503 -0.71642902652E+00 -0.17505586212E+03 -0.57948931121E+02  0.18439942177E+03  0.00000000000E+00 0.  1.
<mgrwt>
<rscale>  0 0.27584495E+04</rscale>
<asrwt>0</asrwt>
<pdfrwt beam="1">  1        2 0.30054798E+00 0.27584495E+04</pdfrwt>
<pdfrwt beam="2">  1       -1 0.14980613E+00 0.27584495E+04</pdfrwt>
<totfact> 0.24661637E+00</totfact>
</mgrwt>
</event>
<event>
12    6  0.1510140E-007  0.1247051E+04  0.7818608E-02  0.9072641E-01
         -1   -1    0    0    0  501 -0.00000000000E+00  0.00000000000E+00  0.16396502793E+03  0.16396502793E+03  0.00000000000E+00 0.  1.
          2   -1    0    0  501    0  0.00000000000E+00 -0.00000000000E+00 -0.23711403402E+04  0.23711403402E+04  0.00000000000E+00 0. -1.
         24    2    1    2    0    0  0.24391564233E+03 -0.53323868584E+02 -0.67809061676E+03  0.72688905561E+03  0.78883072291E+02 0.  0.
        254    2    1    2    0    0 -0.24391564233E+03  0.53323868584E+02 -0.15290846955E+04  0.18082163125E+04  0.93231322595E+03 0.  0.
         23    2    4    4    0    0  0.19991232923E+03 -0.26430710148E+02 -0.10953271801E+02  0.22147422976E+03  0.90924905653E+02 0.  0.
         23    2    4    4    0    0 -0.44382797157E+03  0.79754578732E+02 -0.15181314237E+04  0.15867420827E+04  0.98404046476E+02 0.  0.
          4    1    3    3  502    0  0.97295045072E+02 -0.21665166279E+02 -0.16946729326E+03  0.19660841465E+03  0.00000000000E+00 0. -1.
         -3    1    3    3    0  502  0.14662059726E+03 -0.31658702305E+02 -0.50862332350E+03  0.53028064096E+03  0.00000000000E+00 0.  1.
         11    1    5    5    0    0  0.16229669476E+03 -0.29893140021E+02 -0.44535292423E+02  0.17093042217E+03  0.00000000000E+00 0. -1.
        -11    1    5    5    0    0  0.37615634470E+02  0.34624298735E+01  0.33582020622E+02  0.50543807596E+02  0.00000000000E+00 0.  1.
          3    1    6    6  503    0 -0.62213145084E+02  0.94956405239E+01 -0.11674790858E+03  0.13262999950E+03  0.00000000000E+00 0. -1.
         -3    1    6    6    0  503 -0.38161482648E+03  0.70258938208E+02 -0.14013835151E+04  0.14541120832E+04  0.00000000000E+00 0.  1.
<mgrwt>
<rscale>  0 0.12470511E+04</rscale>
<asrwt>0</asrwt>
<pdfrwt beam="1">  1        2 0.36479079E+00 0.12470511E+04</pdfrwt>
<pdfrwt beam="2">  1       -1 0.25225391E-01 0.12470511E+04</pdfrwt>
<totfact> 0.64083080E+01</totfact>
</mgrwt>
</event>
<event>
12    6  0.1510140E-007  0.1599504E+04  0.7818608E-02  0.8820853E-01
          2   -1    0    0  501    0  0.00000000000E+00  0.00000000000E+00  0.22248192886E+04  0.22248192886E+04  0.00000000000E+00 0. -1.
         -1   -1    0    0    0  501 -0.00000000000E+00 -0.00000000000E+00 -0.28748559188E+03  0.28748559188E+03  0.00000000000E+00 0.  1.
         24    2    1    2    0    0  0.21694575741E+03 -0.41860517765E+03  0.23697572564E+03  0.53360741074E+03  0.79269274258E+02 0.  0.
        254    2    1    2    0    0 -0.21694575741E+03  0.41860517765E+03  0.17003579711E+04  0.19786974697E+04  0.89539415372E+03 0.  0.
         23    2    4    4    0    0  0.32000346867E+03  0.21653502609E+03  0.44645866956E+03  0.59681291935E+03  0.87009652269E+02 0.  0.
         23    2    4    4    0    0 -0.53694922608E+03  0.20207015156E+03  0.12538993015E+04  0.13818845504E+04  0.90524221733E+02 0.  0.
          4    1    3    3  502    0  0.10626391206E+03 -0.12399517759E+03  0.85740223136E+02  0.18444025845E+03  0.00000000000E+00 0. -1.
         -1    1    3    3    0  502  0.11068184535E+03 -0.29461000006E+03  0.15123550251E+03  0.34916715229E+03  0.00000000000E+00 0.  1.
         11    1    5    5    0    0  0.21990379983E+03  0.10460438486E+03  0.24379108998E+03  0.34457779103E+03  0.00000000000E+00 0. -1.
        -11    1    5    5    0    0  0.10009966884E+03  0.11193064123E+03  0.20266757958E+03  0.25223512832E+03  0.00000000000E+00 0.  1.
          3    1    6    6  503    0 -0.42924503505E+03  0.14528622822E+03  0.90046332264E+03  0.10080642756E+04  0.00000000000E+00 0. -1.
         -3    1    6    6    0  503 -0.10770419103E+03  0.56783923340E+02  0.35343597886E+03  0.37382027482E+03  0.00000000000E+00 0.  1.
<mgrwt>
<rscale>  0 0.15995043E+04</rscale>
<asrwt>0</asrwt>
<pdfrwt beam="1">  1        2 0.34227988E+00 0.15995043E+04</pdfrwt>
<pdfrwt beam="2">  1       -1 0.44228554E-01 0.15995043E+04</pdfrwt>
<totfact> 0.27646651E+01</totfact>
</mgrwt>
</event>
<event>
12    6  0.1510140E-007  0.2129565E+04  0.7818608E-02  0.8548330E-01
         -1   -1    0    0    0  501 -0.00000000000E+00  0.00000000000E+00  0.58891568054E+03  0.58891568054E+03  0.00000000000E+00 0.  1.
          2   -1    0    0  501    0  0.00000000000E+00 -0.00000000000E+00 -0.19251687081E+04  0.19251687081E+04  0.00000000000E+00 0. -1.
         24    2    1    2    0    0  0.32714569597E+03  0.25464165715E+02  0.40959975381E+03  0.53163125908E+03  0.84776808027E+02 0.  0.
        254    2    1    2    0    0 -0.32714569597E+03 -0.25464165715E+02 -0.17458527814E+04  0.19824531296E+04  0.88002599201E+03 0.  0.
         23    2    4    4    0    0  0.11953839573E+03 -0.10826187387E+03 -0.13798474141E+04  0.13921625508E+04  0.90153314395E+02 0.  0.
         23    2    4    4    0    0 -0.44668409170E+03  0.82797708154E+02 -0.36600536722E+03  0.59029057878E+03  0.90005001583E+02 0.  0.
          4    1    3    3  502    0  0.54428246437E+02  0.34752550239E+02  0.98892557745E+02  0.11810974446E+03  0.00000000000E+00 0. -1.
         -3    1    3    3    0  502  0.27271744954E+03 -0.92883845241E+01  0.31070719606E+03  0.41352151462E+03  0.00000000000E+00 0.  1.
         11    1    5    5    0    0  0.62306078384E+02 -0.59668947826E+02 -0.10649523946E+04  0.10684409359E+04  0.00000000000E+00 0.  1.
        -11    1    5    5    0    0  0.57232317345E+02 -0.48592926043E+02 -0.31489501953E+03  0.32372161487E+03  0.00000000000E+00 0. -1.
          1    1    6    6  503    0 -0.23475549203E+03  0.82882145732E+02 -0.22644840671E+03  0.33653896062E+03  0.00000000000E+00 0. -1.
         -1    1    6    6    0  503 -0.21192859967E+03 -0.84437577141E-01 -0.13955696051E+03  0.25375161815E+03  0.00000000000E+00 0.  1.
<mgrwt>
<rscale>  0 0.21295653E+04</rscale>
<asrwt>0</asrwt>
<pdfrwt beam="1">  1        2 0.29617980E+00 0.21295653E+04</pdfrwt>
<pdfrwt beam="2">  1       -1 0.90602411E-01 0.21295653E+04</pdfrwt>
<totfact> 0.91591484E+00</totfact>
</mgrwt>
</event>
<event>
12    6  0.1510140E-007  0.1833410E+04  0.7818608E-02  0.8688731E-01
         -1   -1    0    0    0  501 -0.00000000000E+00  0.00000000000E+00  0.11263332244E+04  0.11263332244E+04  0.00000000000E+00 0.  1.
          2   -1    0    0  501    0  0.00000000000E+00 -0.00000000000E+00 -0.74609192990E+03  0.74609192990E+03  0.00000000000E+00 0. -1.
         24    2    1    2    0    0  0.10801642225E+03 -0.64300162714E+03  0.36117878064E+03  0.74982222188E+03  0.81637080214E+02 0.  0.
        254    2    1    2    0    0 -0.10801642225E+03  0.64300162714E+03  0.19062513856E+02  0.11226029324E+04  0.91364945381E+03 0.  0.
         23    2    4    4    0    0 -0.84534921805E+02  0.30649570075E+03  0.45574949482E+03  0.56318841048E+03  0.91585021097E+02 0.  0.
         23    2    4    4    0    0 -0.23481500447E+02  0.33650592639E+03 -0.43668698097E+03  0.55941452193E+03  0.91986241565E+02 0.  0.
          4    1    3    3  502    0  0.14958214626E+02 -0.10164281068E+03  0.24723365369E+02  0.10567049703E+03  0.00000000000E+00 0. -1.
         -3    1    3    3    0  502  0.93058207626E+02 -0.54135881646E+03  0.33645541527E+03  0.64415172485E+03  0.00000000000E+00 0.  1.
         11    1    5    5    0    0 -0.10206065396E+03  0.28453618567E+03  0.40790290559E+03  0.50770266735E+03  0.00000000000E+00 0. -1.
        -11    1    5    5    0    0  0.17525732157E+02  0.21959515079E+02  0.47846589236E+02  0.55485743139E+02  0.00000000000E+00 0.  1.
          2    1    6    6  503    0 -0.43036042180E+02  0.24304880623E+03 -0.36223773949E+03  0.43833891345E+03  0.00000000000E+00 0. -1.
         -2    1    6    6    0  503  0.19554541734E+02  0.93457120157E+02 -0.74449241480E+02  0.12107560847E+03  0.00000000000E+00 0.  1.
<mgrwt>
<rscale>  0 0.18334101E+04</rscale>
<asrwt>0</asrwt>
<pdfrwt beam="1">  1        2 0.11478337E+00 0.18334101E+04</pdfrwt>
<pdfrwt beam="2">  1       -1 0.17328204E+00 0.18334101E+04</pdfrwt>
<totfact> 0.94477167E+00</totfact>
</mgrwt>
</event>
<event>
12    6  0.1510140E-007  0.1121330E+04  0.7818608E-02  0.9184648E-01
          2   -1    0    0  501    0  0.00000000000E+00  0.00000000000E+00  0.12913466146E+04  0.12913466146E+04  0.00000000000E+00 0. -1.
         -1   -1    0    0    0  501 -0.00000000000E+00 -0.00000000000E+00 -0.24342437582E+03  0.24342437582E+03  0.00000000000E+00 0.  1.
         24    2    1    2    0    0  0.14426005292E+03 -0.81044921922E+02  0.12253489636E+03  0.22060091106E+03  0.79187870903E+02 0.  0.
        254    2    1    2    0    0 -0.14426005292E+03  0.81044921922E+02  0.92538734246E+03  0.13141700794E+04  0.91832566214E+03 0.  0.
         23    2    4    4    0    0  0.18786410353E+03 -0.43928722245E+02 -0.93404000142E+02  0.23163180248E+03  0.87785708649E+02 0.  0.
         23    2    4    4    0    0 -0.33212415646E+03  0.12497364417E+03  0.10187913426E+04  0.10825382769E+04  0.89601641642E+02 0.  0.
          4    1    3    3  502    0  0.75985118663E+01 -0.39637433260E+02  0.32188885219E+02  0.51623520120E+02  0.00000000000E+00 0. -1.
         -3    1    3    3    0  502  0.13666154106E+03 -0.41407488662E+02  0.90346011137E+02  0.16897739094E+03  0.00000000000E+00 0.  1.
         11    1    5    5    0    0  0.33327939562E+02  0.25895666645E+02 -0.14845718286E+02  0.44740724825E+02  0.00000000000E+00 0. -1.
        -11    1    5    5    0    0  0.15453616397E+03 -0.69824388890E+02 -0.78558281857E+02  0.18689107765E+03  0.00000000000E+00 0.  1.
          1    1    6    6  503    0 -0.11236224300E+03  0.20674398804E+02  0.44248583556E+03  0.45699717624E+03  0.00000000000E+00 0. -1.
         -1    1    6    6    0  503 -0.21976191345E+03  0.10429924536E+03  0.57630550704E+03  0.62554110067E+03  0.00000000000E+00 0.  1.
<mgrwt>
<rscale>  0 0.11213300E+04</rscale>
<asrwt>0</asrwt>
<pdfrwt beam="1">  1        2 0.19866871E+00 0.11213300E+04</pdfrwt>
<pdfrwt beam="2">  1       -1 0.37449905E-01 0.11213300E+04</pdfrwt>
<totfact> 0.12971054E+02</totfact>
</mgrwt>
</event>
<event>
12    6  0.1510140E-007  0.3211596E+04  0.7818608E-02  0.8185761E-01
         -1   -1    0    0    0  501 -0.00000000000E+00  0.00000000000E+00  0.72958956081E+03  0.72958956081E+03  0.00000000000E+00 0.  1.
          2   -1    0    0  501    0  0.00000000000E+00 -0.00000000000E+00 -0.35342992678E+04  0.35342992678E+04  0.00000000000E+00 0. -1.
         24    2    1    2    0    0  0.69011512514E+03 -0.12873846160E+04 -0.15866851308E+04  0.21582077733E+04  0.81688756707E+02 0.  0.
        254    2    1    2    0    0 -0.69011512514E+03  0.12873846160E+04 -0.12180245762E+04  0.21056810553E+04  0.90370946831E+03 0.  0.
         23    2    4    4    0    0 -0.55013885447E+03  0.21901579238E+03 -0.65560388434E+03  0.88692893018E+03  0.78776884369E+02 0.  0.
         23    2    4    4    0    0 -0.13997627067E+03  0.10683688236E+04 -0.56242069185E+03  0.12187521251E+04  0.89634861149E+02 0.  0.
          2    1    3    3  502    0  0.61801718625E+03 -0.11492680301E+04 -0.13783015337E+04  0.18980193269E+04  0.00000000000E+00 0. -1.
         -1    1    3    3    0  502  0.72097938889E+02 -0.13811658583E+03 -0.20838359713E+03  0.26018844638E+03  0.00000000000E+00 0.  1.
         11    1    5    5    0    0 -0.16560470153E+03  0.10106280603E+03 -0.18826445267E+03  0.27033703422E+03  0.00000000000E+00 0. -1.
        -11    1    5    5    0    0 -0.38453415294E+03  0.11795298636E+03 -0.46733943167E+03  0.61659189596E+03  0.00000000000E+00 0.  1.
          1    1    6    6  503    0 -0.22617513592E+02  0.39598570831E+03 -0.17088613853E+03  0.43187765102E+03  0.00000000000E+00 0. -1.
         -1    1    6    6    0  503 -0.11735875708E+03  0.67238311529E+03 -0.39153455332E+03  0.78687447413E+03  0.00000000000E+00 0.  1.
<mgrwt>
<rscale>  0 0.32115964E+04</rscale>
<asrwt>0</asrwt>
<pdfrwt beam="1">  1        2 0.54373834E+00 0.32115964E+04</pdfrwt>
<pdfrwt beam="2">  1       -1 0.11224455E+00 0.32115964E+04</pdfrwt>
<totfact> 0.53369266E-01</totfact>
</mgrwt>
</event>
<event>
12    6  0.1510140E-007  0.1063595E+04  0.7818608E-02  0.9241420E-01
         -1   -1    0    0    0  501 -0.00000000000E+00  0.00000000000E+00  0.70152879586E+03  0.70152879586E+03  0.00000000000E+00 0.  1.
          2   -1    0    0  501    0  0.00000000000E+00 -0.00000000000E+00 -0.40313179266E+03  0.40313179266E+03  0.00000000000E+00 0. -1.
         24    2    1    2    0    0 -0.37333853076E+02 -0.46284022805E+02 -0.85939549460E+02  0.13019267190E+03  0.77643404761E+02 0.  0.
        254    2    1    2    0    0  0.37333853076E+02  0.46284022805E+02  0.38433655267E+03  0.97446791662E+03  0.89349712224E+03 0.  0.
         23    2    4    4    0    0  0.33088473715E+03 -0.12445379272E+03  0.48527396840E+03  0.60840746115E+03  0.98465011908E+02 0.  0.
         23    2    4    4    0    0 -0.29355088407E+03  0.17073781553E+03 -0.10093741573E+03  0.36606045547E+03  0.92132361161E+02 0.  0.
          4    1    3    3  502    0 -0.41212678503E+02 -0.99647067243E+01 -0.83423532169E+02  0.93580264848E+02  0.00000000000E+00 0. -1.
         -3    1    3    3    0  502  0.38788254266E+01 -0.36319316080E+02 -0.25160172917E+01  0.36612407053E+02  0.00000000000E+00 0.  1.
         11    1    5    5    0    0  0.71621160601E+02 -0.66429747043E+02  0.94815805230E+02  0.13613426776E+03  0.00000000000E+00 0. -1.
        -11    1    5    5    0    0  0.25926357655E+03 -0.58024045680E+02  0.39045816317E+03  0.47227319339E+03  0.00000000000E+00 0.  1.
          2    1    6    6  503    0 -0.12845390384E+03  0.12557739568E+03 -0.65927898764E+02  0.19135458070E+03  0.00000000000E+00 0. -1.
         -2    1    6    6    0  503 -0.16509698023E+03  0.45160419848E+02 -0.35009516970E+02  0.17470587478E+03  0.00000000000E+00 0.  1.
<mgrwt>
<rscale>  0 0.10635950E+04</rscale>
<asrwt>0</asrwt>
<pdfrwt beam="1">  1        2 0.62020276E-01 0.10635950E+04</pdfrwt>
<pdfrwt beam="2">  1       -1 0.10792751E+00 0.10635950E+04</pdfrwt>
<totfact> 0.71690289E+01</totfact>
</mgrwt>
</event>
<event>
12    6  0.1510140E-007  0.1095936E+04  0.7818608E-02  0.9209162E-01
          2   -1    0    0  501    0  0.00000000000E+00  0.00000000000E+00  0.26301339825E+04  0.26301339825E+04  0.00000000000E+00 0. -1.
         -1   -1    0    0    0  501 -0.00000000000E+00 -0.00000000000E+00 -0.11416480697E+03  0.11416480697E+03  0.00000000000E+00 0.  1.
         24    2    1    2    0    0  0.59991759908E+02 -0.16799399398E+01  0.81168325191E+03  0.81774294969E+03  0.79195939788E+02 0.  0.
        254    2    1    2    0    0 -0.59991759908E+02  0.16799399398E+01  0.17042859236E+04  0.19265558398E+04  0.89633981329E+03 0.  0.
         23    2    4    4    0    0  0.19356006466E+03  0.92845948186E+02  0.38953589274E+02  0.23706833726E+03  0.92726186640E+02 0.  0.
         23    2    4    4    0    0 -0.25355182456E+03 -0.91166008246E+02  0.16653323344E+04  0.16894875025E+04  0.91850250725E+02 0.  0.
          4    1    3    3  502    0  0.35255264295E+01 -0.68565009662E+01  0.54698931164E+03  0.54704364359E+03  0.00000000000E+00 0. -1.
         -3    1    3    3    0  502  0.56466233478E+02  0.51765610264E+01  0.26469394026E+03  0.27069930609E+03  0.00000000000E+00 0.  1.
         11    1    5    5    0    0  0.13590452540E+03  0.92213466828E+02 -0.53986267794E+01  0.16432440069E+03  0.00000000000E+00 0. -1.
        -11    1    5    5    0    0  0.57655539252E+02  0.63248135735E+00  0.44352216053E+02  0.72743936571E+02  0.00000000000E+00 0.  1.
          2    1    6    6  503    0 -0.24858752884E+03 -0.79923657114E+02  0.14174574764E+04  0.14413081724E+04  0.00000000000E+00 0. -1.
         -2    1    6    6    0  503 -0.49642957229E+01 -0.11242351132E+02  0.24787485800E+03  0.24817933016E+03  0.00000000000E+00 0.  1.
<mgrwt>
<rscale>  0 0.10959357E+04</rscale>
<asrwt>0</asrwt>
<pdfrwt beam="1">  1        2 0.40463595E+00 0.10959357E+04</pdfrwt>
<pdfrwt beam="2">  1       -1 0.17563818E-01 0.10959357E+04</pdfrwt>
<totfact> 0.84865130E+01</totfact>
</mgrwt>
</event>
<event>
12    6  0.1510140E-007  0.2154550E+04  0.7818608E-02  0.8537587E-01
         -1   -1    0    0    0  501 -0.00000000000E+00  0.00000000000E+00  0.64659430971E+03  0.64659430971E+03  0.00000000000E+00 0.  1.
          2   -1    0    0  501    0  0.00000000000E+00 -0.00000000000E+00 -0.17948213460E+04  0.17948213460E+04  0.00000000000E+00 0. -1.
         24    2    1    2    0    0  0.56350795311E+03  0.12863080366E+03  0.29095859562E+03  0.65191587616E+03  0.79058891689E+02 0.  0.
        254    2    1    2    0    0 -0.56350795311E+03 -0.12863080366E+03 -0.14391856319E+04  0.17894997795E+04  0.89273012776E+03 0.  0.
         23    2    4    4    0    0 -0.35807305514E+03  0.35904440678E+03 -0.82808667544E+03  0.97539020631E+03  0.92354283451E+02 0.  0.
         23    2    4    4    0    0 -0.20543489797E+03 -0.48767521044E+03 -0.61109895643E+03  0.81410957319E+03  0.96446121903E+02 0.  0.
          2    1    3    3  502    0  0.52619163273E+01  0.10935667823E+02  0.16858608198E+01  0.12252294515E+02  0.00000000000E+00 0. -1.
         -1    1    3    3    0  502  0.55824603678E+03  0.11769513584E+03  0.28927273480E+03  0.63966358165E+03  0.00000000000E+00 0.  1.
         11    1    5    5    0    0 -0.18434335411E+03  0.20579313330E+03 -0.36693555881E+03  0.45932013916E+03  0.00000000000E+00 0. -1.
        -11    1    5    5    0    0 -0.17372970103E+03  0.15325127348E+03 -0.46115111662E+03  0.51607006715E+03  0.00000000000E+00 0.  1.
          4    1    6    6  503    0 -0.10285214195E+03 -0.25324574900E+03 -0.38805028671E+03  0.47465250185E+03  0.00000000000E+00 0. -1.
         -4    1    6    6    0  503 -0.10258275603E+03 -0.23442946144E+03 -0.22304866972E+03  0.33945707135E+03  0.00000000000E+00 0.  1.
<mgrwt>
<rscale>  0 0.21545499E+04</rscale>
<asrwt>0</asrwt>
<pdfrwt beam="1">  1        2 0.27612636E+00 0.21545499E+04</pdfrwt>
<pdfrwt beam="2">  1       -1 0.99476047E-01 0.21545499E+04</pdfrwt>
<totfact> 0.87526676E+00</totfact>
</mgrwt>
</event>
<event>
12    6  0.1510140E-007  0.1828907E+04  0.7818608E-02  0.8691077E-01
          2   -1    0    0  501    0  0.00000000000E+00  0.00000000000E+00  0.13058915448E+04  0.13058915448E+04  0.00000000000E+00 0. -1.
         -1   -1    0    0    0  501 -0.00000000000E+00 -0.00000000000E+00 -0.64034788367E+03  0.64034788367E+03  0.00000000000E+00 0.  1.
         24    2    1    2    0    0  0.24622901637E+03 -0.27842008068E+03  0.87521533555E+03  0.95611497407E+03  0.10003744414E+03 0.  0.
        254    2    1    2    0    0 -0.24622901637E+03  0.27842008068E+03 -0.20967167437E+03  0.99012445446E+03  0.89344152268E+03 0.  0.
         23    2    4    4    0    0  0.22151961359E+03  0.23873529584E+03  0.17120901975E+03  0.37868295169E+03  0.89569909991E+02 0.  0.
         23    2    4    4    0    0 -0.46774862996E+03  0.39684784837E+02 -0.38088069412E+03  0.61144150276E+03  0.91798394165E+02 0.  0.
          4    1    3    3  502    0  0.23081878528E+03 -0.23745563041E+03  0.82783822993E+03  0.89161573729E+03  0.00000000000E+00 0. -1.
         -3    1    3    3    0  502  0.15410231086E+02 -0.40964450265E+02  0.47377105614E+02  0.64499236770E+02  0.00000000000E+00 0.  1.
         11    1    5    5    0    0  0.11335827349E+03  0.10009067380E+03  0.12672206955E+03  0.19729856578E+03  0.00000000000E+00 0. -1.
        -11    1    5    5    0    0  0.10816134010E+03  0.13864462204E+03  0.44486950199E+02  0.18138438591E+03  0.00000000000E+00 0.  1.
          1    1    6    6  503    0 -0.21835672039E+03  0.54500971603E+02 -0.21716233891E+03  0.31274509538E+03  0.00000000000E+00 0. -1.
         -1    1    6    6    0  503 -0.24939190958E+03 -0.14816186766E+02 -0.16371835521E+03  0.29869640739E+03  0.00000000000E+00 0.  1.
<mgrwt>
<rscale>  0 0.18289067E+04</rscale>
<asrwt>0</asrwt>
<pdfrwt beam="1">  1        2 0.20090639E+00 0.18289067E+04</pdfrwt>
<pdfrwt beam="2">  1       -1 0.98515059E-01 0.18289067E+04</pdfrwt>
<totfact> 0.17368859E+01</totfact>
</mgrwt>
</event>
<event>
12    6  0.1510140E-007  0.2424260E+04  0.7818608E-02  0.8430477E-01
          2   -1    0    0  501    0  0.00000000000E+00  0.00000000000E+00  0.89587942020E+03  0.89587942020E+03  0.00000000000E+00 0. -1.
         -1   -1    0    0    0  501 -0.00000000000E+00 -0.00000000000E+00 -0.16400186579E+04  0.16400186579E+04  0.00000000000E+00 0.  1.
         24    2    1    2    0    0  0.17303488814E+03 -0.10045687066E+04 -0.85381628468E+02  0.10257546910E+04  0.76048043123E+02 0.  0.
        254    2    1    2    0    0 -0.17303488814E+03  0.10045687066E+04 -0.65875760922E+03  0.15101433871E+04  0.89859451531E+03 0.  0.
         23    2    4    4    0    0 -0.38443192089E+02  0.80734274621E+03 -0.85999967878E+03  0.11836643160E+04  0.90452067926E+02 0.  0.
         23    2    4    4    0    0 -0.13459169605E+03  0.19722596040E+03  0.20124206956E+03  0.32647907106E+03  0.95274388863E+02 0.  0.
          4    1    3    3  502    0  0.15430696910E+03 -0.79841525794E+03 -0.93796867648E+02  0.81858134428E+03  0.00000000000E+00 0. -1.
         -3    1    3    3    0  502  0.18727919045E+02 -0.20615344867E+03  0.84152391802E+01  0.20717334675E+03  0.00000000000E+00 0.  1.
         11    1    5    5    0    0 -0.38153198768E+02  0.19462855008E+03 -0.24942381033E+03  0.31866624585E+03  0.00000000000E+00 0. -1.
        -11    1    5    5    0    0 -0.28999332195E+00  0.61271419613E+03 -0.61057586846E+03  0.86499807016E+03  0.00000000000E+00 0.  1.
          3    1    6    6  503    0 -0.67549162960E+02  0.14982295005E+03  0.87473698611E+02  0.18617586773E+03  0.00000000000E+00 0. -1.
         -3    1    6    6    0  503 -0.67042533094E+02  0.47403010358E+02  0.11376837095E+03  0.14030320333E+03  0.00000000000E+00 0.  1.
<mgrwt>
<rscale>  0 0.24242599E+04</rscale>
<asrwt>0</asrwt>
<pdfrwt beam="1">  1        2 0.13782760E+00 0.24242599E+04</pdfrwt>
<pdfrwt beam="2">  1       -1 0.25231056E+00 0.24242599E+04</pdfrwt>
<totfact> 0.20337514E+00</totfact>
</mgrwt>
</event>
<event>
12    6  0.1510140E-007  0.1581786E+04  0.7818608E-02  0.8831816E-01
          2   -1    0    0  501    0  0.00000000000E+00  0.00000000000E+00  0.70528542645E+03  0.70528542645E+03  0.00000000000E+00 0. -1.
         -1   -1    0    0    0  501 -0.00000000000E+00 -0.00000000000E+00 -0.88689198784E+03  0.88689198784E+03  0.00000000000E+00 0.  1.
         24    2    1    2    0    0 -0.31658276950E+03  0.87857412470E+02 -0.48058713505E+03  0.58909571328E+03  0.90145383480E+02 0.  0.
        254    2    1    2    0    0  0.31658276950E+03 -0.87857412470E+02  0.29898057366E+03  0.10030817010E+04  0.89935529163E+03 0.  0.
         23    2    4    4    0    0 -0.35194195494E+00  0.22546595011E+03 -0.20968111346E+03  0.32119038725E+03  0.91444392936E+02 0.  0.
         23    2    4    4    0    0  0.31693471145E+03 -0.31332336258E+03  0.50866168712E+03  0.68189131375E+03  0.87292101415E+02 0.  0.
          2    1    3    3  502    0 -0.14454433178E+03  0.67314349256E+02 -0.16745725084E+03  0.23122762881E+03  0.00000000000E+00 0. -1.
         -1    1    3    3    0  502 -0.17203843771E+03  0.20543063214E+02 -0.31312988422E+03  0.35786808448E+03  0.00000000000E+00 0.  1.
         11    1    5    5    0    0  0.34978520236E+02  0.18569914735E+03 -0.15015281989E+03  0.24135770037E+03  0.00000000000E+00 0. -1.
        -11    1    5    5    0    0 -0.35330462191E+02  0.39766802756E+02 -0.59528293562E+02  0.79832686880E+02  0.00000000000E+00 0.  1.
          4    1    6    6  503    0  0.31702043679E+03 -0.28737430362E+03  0.47350334477E+03  0.63819383046E+03  0.00000000000E+00 0. -1.
         -4    1    6    6    0  503 -0.85725341257E-01 -0.25949058963E+02  0.35158342345E+02  0.43697483295E+02  0.00000000000E+00 0.  1.
<mgrwt>
<rscale>  0 0.15817863E+04</rscale>
<asrwt>0</asrwt>
<pdfrwt beam="1">  1        2 0.10850545E+00 0.15817863E+04</pdfrwt>
<pdfrwt beam="2">  1       -1 0.13644492E+00 0.15817863E+04</pdfrwt>
<totfact> 0.19951339E+01</totfact>
</mgrwt>
</event>
<event>
12    6  0.1510140E-007  0.1258219E+04  0.7818608E-02  0.9063370E-01
         -1   -1    0    0    0  501 -0.00000000000E+00  0.00000000000E+00  0.91367707030E+02  0.91367707030E+02  0.00000000000E+00 0.  1.
          2   -1    0    0  501    0  0.00000000000E+00 -0.00000000000E+00 -0.43317118790E+04  0.43317118790E+04  0.00000000000E+00 0. -1.
         24    2    1    2    0    0  0.27887199764E+02  0.19244292810E+03 -0.31060043866E+03  0.37469594168E+03  0.78182093431E+02 0.  0.
        254    2    1    2    0    0 -0.27887199764E+02 -0.19244292810E+03 -0.39297437333E+04  0.40483836444E+04  0.95326404834E+03 0.  0.
         23    2    4    4    0    0  0.33003139111E+03 -0.13132810130E+03 -0.32654578551E+04  0.32860430080E+04  0.93251582270E+02 0.  0.
         23    2    4    4    0    0 -0.35791859087E+03 -0.61114826792E+02 -0.66428587821E+03  0.76234063636E+03  0.89703835545E+02 0.  0.
          2    1    3    3  502    0 -0.52891979375E+01  0.32453569862E+02 -0.11613240918E+03  0.12069774759E+03  0.00000000000E+00 0. -1.
         -1    1    3    3    0  502  0.33176397702E+02  0.15998935823E+03 -0.19446802949E+03  0.25399819410E+03  0.00000000000E+00 0.  1.
         11    1    5    5    0    0  0.56487690502E+02 -0.59759935302E+02 -0.59440308305E+03  0.60006427504E+03  0.00000000000E+00 0. -1.
        -11    1    5    5    0    0  0.27354370061E+03 -0.71568166001E+02 -0.26710547721E+04  0.26859787330E+04  0.00000000000E+00 0.  1.
          2    1    6    6  503    0 -0.14132675965E+03  0.50401582497E+01 -0.32477220524E+03  0.35422541055E+03  0.00000000000E+00 0. -1.
         -2    1    6    6    0  503 -0.21659183123E+03 -0.66154985042E+02 -0.33951367297E+03  0.40811522580E+03  0.00000000000E+00 0.  1.
<mgrwt>
<rscale>  0 0.12582187E+04</rscale>
<asrwt>0</asrwt>
<pdfrwt beam="1">  1        2 0.66641722E+00 0.12582187E+04</pdfrwt>
<pdfrwt beam="2">  1       -1 0.14056570E-01 0.12582187E+04</pdfrwt>
<totfact> 0.76131844E+00</totfact>
</mgrwt>
</event>
<event>
12    6  0.1510140E-007  0.2632266E+04  0.7818608E-02  0.8357323E-01
          2   -1    0    0  501    0  0.00000000000E+00  0.00000000000E+00  0.91970549470E+03  0.91970549470E+03  0.00000000000E+00 0. -1.
         -1   -1    0    0    0  501 -0.00000000000E+00 -0.00000000000E+00 -0.18834349436E+04  0.18834349436E+04  0.00000000000E+00 0.  1.
         24    2    1    2    0    0  0.79811085251E+03  0.80793047470E+03 -0.68565961356E+03  0.13290439772E+04  0.80599024269E+02 0.  0.
        254    2    1    2    0    0 -0.79811085251E+03 -0.80793047470E+03 -0.27806983536E+03  0.14740964612E+04  0.89772209430E+03 0.  0.
         23    2    4    4    0    0 -0.97797464613E+03 -0.74009390477E+03 -0.19854400097E+03  0.12455384136E+04  0.88163615205E+02 0.  0.
         23    2    4    4    0    0  0.17986379361E+03 -0.67836569929E+02 -0.79525834394E+02  0.22855804757E+03  0.94665929983E+02 0.  0.
          2    1    3    3  502    0  0.44410807943E+03  0.47146737241E+03 -0.43367557396E+03  0.77947929602E+03  0.00000000000E+00 0. -1.
         -1    1    3    3    0  502  0.35400277308E+03  0.33646310229E+03 -0.25198403960E+03  0.54956468114E+03  0.00000000000E+00 0.  1.
         11    1    5    5    0    0 -0.23975448347E+03 -0.19481764795E+03 -0.12978235051E+02  0.30919987529E+03  0.00000000000E+00 0.  1.
        -11    1    5    5    0    0 -0.73822016266E+03 -0.54527625682E+03 -0.18556576592E+03  0.93633853829E+03  0.00000000000E+00 0. -1.
          3    1    6    6  503    0  0.11253340196E+03 -0.57927021810E+02 -0.36319139913E+01  0.12661949775E+03  0.00000000000E+00 0. -1.
         -3    1    6    6    0  503  0.67330391656E+02 -0.99095481187E+01 -0.75893920403E+02  0.10193854982E+03  0.00000000000E+00 0.  1.
<mgrwt>
<rscale>  0 0.26322655E+04</rscale>
<asrwt>0</asrwt>
<pdfrwt beam="1">  1        2 0.14149315E+00 0.26322655E+04</pdfrwt>
<pdfrwt beam="2">  1       -1 0.28975922E+00 0.26322655E+04</pdfrwt>
<totfact> 0.11006362E+00</totfact>
</mgrwt>
</event>
<event>
12    6  0.1510140E-007  0.1527041E+04  0.7818608E-02  0.8866667E-01
         -1   -1    0    0    0  501 -0.00000000000E+00  0.00000000000E+00  0.36995111618E+03  0.36995111618E+03  0.00000000000E+00 0.  1.
          2   -1    0    0  501    0  0.00000000000E+00 -0.00000000000E+00 -0.15757863515E+04  0.15757863515E+04  0.00000000000E+00 0. -1.
         24    2    1    2    0    0 -0.11570855418E+02 -0.56611305536E+02  0.23077445728E+03  0.25076475781E+03  0.79293057836E+02 0.  0.
        254    2    1    2    0    0  0.11570855418E+02  0.56611305536E+02 -0.14366096926E+04  0.16949727099E+04  0.89763375256E+03 0.  0.
         23    2    4    4    0    0  0.42456119279E+03 -0.59577605737E+02 -0.90793668700E+03  0.10082533773E+04  0.91783156340E+02 0.  0.
         23    2    4    4    0    0 -0.41299033737E+03  0.11618891127E+03 -0.52867300559E+03  0.68671933252E+03  0.89595831145E+02 0.  0.
          2    1    3    3  502    0 -0.15406208730E+01  0.84084837515E+01 -0.20775830864E+01  0.87972986282E+01  0.00000000000E+00 0. -1.
         -1    1    3    3    0  502 -0.10030234545E+02 -0.65019789288E+02  0.23285204036E+03  0.24196745919E+03  0.00000000000E+00 0.  1.
         11    1    5    5    0    0  0.13414634558E+03  0.13577309407E+02 -0.22120150227E+03  0.25905538012E+03  0.00000000000E+00 0. -1.
        -11    1    5    5    0    0  0.29041484721E+03 -0.73154915144E+02 -0.68673518473E+03  0.74919799722E+03  0.00000000000E+00 0.  1.
          3    1    6    6  503    0 -0.13637489235E+03  0.16911663066E+02 -0.22842943915E+03  0.26657855181E+03  0.00000000000E+00 0. -1.
         -3    1    6    6    0  503 -0.27661544502E+03  0.99277248208E+02 -0.30024356643E+03  0.42014078071E+03  0.00000000000E+00 0.  1.
<mgrwt>
<rscale>  0 0.15270415E+04</rscale>
<asrwt>0</asrwt>
<pdfrwt beam="1">  1        2 0.24242867E+00 0.15270415E+04</pdfrwt>
<pdfrwt beam="2">  1       -1 0.56915557E-01 0.15270415E+04</pdfrwt>
<totfact> 0.39502925E+01</totfact>
</mgrwt>
</event>
<event>
12    6  0.1510140E-007  0.1356364E+04  0.7818608E-02  0.8986024E-01
         -1   -1    0    0    0  501 -0.00000000000E+00  0.00000000000E+00  0.25324879130E+03  0.25324879130E+03  0.00000000000E+00 0.  1.
          2   -1    0    0  501    0  0.00000000000E+00 -0.00000000000E+00 -0.18161234075E+04  0.18161234075E+04  0.00000000000E+00 0. -1.
         24    2    1    2    0    0 -0.90047793816E+02 -0.26770689646E+03 -0.55412140096E+02  0.30024953410E+03  0.85461628063E+02 0.  0.
        254    2    1    2    0    0  0.90047793816E+02  0.26770689646E+03 -0.15074624761E+04  0.17691226647E+04  0.88180286816E+03 0.  0.
         23    2    4    4    0    0  0.46458727386E+03  0.87305593881E+02 -0.97355620089E+03  0.10860982246E+04  0.91291157398E+02 0.  0.
         23    2    4    4    0    0 -0.37453948004E+03  0.18040130258E+03 -0.53390627521E+03  0.68302444009E+03  0.92962481564E+02 0.  0.
          4    1    3    3  502    0 -0.20101763399E+02 -0.87148851009E+02  0.21360237951E+02  0.91952503442E+02  0.00000000000E+00 0. -1.
         -3    1    3    3    0  502 -0.69946030417E+02 -0.18055804545E+03 -0.76772378047E+02  0.20829703065E+03  0.00000000000E+00 0.  1.
         11    1    5    5    0    0  0.23807377978E+03  0.57103285061E+02 -0.60218215854E+03  0.65004866114E+03  0.00000000000E+00 0. -1.
        -11    1    5    5    0    0  0.22651349408E+03  0.30202308820E+02 -0.37137404235E+03  0.43604956345E+03  0.00000000000E+00 0.  1.
          1    1    6    6  503    0 -0.63707380969E+02 -0.33151811936E+01 -0.63354225509E+02  0.89907612059E+02  0.00000000000E+00 0. -1.
         -1    1    6    6    0  503 -0.31083209907E+03  0.18371648377E+03 -0.47055204970E+03  0.59311682804E+03  0.00000000000E+00 0.  1.
<mgrwt>
<rscale>  0 0.13563643E+04</rscale>
<asrwt>0</asrwt>
<pdfrwt beam="1">  1        2 0.27940359E+00 0.13563643E+04</pdfrwt>
<pdfrwt beam="2">  1       -1 0.38961353E-01 0.13563643E+04</pdfrwt>
<totfact> 0.60095813E+01</totfact>
</mgrwt>
</event>
<event>
12    6  0.1510140E-007  0.2079593E+04  0.7818608E-02  0.8570286E-01
          2   -1    0    0  501    0  0.00000000000E+00  0.00000000000E+00  0.11968316024E+04  0.11968316024E+04  0.00000000000E+00 0. -1.
         -1   -1    0    0    0  501 -0.00000000000E+00 -0.00000000000E+00 -0.90336604534E+03  0.90336604534E+03  0.00000000000E+00 0.  1.
         24    2    1    2    0    0 -0.54401796370E+03  0.58592386745E+03  0.39816389407E+03  0.89667004730E+03  0.78869283680E+02 0.  0.
        254    2    1    2    0    0  0.54401796370E+03 -0.58592386745E+03 -0.10469833699E+03  0.12035276005E+04  0.89345096119E+03 0.  0.
         23    2    4    4    0    0  0.30904175697E+03  0.14494543221E+03  0.15585442424E+03  0.38663876763E+03  0.93182343883E+02 0.  0.
         23    2    4    4    0    0  0.23497620673E+03 -0.73086929966E+03 -0.26055276122E+03  0.81688883284E+03  0.10017920407E+03 0.  0.
          4    1    3    3  502    0 -0.16361526578E+03  0.15910916834E+03  0.15192975893E+03  0.27416844147E+03  0.00000000000E+00 0. -1.
         -3    1    3    3    0  502 -0.38040269792E+03  0.42681469911E+03  0.24623413514E+03  0.62250160584E+03  0.00000000000E+00 0.  1.
         11    1    5    5    0    0  0.15773554910E+03  0.44366600877E+02  0.32537405222E+02  0.16705562385E+03  0.00000000000E+00 0.  1.
        -11    1    5    5    0    0  0.15130620788E+03  0.10057883133E+03  0.12331701902E+03  0.21958314378E+03  0.00000000000E+00 0. -1.
          1    1    6    6  503    0  0.22773867013E+03 -0.58192735815E+03 -0.21765281956E+03  0.66172282861E+03  0.00000000000E+00 0. -1.
         -1    1    6    6    0  503  0.72375366048E+01 -0.14894194150E+03 -0.42899941664E+02  0.15516600423E+03  0.00000000000E+00 0.  1.
<mgrwt>
<rscale>  0 0.20795933E+04</rscale>
<asrwt>0</asrwt>
<pdfrwt beam="1">  1        2 0.18412794E+00 0.20795933E+04</pdfrwt>
<pdfrwt beam="2">  1       -1 0.13897939E+00 0.20795933E+04</pdfrwt>
<totfact> 0.85546960E+00</totfact>
</mgrwt>
</event>
<event>
12    6  0.1510140E-007  0.2075222E+04  0.7818608E-02  0.8572238E-01
          2   -1    0    0  501    0  0.00000000000E+00  0.00000000000E+00  0.20689954691E+04  0.20689954691E+04  0.00000000000E+00 0. -1.
         -1   -1    0    0    0  501 -0.00000000000E+00 -0.00000000000E+00 -0.52036658501E+03  0.52036658501E+03  0.00000000000E+00 0.  1.
         24    2    1    2    0    0  0.80386044829E+03 -0.10292644821E+03  0.34458512750E+03  0.88416251014E+03  0.78860384076E+02 0.  0.
        254    2    1    2    0    0 -0.80386044829E+03  0.10292644821E+03  0.12040437566E+04  0.17051995440E+04  0.89509700195E+03 0.  0.
         23    2    4    4    0    0 -0.33099796648E+03  0.31655381039E+03  0.10580935331E+04  0.11565323118E+04  0.90769459248E+02 0.  0.
         23    2    4    4    0    0 -0.47286248181E+03 -0.21362736218E+03  0.14595022351E+03  0.54866723220E+03  0.10246310249E+03 0.  0.
          2    1    3    3  502    0  0.17674678413E+03  0.28050306257E+01  0.97587164640E+02  0.20191718252E+03  0.00000000000E+00 0. -1.
         -1    1    3    3    0  502  0.62711366416E+03 -0.10573147884E+03  0.24699796286E+03  0.68224532761E+03  0.00000000000E+00 0.  1.
         11    1    5    5    0    0 -0.20196033686E+03  0.14892861425E+03  0.65250737409E+03  0.69909483123E+03  0.00000000000E+00 0.  1.
        -11    1    5    5    0    0 -0.12903762962E+03  0.16762519614E+03  0.40558615899E+03  0.45743748054E+03  0.00000000000E+00 0. -1.
          1    1    6    6  503    0 -0.15654277403E+03 -0.33995009139E+02  0.10619374465E+02  0.16054305298E+03  0.00000000000E+00 0. -1.
         -1    1    6    6    0  503 -0.31631970778E+03 -0.17963235304E+03  0.13533084904E+03  0.38812417921E+03  0.00000000000E+00 0.  1.
<mgrwt>
<rscale>  0 0.20752215E+04</rscale>
<asrwt>0</asrwt>
<pdfrwt beam="1">  1        2 0.31830699E+00 0.20752215E+04</pdfrwt>
<pdfrwt beam="2">  1       -1 0.80056399E-01 0.20752215E+04</pdfrwt>
<totfact> 0.10011518E+01</totfact>
</mgrwt>
</event>
<event>
12    6  0.1510140E-007  0.1695397E+04  0.7818608E-02  0.8763994E-01
          2   -1    0    0  501    0  0.00000000000E+00  0.00000000000E+00  0.91779108014E+03  0.91779108014E+03  0.00000000000E+00 0. -1.
         -1   -1    0    0    0  501 -0.00000000000E+00 -0.00000000000E+00 -0.78295892234E+03  0.78295892234E+03  0.00000000000E+00 0.  1.
         24    2    1    2    0    0 -0.35321262333E+03  0.35169069342E+03  0.39834006336E+03  0.64293251761E+03  0.79005790959E+02 0.  0.
        254    2    1    2    0    0  0.35321262333E+03 -0.35169069342E+03 -0.26350790556E+03  0.10578174849E+04  0.89503961582E+03 0.  0.
         23    2    4    4    0    0  0.34342959261E+03  0.16815734747E+03 -0.34485725512E+03  0.52361579716E+03  0.95006305279E+02 0.  0.
         23    2    4    4    0    0  0.97830307208E+01 -0.51984804089E+03  0.81349349555E+02  0.53420168771E+03  0.91738940310E+02 0.  0.
          4    1    3    3  502    0 -0.19894825444E+03  0.15420341704E+03  0.23063820909E+03  0.34139871890E+03  0.00000000000E+00 0. -1.
         -3    1    3    3    0  502 -0.15426436889E+03  0.19748727638E+03  0.16770185427E+03  0.30153379871E+03  0.00000000000E+00 0.  1.
         11    1    5    5    0    0  0.28217800792E+03  0.93205331549E+02 -0.26350122327E+03  0.39717068957E+03  0.00000000000E+00 0.  1.
        -11    1    5    5    0    0  0.61251584685E+02  0.74952015923E+02 -0.81356031844E+02  0.12644510759E+03  0.00000000000E+00 0. -1.
          4    1    6    6  503    0  0.20413878701E+02 -0.96368461838E+02 -0.15340017854E+02  0.99694147413E+02  0.00000000000E+00 0. -1.
         -4    1    6    6    0  503 -0.10630847981E+02 -0.42347957905E+03  0.96689367409E+02  0.43450754029E+03  0.00000000000E+00 0.  1.
<mgrwt>
<rscale>  0 0.16953970E+04</rscale>
<asrwt>0</asrwt>
<pdfrwt beam="1">  1        2 0.14119863E+00 0.16953970E+04</pdfrwt>
<pdfrwt beam="2">  1       -1 0.12045522E+00 0.16953970E+04</pdfrwt>
<totfact> 0.19007474E+01</totfact>
</mgrwt>
</event>
<event>
12    6  0.1510140E-007  0.2115876E+04  0.7818608E-02  0.8554282E-01
          2   -1    0    0  501    0  0.00000000000E+00  0.00000000000E+00  0.15080888820E+04  0.15080888820E+04  0.00000000000E+00 0. -1.
         -1   -1    0    0    0  501 -0.00000000000E+00 -0.00000000000E+00 -0.74215315948E+03  0.74215315948E+03  0.00000000000E+00 0.  1.
         24    2    1    2    0    0 -0.34318296112E+03 -0.74695168062E+03  0.18954291355E+02  0.82604847272E+03  0.79280868705E+02 0.  0.
        254    2    1    2    0    0  0.34318296112E+03  0.74695168062E+03  0.74698143120E+03  0.14241935688E+04  0.89142285412E+03 0.  0.
         23    2    4    4    0    0 -0.34042488873E+01  0.29337821859E+03 -0.16064887893E+03  0.34797129326E+03  0.95883213204E+02 0.  0.
         23    2    4    4    0    0  0.34658721000E+03  0.45357346203E+03  0.90763031013E+03  0.10762222755E+04  0.92790230621E+02 0.  0.
          4    1    3    3  502    0 -0.75517959721E+02 -0.23405342431E+03  0.27318117036E+02  0.24744746349E+03  0.00000000000E+00 0. -1.
         -3    1    3    3    0  502 -0.26766500139E+03 -0.51289825631E+03 -0.83638256812E+01  0.57860100923E+03  0.00000000000E+00 0.  1.
         11    1    5    5    0    0 -0.37633864712E+02  0.24867566244E+03 -0.14102419848E+03  0.28834652316E+03  0.00000000000E+00 0.  1.
        -11    1    5    5    0    0  0.34229615825E+02  0.44702556148E+02 -0.19624680456E+02  0.59624770094E+02  0.00000000000E+00 0. -1.
          3    1    6    6  503    0  0.23991453748E+03  0.30822829878E+03  0.69688169655E+03  0.79887906998E+03  0.00000000000E+00 0. -1.
         -3    1    6    6    0  503  0.10667267252E+03  0.14534516325E+03  0.21074861358E+03  0.27734320556E+03  0.00000000000E+00 0.  1.
<mgrwt>
<rscale>  0 0.21158761E+04</rscale>
<asrwt>0</asrwt>
<pdfrwt beam="1">  1        2 0.23201367E+00 0.21158761E+04</pdfrwt>
<pdfrwt beam="2">  1       -1 0.11417741E+00 0.21158761E+04</pdfrwt>
<totfact> 0.91976686E+00</totfact>
</mgrwt>
</event>
<event>
12    6  0.1510140E-007  0.9983506E+03  0.7818608E-02  0.9310356E-01
         -1   -1    0    0    0  501 -0.00000000000E+00  0.00000000000E+00  0.17149413963E+03  0.17149413963E+03  0.00000000000E+00 0.  1.
          2   -1    0    0  501    0  0.00000000000E+00 -0.00000000000E+00 -0.14529707083E+04  0.14529707083E+04  0.00000000000E+00 0. -1.
         24    2    1    2    0    0  0.37300612582E+02  0.26987667455E+02 -0.10080335899E+03  0.13552582448E+03  0.78014498796E+02 0.  0.
        254    2    1    2    0    0 -0.37300612582E+02 -0.26987667455E+02 -0.11806732097E+04  0.14889390235E+04  0.90599697441E+03 0.  0.
         23    2    4    4    0    0 -0.22408120154E+03  0.20902616594E+03 -0.59586727547E+02  0.32474172914E+03  0.89455517521E+02 0.  0.
         23    2    4    4    0    0  0.18678058896E+03 -0.23601383340E+03 -0.11210864822E+04  0.11641972943E+04  0.89055722460E+02 0.  0.
          2    1    3    3  502    0 -0.23599849215E+02 -0.85957140377E-02 -0.31957343868E+02  0.39726877350E+02  0.00000000000E+00 0. -1.
         -1    1    3    3    0  502  0.60900461797E+02  0.26996263169E+02 -0.68846015123E+02  0.95798947127E+02  0.00000000000E+00 0.  1.
         11    1    5    5    0    0 -0.16339628568E+03  0.19780473762E+03 -0.38006726544E+02  0.25936378248E+03  0.00000000000E+00 0.  1.
        -11    1    5    5    0    0 -0.60684915860E+02  0.11221428319E+02 -0.21580001003E+02  0.65377946662E+02  0.00000000000E+00 0. -1.
          3    1    6    6  503    0 -0.94403206689E+01 -0.15389109655E+02 -0.82788999667E+02  0.84734661244E+02  0.00000000000E+00 0. -1.
         -3    1    6    6    0  503  0.19622090963E+03 -0.22062472374E+03 -0.10382974825E+04  0.10794626331E+04  0.00000000000E+00 0.  1.
<mgrwt>
<rscale>  0 0.99835056E+03</rscale>
<asrwt>0</asrwt>
<pdfrwt beam="1">  1        2 0.22353396E+00 0.99835056E+03</pdfrwt>
<pdfrwt beam="2">  1       -1 0.26383714E-01 0.99835056E+03</pdfrwt>
<totfact> 0.19581949E+02</totfact>
</mgrwt>
</event>
<event>
12    6  0.1510140E-007  0.2389226E+04  0.7818608E-02  0.8443548E-01
          2   -1    0    0  501    0  0.00000000000E+00  0.00000000000E+00  0.18869251954E+04  0.18869251954E+04  0.00000000000E+00 0. -1.
         -1   -1    0    0    0  501 -0.00000000000E+00 -0.00000000000E+00 -0.75630987295E+03  0.75630987295E+03  0.00000000000E+00 0.  1.
         24    2    1    2    0    0  0.23684571897E+03 -0.52700014672E+03  0.14235474357E+04  0.15383260869E+04  0.78324957235E+02 0.  0.
        254    2    1    2    0    0 -0.23684571897E+03  0.52700014672E+03 -0.29293211317E+03  0.11049089815E+04  0.89509194229E+03 0.  0.
         23    2    4    4    0    0 -0.14983582587E+03  0.20238039690E+03 -0.58981731325E+03  0.64763326172E+03  0.90198552742E+02 0.  0.
         23    2    4    4    0    0 -0.87009893102E+02  0.32461974982E+03  0.29688520008E+03  0.45727571974E+03  0.89507309023E+02 0.  0.
          2    1    3    3  502    0  0.10383732332E+03 -0.20128199092E+03  0.65563987734E+03  0.69365717638E+03  0.00000000000E+00 0. -1.
         -1    1    3    3    0  502  0.13300839565E+03 -0.32571815580E+03  0.76790755832E+03  0.84466891055E+03  0.00000000000E+00 0.  1.
         11    1    5    5    0    0 -0.62278549755E+02  0.12389360847E+03 -0.40971370812E+03  0.43254313842E+03  0.00000000000E+00 0.  1.
        -11    1    5    5    0    0 -0.87557276112E+02  0.78486788430E+02 -0.18010360513E+03  0.21509012330E+03  0.00000000000E+00 0. -1.
          2    1    6    6  503    0 -0.89136935688E+01  0.58804282446E+02  0.13553249025E+02  0.61000722341E+02  0.00000000000E+00 0. -1.
         -2    1    6    6    0  503 -0.78096199534E+02  0.26581546737E+03  0.28333195105E+03  0.39627499740E+03  0.00000000000E+00 0.  1.
<mgrwt>
<rscale>  0 0.23892259E+04</rscale>
<asrwt>0</asrwt>
<pdfrwt beam="1">  1        2 0.29029618E+00 0.23892259E+04</pdfrwt>
<pdfrwt beam="2">  1       -1 0.11635537E+00 0.23892259E+04</pdfrwt>
<totfact> 0.52782076E+00</totfact>
</mgrwt>
</event>
<event>
12    6  0.1510140E-007  0.2368803E+04  0.7818608E-02  0.8451276E-01
         -1   -1    0    0    0  501 -0.00000000000E+00  0.00000000000E+00  0.51729435584E+03  0.51729435584E+03  0.00000000000E+00 0.  1.
          2   -1    0    0  501    0  0.00000000000E+00 -0.00000000000E+00 -0.27118159657E+04  0.27118159657E+04  0.00000000000E+00 0. -1.
         24    2    1    2    0    0 -0.92451201611E+03 -0.22815715222E+03 -0.48147231872E+03  0.10700603943E+04  0.80221566578E+02 0.  0.
        254    2    1    2    0    0  0.92451201611E+03  0.22815715222E+03 -0.17130492912E+04  0.21590499272E+04  0.90563820609E+03 0.  0.
         23    2    4    4    0    0  0.60923921744E+03 -0.50818597450E+02 -0.31010427992E+03  0.69153057245E+03  0.91076420112E+02 0.  0.
         23    2    4    4    0    0  0.31527279867E+03  0.27897574967E+03 -0.14029450112E+04  0.14675193548E+04  0.90188389619E+02 0.  0.
          4    1    3    3  502    0 -0.13102368139E+02 -0.84164137373E+01  0.11295294004E+01  0.15613580874E+02  0.00000000000E+00 0. -1.
         -1    1    3    3    0  502 -0.91140964798E+03 -0.21974073848E+03 -0.48260184812E+03  0.10544468134E+04  0.00000000000E+00 0.  1.
         11    1    5    5    0    0  0.53688768325E+03 -0.14357948813E+02 -0.27017181845E+03  0.60120491233E+03  0.00000000000E+00 0. -1.
        -11    1    5    5    0    0  0.72351534192E+02 -0.36460648637E+02 -0.39932461466E+02  0.90325660129E+02  0.00000000000E+00 0.  1.
          1    1    6    6  503    0  0.29228148112E+03  0.27390383828E+03 -0.13675660637E+04  0.14250223561E+04  0.00000000000E+00 0. -1.
         -1    1    6    6    0  503  0.22991317548E+02  0.50719113892E+01 -0.35378947578E+02  0.42496998711E+02  0.00000000000E+00 0.  1.
<mgrwt>
<rscale>  0 0.23688032E+04</rscale>
<asrwt>0</asrwt>
<pdfrwt beam="1">  1        2 0.41720245E+00 0.23688032E+04</pdfrwt>
<pdfrwt beam="2">  1       -1 0.79583747E-01 0.23688032E+04</pdfrwt>
<totfact> 0.42268806E+00</totfact>
</mgrwt>
</event>
<event>
12    6  0.1510140E-007  0.2244259E+04  0.7818608E-02  0.8500229E-01
         -3   -1    0    0    0  501 -0.00000000000E+00  0.00000000000E+00  0.18944265304E+04  0.18944265304E+04  0.00000000000E+00 0.  1.
          4   -1    0    0  501    0  0.00000000000E+00 -0.00000000000E+00 -0.66467312340E+03  0.66467312340E+03  0.00000000000E+00 0. -1.
         24    2    1    2    0    0 -0.14332821910E+03  0.24491442644E+03  0.15266442481E+04  0.15548219471E+04  0.79388740513E+02 0.  0.
        254    2    1    2    0    0  0.14332821910E+03 -0.24491442644E+03 -0.29689084113E+03  0.10042777067E+04  0.91646248477E+03 0.  0.
         23    2    4    4    0    0 -0.30622235269E+03  0.31982406354E+02 -0.33773475394E+03  0.46708597844E+03  0.96485976365E+02 0.  0.
         23    2    4    4    0    0  0.44955057179E+03 -0.27689683280E+03  0.40843912804E+02  0.53719172827E+03  0.90217266101E+02 0.  0.
          2    1    3    3  502    0 -0.10151031842E+02  0.75753925945E+02  0.31054365203E+03  0.31981097630E+03  0.00000000000E+00 0. -1.
         -1    1    3    3    0  502 -0.13317718726E+03  0.16916050050E+03  0.12161005961E+04  0.12350109708E+04  0.00000000000E+00 0.  1.
         11    1    5    5    0    0 -0.22577737549E+03 -0.14075380412E+02 -0.27021413797E+03  0.35240490913E+03  0.00000000000E+00 0.  1.
        -11    1    5    5    0    0 -0.80444977195E+02  0.46057786766E+02 -0.67520615965E+02  0.11468106931E+03  0.00000000000E+00 0. -1.
          1    1    6    6  503    0  0.20806079212E+03 -0.14882975736E+03 -0.21864002469E+02  0.25674427841E+03  0.00000000000E+00 0. -1.
         -1    1    6    6    0  503  0.24148977967E+03 -0.12806707544E+03  0.62707915273E+02  0.28044744986E+03  0.00000000000E+00 0.  1.
<mgrwt>
<rscale>  0 0.22442588E+04</rscale>
<asrwt>0</asrwt>
<pdfrwt beam="1">  1        4 0.10225740E+00 0.22442588E+04</pdfrwt>
<pdfrwt beam="2">  1       -3 0.29145023E+00 0.22442588E+04</pdfrwt>
<totfact> 0.69211993E-02</totfact>
</mgrwt>
</event>
<event>
12    6  0.1510140E-007  0.1742079E+04  0.7818608E-02  0.8737723E-01
         -1   -1    0    0    0  501 -0.00000000000E+00  0.00000000000E+00  0.44971129280E+03  0.44971129280E+03  0.00000000000E+00 0.  1.
          2   -1    0    0  501    0  0.00000000000E+00 -0.00000000000E+00 -0.16871038270E+04  0.16871038270E+04  0.00000000000E+00 0. -1.
         24    2    1    2    0    0  0.58877438776E+02 -0.27738727459E+03 -0.11939336199E+04  0.12296959409E+04  0.79147745521E+02 0.  0.
        254    2    1    2    0    0 -0.58877438776E+02  0.27738727459E+03 -0.43458914393E+02  0.90711917891E+03  0.86056160419E+03 0.  0.
         23    2    4    4    0    0 -0.38970809450E+03  0.67814779241E+02  0.18180253302E+03  0.44425559859E+03  0.88541700136E+02 0.  0.
         23    2    4    4    0    0  0.33083065572E+03  0.20957249535E+03 -0.22526144741E+03  0.46286358032E+03  0.10064999119E+03 0.  0.
          4    1    3    3  502    0  0.46548255523E+02 -0.23809291884E+03 -0.87127751307E+03  0.90442218177E+03  0.00000000000E+00 0. -1.
         -3    1    3    3    0  502  0.12329183253E+02 -0.39294355746E+02 -0.32265610679E+03  0.32527375916E+03  0.00000000000E+00 0.  1.
         11    1    5    5    0    0 -0.32160822636E+03  0.89350668352E+02  0.14527772598E+03  0.36403435396E+03  0.00000000000E+00 0.  1.
        -11    1    5    5    0    0 -0.68099868140E+02 -0.21535889111E+02  0.36524807041E+02  0.80221244629E+02  0.00000000000E+00 0. -1.
          1    1    6    6  503    0  0.13520691525E+03  0.14521172579E+03 -0.11058649146E+03  0.22714913015E+03  0.00000000000E+00 0. -1.
         -1    1    6    6    0  503  0.19562374047E+03  0.64360769562E+02 -0.11467495596E+03  0.23571445017E+03  0.00000000000E+00 0.  1.
<mgrwt>
<rscale>  0 0.17420788E+04</rscale>
<asrwt>0</asrwt>
<pdfrwt beam="1">  1        2 0.25955443E+00 0.17420788E+04</pdfrwt>
<pdfrwt beam="2">  1       -1 0.69186353E-01 0.17420788E+04</pdfrwt>
<totfact> 0.22764395E+01</totfact>
</mgrwt>
</event>
<event>
12    6  0.1556649E-007  0.2071636E+04  0.7818608E-02  0.8573842E-01
         -1   -1    0    0    0  501 -0.00000000000E+00  0.00000000000E+00  0.67961800756E+03  0.67961800756E+03  0.00000000000E+00 0.  1.
          2   -1    0    0  501    0  0.00000000000E+00 -0.00000000000E+00 -0.15787084385E+04  0.15787084385E+04  0.00000000000E+00 0. -1.
         24    2    1    2    0    0  0.12098298636E+03 -0.51105738698E+03  0.33653424761E+03  0.62895713710E+03  0.80717065865E+02 0.  0.
        254    2    1    2    0    0 -0.12098298636E+03  0.51105738698E+03 -0.12356246785E+04  0.16293693089E+04  0.92317899829E+03 0.  0.
         23    2    4    4    0    0 -0.54593042168E+02  0.76577227895E+03 -0.10027366218E+04  0.12661596071E+04  0.91059510489E+02 0.  0.
         23    2    4    4    0    0 -0.66389944191E+02 -0.25471489197E+03 -0.23288805676E+03  0.36320970186E+03  0.91635908143E+02 0.  0.
          4    1    3    3  502    0 -0.11291424950E+02 -0.31229104685E+02  0.27310214101E+02  0.42995360808E+02  0.00000000000E+00 0. -1.
         -3    1    3    3    0  502  0.13227441131E+03 -0.47982828229E+03  0.30922403351E+03  0.58596177629E+03  0.00000000000E+00 0.  1.
         11    1    5    5    0    0 -0.12216954327E+02  0.95909123133E+01 -0.24425426223E+02  0.28945483555E+02  0.00000000000E+00 0. -1.
        -11    1    5    5    0    0 -0.42376087841E+02  0.75618136664E+03 -0.97831119553E+03  0.12372141235E+04  0.00000000000E+00 0.  1.
          2    1    6    6  503    0 -0.41134058098E+02 -0.26379918538E+02 -0.36770590183E+02  0.61155434265E+02  0.00000000000E+00 0. -1.
         -2    1    6    6    0  503 -0.25255886093E+02 -0.22833497344E+03 -0.19611746658E+03  0.30205426759E+03  0.00000000000E+00 0.  1.
<mgrwt>
<rscale>  0 0.20716358E+04</rscale>
<asrwt>0</asrwt>
<pdfrwt beam="1">  1        2 0.24287822E+00 0.20716358E+04</pdfrwt>
<pdfrwt beam="2">  1       -1 0.10455662E+00 0.20716358E+04</pdfrwt>
<totfact> 0.10370001E+01</totfact>
</mgrwt>
</event>
<event>
12    6  0.1510140E-007  0.1265009E+04  0.7818608E-02  0.9057783E-01
         -1   -1    0    0    0  501 -0.00000000000E+00  0.00000000000E+00  0.77121671714E+03  0.77121671714E+03  0.00000000000E+00 0.  1.
          2   -1    0    0  501    0  0.00000000000E+00 -0.00000000000E+00 -0.51874120839E+03  0.51874120839E+03  0.00000000000E+00 0. -1.
         24    2    1    2    0    0  0.79570734839E+02 -0.74016863194E+02 -0.22301920075E+03  0.26123203351E+03  0.81820618130E+02 0.  0.
        254    2    1    2    0    0 -0.79570734839E+02  0.74016863194E+02  0.47549470950E+03  0.10287258920E+04  0.90574375199E+03 0.  0.
         23    2    4    4    0    0  0.16075903863E+03  0.23448357666E+02  0.67485129461E+03  0.69989522249E+03  0.89642393203E+02 0.  0.
         23    2    4    4    0    0 -0.24032977347E+03  0.50568505528E+02 -0.19935658510E+03  0.32883066952E+03  0.89838674459E+02 0.  0.
          4    1    3    3  502    0  0.12260269238E+02 -0.63241079222E+02 -0.13771462227E+03  0.15203639528E+03  0.00000000000E+00 0. -1.
         -3    1    3    3    0  502  0.67310465600E+02 -0.10775783972E+02 -0.85304578475E+02  0.10919563823E+03  0.00000000000E+00 0.  1.
         11    1    5    5    0    0  0.23625253316E+01 -0.60303991771E+01  0.42444870586E+00  0.64905621391E+01  0.00000000000E+00 0. -1.
        -11    1    5    5    0    0  0.15839651330E+03  0.29478756843E+02  0.67442684590E+03  0.69340466036E+03  0.00000000000E+00 0.  1.
          2    1    6    6  503    0 -0.44544446283E+02 -0.10122296686E+02 -0.43071023768E+01  0.45882673372E+02  0.00000000000E+00 0. -1.
         -2    1    6    6    0  503 -0.19578532718E+03  0.60690802214E+02 -0.19504948273E+03  0.28294799615E+03  0.00000000000E+00 0.  1.
<mgrwt>
<rscale>  0 0.12650089E+04</rscale>
<asrwt>0</asrwt>
<pdfrwt beam="1">  1        2 0.79806340E-01 0.12650089E+04</pdfrwt>
<pdfrwt beam="2">  1       -1 0.11864873E+00 0.12650089E+04</pdfrwt>
<totfact> 0.42195040E+01</totfact>
</mgrwt>
</event>
<event>
12    6  0.1510140E-007  0.3732555E+04  0.7818608E-02  0.8060785E-01
         -1   -1    0    0    0  501 -0.00000000000E+00  0.00000000000E+00  0.11874317298E+04  0.11874317298E+04  0.00000000000E+00 0.  1.
          2   -1    0    0  501    0  0.00000000000E+00 -0.00000000000E+00 -0.29332138670E+04  0.29332138670E+04  0.00000000000E+00 0. -1.
         24    2    1    2    0    0  0.20499914863E+03 -0.93323937057E+03 -0.24488667226E+04  0.26300408965E+04  0.84891215204E+02 0.  0.
        254    2    1    2    0    0 -0.20499914863E+03  0.93323937057E+03  0.70308458535E+03  0.14906047004E+04  0.90255972926E+03 0.  0.
         23    2    4    4    0    0 -0.21778522044E+03  0.51677743319E+03 -0.10308825308E+03  0.57746443589E+03  0.91371051796E+02 0.  0.
         23    2    4    4    0    0  0.12786071811E+02  0.41646193738E+03  0.80617283843E+03  0.91314026447E+03  0.10152077745E+03 0.  0.
          2    1    3    3  502    0  0.17098428418E+03 -0.87409005004E+03 -0.22924690993E+04  0.24594071668E+04  0.00000000000E+00 0. -1.
         -3    1    3    3    0  502  0.34014864447E+02 -0.59149320533E+02 -0.15639762330E+03  0.17063372966E+03  0.00000000000E+00 0.  1.
         11    1    5    5    0    0 -0.14702978362E+03  0.43318354362E+03 -0.68125093620E+02  0.46250056012E+03  0.00000000000E+00 0.  1.
        -11    1    5    5    0    0 -0.70755436825E+02  0.83593889569E+02 -0.34963159459E+02  0.11496387577E+03  0.00000000000E+00 0. -1.
          4    1    6    6  503    0 -0.72525299246E+01  0.31752220537E+03  0.51602597635E+03  0.60593379041E+03  0.00000000000E+00 0. -1.
         -4    1    6    6    0  503  0.20038601736E+02  0.98939732017E+02  0.29014686208E+03  0.30720647406E+03  0.00000000000E+00 0.  1.
<mgrwt>
<rscale>  0 0.37325547E+04</rscale>
<asrwt>0</asrwt>
<pdfrwt beam="1">  1        2 0.45126367E+00 0.37325547E+04</pdfrwt>
<pdfrwt beam="2">  1       -1 0.18268181E+00 0.37325547E+04</pdfrwt>
<totfact> 0.34916774E-01</totfact>
</mgrwt>
</event>
<event>
12    6  0.1510140E-007  0.1105275E+04  0.7818608E-02  0.9200066E-01
         -1   -1    0    0    0  501 -0.00000000000E+00  0.00000000000E+00  0.15448998294E+03  0.15448998294E+03  0.00000000000E+00 0.  1.
          2   -1    0    0  501    0  0.00000000000E+00 -0.00000000000E+00 -0.19768795171E+04  0.19768795171E+04  0.00000000000E+00 0. -1.
         24    2    1    2    0    0  0.10527124473E+03  0.10891427359E+03 -0.57404872919E+03  0.59872666790E+03  0.77442400589E+02 0.  0.
        254    2    1    2    0    0 -0.10527124473E+03 -0.10891427359E+03 -0.12483408050E+04  0.15326428322E+04  0.87618201968E+03 0.  0.
         23    2    4    4    0    0  0.30843388433E+03 -0.25587272728E+03 -0.79532748724E+03  0.89524577894E+03  0.91196925245E+02 0.  0.
         23    2    4    4    0    0 -0.41370512907E+03  0.14695845368E+03 -0.45301331777E+03  0.63739705324E+03  0.91132960422E+02 0.  0.
          4    1    3    3  502    0  0.11133086968E+03  0.10055086712E+03 -0.56625001911E+03  0.58578504894E+03  0.00000000000E+00 0. -1.
         -3    1    3    3    0  502 -0.60596249464E+01  0.83634064691E+01 -0.77987100761E+01  0.12941618952E+02  0.00000000000E+00 0.  1.
         11    1    5    5    0    0  0.10653294657E+03 -0.63548494949E+02 -0.16888211359E+03  0.20954438242E+03  0.00000000000E+00 0.  1.
        -11    1    5    5    0    0  0.20190093777E+03 -0.19232423233E+03 -0.62644537365E+03  0.68570139652E+03  0.00000000000E+00 0. -1.
          2    1    6    6  503    0 -0.40417367972E+03  0.14875098536E+03 -0.41471358687E+03  0.59788843287E+03  0.00000000000E+00 0. -1.
         -2    1    6    6    0  503 -0.95314493441E+01 -0.17925316712E+01 -0.38299730903E+02  0.39508620371E+02  0.00000000000E+00 0.  1.
<mgrwt>
<rscale>  0 0.11052748E+04</rscale>
<asrwt>0</asrwt>
<pdfrwt beam="1">  1        2 0.30413531E+00 0.11052748E+04</pdfrwt>
<pdfrwt beam="2">  1       -1 0.23767690E-01 0.11052748E+04</pdfrwt>
<totfact> 0.11908419E+02</totfact>
</mgrwt>
</event>
<event>
12    6  0.1510140E-007  0.1280229E+04  0.7818608E-02  0.9045392E-01
          2   -1    0    0  501    0  0.00000000000E+00  0.00000000000E+00  0.63740032499E+03  0.63740032499E+03  0.00000000000E+00 0. -1.
         -1   -1    0    0    0  501 -0.00000000000E+00 -0.00000000000E+00 -0.64284016705E+03  0.64284016705E+03  0.00000000000E+00 0.  1.
         24    2    1    2    0    0  0.10957122532E+02 -0.12729579948E+03  0.33215858153E+03  0.36508319539E+03  0.81437934460E+02 0.  0.
        254    2    1    2    0    0 -0.10957122532E+02  0.12729579948E+03 -0.33759842359E+03  0.91515729665E+03  0.84096129691E+03 0.  0.
         23    2    4    4    0    0  0.31964872175E+02 -0.21600977533E+02  0.26645738426E+03  0.28507750247E+03  0.93708534849E+02 0.  0.
         23    2    4    4    0    0 -0.42921994707E+02  0.14889677702E+03 -0.60405580786E+03  0.63007979418E+03  0.90025441905E+02 0.  0.
          4    1    3    3  502    0  0.21765803213E+01 -0.10243772713E+03  0.15391241148E+03  0.18489796064E+03  0.00000000000E+00 0. -1.
         -3    1    3    3    0  502  0.87805422108E+01 -0.24858072351E+02  0.17824617005E+03  0.18018523475E+03  0.00000000000E+00 0.  1.
         11    1    5    5    0    0  0.64977204077E+02 -0.76009671562E+01  0.16735054704E+03  0.17968310256E+03  0.00000000000E+00 0. -1.
        -11    1    5    5    0    0 -0.33012331902E+02 -0.14000010377E+02  0.99106837227E+02  0.10539439991E+03  0.00000000000E+00 0.  1.
          4    1    6    6  503    0 -0.44481859889E+02  0.15367300259E+03 -0.48071901725E+03  0.50664070220E+03  0.00000000000E+00 0. -1.
         -4    1    6    6    0  503  0.15598651819E+01 -0.47762255728E+01 -0.12333679061E+03  0.12343909198E+03  0.00000000000E+00 0.  1.
<mgrwt>
<rscale>  0 0.12802289E+04</rscale>
<asrwt>0</asrwt>
<pdfrwt beam="1">  1        2 0.98061589E-01 0.12802289E+04</pdfrwt>
<pdfrwt beam="2">  1       -1 0.98898487E-01 0.12802289E+04</pdfrwt>
<totfact> 0.50524561E+01</totfact>
</mgrwt>
</event>
<event>
12    6  0.1510140E-007  0.2341692E+04  0.7818608E-02  0.8461662E-01
         -1   -1    0    0    0  501 -0.00000000000E+00  0.00000000000E+00  0.65474140398E+03  0.65474140398E+03  0.00000000000E+00 0.  1.
          2   -1    0    0  501    0  0.00000000000E+00 -0.00000000000E+00 -0.20937740093E+04  0.20937740093E+04  0.00000000000E+00 0. -1.
         24    2    1    2    0    0 -0.84710493575E+03 -0.52293519538E+03 -0.63049164930E+03  0.11810251125E+04  0.79073420503E+02 0.  0.
        254    2    1    2    0    0  0.84710493575E+03  0.52293519538E+03 -0.80854095598E+03  0.15674903007E+04  0.90124323831E+03 0.  0.
         23    2    4    4    0    0  0.61172544910E+03  0.11267703762E+03 -0.87914038829E+03  0.10808471200E+04  0.91861497299E+02 0.  0.
         23    2    4    4    0    0  0.23537948665E+03  0.41025815776E+03  0.70599432307E+02  0.48664318068E+03  0.90122398527E+02 0.  0.
          2    1    3    3  502    0 -0.31388703079E+03 -0.19416166674E+03 -0.27944068836E+03  0.46293727355E+03  0.00000000000E+00 0. -1.
         -1    1    3    3    0  502 -0.53321790496E+03 -0.32877352864E+03 -0.35105096094E+03  0.71808783897E+03  0.00000000000E+00 0.  1.
         11    1    5    5    0    0  0.30069266747E+03  0.18680498769E+02 -0.47182885620E+03  0.55981024539E+03  0.00000000000E+00 0.  1.
        -11    1    5    5    0    0  0.31103278163E+03  0.93996538854E+02 -0.40731153209E+03  0.52103687465E+03  0.00000000000E+00 0. -1.
          1    1    6    6  503    0  0.12953704562E+03  0.26448507599E+03  0.83280027538E+02  0.30605189854E+03  0.00000000000E+00 0. -1.
         -1    1    6    6    0  503  0.10584244103E+03  0.14577308177E+03 -0.12680595232E+02  0.18059128214E+03  0.00000000000E+00 0.  1.
<mgrwt>
<rscale>  0 0.23416922E+04</rscale>
<asrwt>0</asrwt>
<pdfrwt beam="1">  1        2 0.32211907E+00 0.23416922E+04</pdfrwt>
<pdfrwt beam="2">  1       -1 0.10072945E+00 0.23416922E+04</pdfrwt>
<totfact> 0.57078570E+00</totfact>
</mgrwt>
</event>
<event>
12    6  0.1510140E-007  0.2371540E+04  0.7818608E-02  0.8450236E-01
          2   -1    0    0  501    0  0.00000000000E+00  0.00000000000E+00  0.10052982152E+04  0.10052982152E+04  0.00000000000E+00 0. -1.
         -1   -1    0    0    0  501 -0.00000000000E+00 -0.00000000000E+00 -0.13986397612E+04  0.13986397612E+04  0.00000000000E+00 0.  1.
         24    2    1    2    0    0  0.36075505404E+03 -0.50450701182E+03 -0.98146458271E+03  0.11635676842E+04  0.77107033164E+02 0.  0.
        254    2    1    2    0    0 -0.36075505404E+03  0.50450701182E+03  0.58812303666E+03  0.12403702922E+04  0.89886496290E+03 0.  0.
         23    2    4    4    0    0 -0.40879668126E+03  0.70748571558E+03  0.30572471992E+03  0.87725660763E+03  0.91982535859E+02 0.  0.
         23    2    4    4    0    0  0.48041627227E+02 -0.20297870376E+03  0.28239831675E+03  0.36311368457E+03  0.92705913991E+02 0.  0.
          4    1    3    3  502    0  0.68047038982E+02 -0.14933478593E+03 -0.28165274745E+03  0.32597476582E+03  0.00000000000E+00 0. -1.
         -3    1    3    3    0  502  0.29270801506E+03 -0.35517222589E+03 -0.69981183526E+03  0.83759291836E+03  0.00000000000E+00 0.  1.
         11    1    5    5    0    0 -0.17303603462E+03  0.29910010184E+03  0.17807161179E+03  0.38873106272E+03  0.00000000000E+00 0.  1.
        -11    1    5    5    0    0 -0.23576064664E+03  0.40838561375E+03  0.12765310812E+03  0.48852554492E+03  0.00000000000E+00 0. -1.
          4    1    6    6  503    0  0.72911160914E+01  0.52983313881E+01 -0.99015437182E+00  0.90671437088E+01  0.00000000000E+00 0.  1.
         -4    1    6    6    0  503  0.40750511136E+02 -0.20827703515E+03  0.28338847112E+03  0.35404654086E+03  0.00000000000E+00 0. -1.
<mgrwt>
<rscale>  0 0.23715396E+04</rscale>
<asrwt>0</asrwt>
<pdfrwt beam="1">  1        2 0.15466126E+00 0.23715396E+04</pdfrwt>
<pdfrwt beam="2">  1       -1 0.21517535E+00 0.23715396E+04</pdfrwt>
<totfact> 0.30458285E+00</totfact>
</mgrwt>
</event>
<event>
12    6  0.1510140E-007  0.2557128E+04  0.7818608E-02  0.8382911E-01
         -1   -1    0    0    0  501 -0.00000000000E+00  0.00000000000E+00  0.69007992189E+03  0.69007992189E+03  0.00000000000E+00 0.  1.
          2   -1    0    0  501    0  0.00000000000E+00 -0.00000000000E+00 -0.23688941697E+04  0.23688941697E+04  0.00000000000E+00 0. -1.
         24    2    1    2    0    0 -0.83749650412E+03 -0.50633061419E+03 -0.13850066246E+04  0.16977724235E+04  0.80104722721E+02 0.  0.
        254    2    1    2    0    0  0.83749650412E+03  0.50633061419E+03 -0.29380762324E+03  0.13612016681E+04  0.89931972984E+03 0.  0.
         23    2    4    4    0    0  0.15638065715E+03  0.52648291834E+03  0.10485840092E+03  0.56636963293E+03  0.90222522842E+02 0.  0.
         23    2    4    4    0    0  0.68111584697E+03 -0.20152304142E+02 -0.39866602416E+03  0.79483203518E+03  0.92187054205E+02 0.  0.
          2    1    3    3  502    0 -0.51109290775E+03 -0.32907275374E+03 -0.79851595968E+03  0.10035599511E+04  0.00000000000E+00 0. -1.
         -1    1    3    3    0  502 -0.32640359637E+03 -0.17725786046E+03 -0.58649066491E+03  0.69421247240E+03  0.00000000000E+00 0.  1.
         11    1    5    5    0    0  0.42524244849E+02  0.51748201248E+02  0.25981513828E+02  0.71841678663E+02  0.00000000000E+00 0. -1.
        -11    1    5    5    0    0  0.11385641230E+03  0.47473471709E+03  0.78876887093E+02  0.49452795426E+03  0.00000000000E+00 0.  1.
          3    1    6    6  503    0  0.10585938490E+03  0.29917901208E+02 -0.70615718588E+02  0.13072057946E+03  0.00000000000E+00 0. -1.
         -3    1    6    6    0  503  0.57525646207E+03 -0.50070205349E+02 -0.32805030558E+03  0.66411145571E+03  0.00000000000E+00 0.  1.
<mgrwt>
<rscale>  0 0.25571283E+04</rscale>
<asrwt>0</asrwt>
<pdfrwt beam="1">  1        2 0.36444526E+00 0.25571283E+04</pdfrwt>
<pdfrwt beam="2">  1       -1 0.10616614E+00 0.25571283E+04</pdfrwt>
<totfact> 0.34687939E+00</totfact>
</mgrwt>
</event>
<event>
12    6  0.1510140E-007  0.2182293E+04  0.7818608E-02  0.8525835E-01
         -1   -1    0    0    0  501 -0.00000000000E+00  0.00000000000E+00  0.48467596611E+03  0.48467596611E+03  0.00000000000E+00 0.  1.
          2   -1    0    0  501    0  0.00000000000E+00 -0.00000000000E+00 -0.24564877753E+04  0.24564877753E+04  0.00000000000E+00 0. -1.
         24    2    1    2    0    0 -0.81196082111E+03  0.27692085550E+03 -0.43449714270E+03  0.96516407510E+03  0.82391684190E+02 0.  0.
        254    2    1    2    0    0  0.81196082111E+03 -0.27692085550E+03 -0.15373146665E+04  0.19759996663E+04  0.89736991380E+03 0.  0.
         23    2    4    4    0    0  0.77340125156E+03 -0.16953648692E+03 -0.52676301646E+03  0.95500277740E+03  0.87515215901E+02 0.  0.
         23    2    4    4    0    0  0.38559569550E+02 -0.10738436857E+03 -0.10105516500E+04  0.10209968889E+04  0.90563606195E+02 0.  0.
          2    1    3    3  502    0 -0.80338834406E+02  0.52019967673E+02 -0.60921304745E+02  0.11345400267E+03  0.00000000000E+00 0. -1.
         -1    1    3    3    0  502 -0.73162198671E+03  0.22490088782E+03 -0.37357583795E+03  0.85171007243E+03  0.00000000000E+00 0.  1.
         11    1    5    5    0    0  0.57274872767E+03 -0.16228337514E+03 -0.37892895004E+03  0.70566574812E+03  0.00000000000E+00 0. -1.
        -11    1    5    5    0    0  0.20065252389E+03 -0.72531117859E+01 -0.14783406642E+03  0.24933702928E+03  0.00000000000E+00 0.  1.
          3    1    6    6  503    0  0.36125663275E+02 -0.54780559915E+02 -0.83857373117E+03  0.84113725153E+03  0.00000000000E+00 0. -1.
         -3    1    6    6    0  503  0.24339062751E+01 -0.52603808657E+02 -0.17197791883E+03  0.17985963736E+03  0.00000000000E+00 0.  1.
<mgrwt>
<rscale>  0 0.21822929E+04</rscale>
<asrwt>0</asrwt>
<pdfrwt beam="1">  1        2 0.37792120E+00 0.21822929E+04</pdfrwt>
<pdfrwt beam="2">  1       -1 0.74565532E-01 0.21822929E+04</pdfrwt>
<totfact> 0.69550700E+00</totfact>
</mgrwt>
</event>
<event>
12    6  0.1510140E-007  0.2741700E+04  0.7818608E-02  0.8321600E-01
         -1   -1    0    0    0  501 -0.00000000000E+00  0.00000000000E+00  0.93273153541E+03  0.93273153541E+03  0.00000000000E+00 0.  1.
          2   -1    0    0  501    0  0.00000000000E+00 -0.00000000000E+00 -0.20147590656E+04  0.20147590656E+04  0.00000000000E+00 0. -1.
         24    2    1    2    0    0  0.12759974280E+03  0.11251897197E+03 -0.17845692625E+04  0.17939174377E+04  0.67157332403E+02 0.  0.
        254    2    1    2    0    0 -0.12759974280E+03 -0.11251897197E+03  0.70254173233E+03  0.11535731633E+04  0.89901276072E+03 0.  0.
         23    2    4    4    0    0 -0.12570927387E+03 -0.49431836493E+03  0.32949292024E+03  0.61268257504E+03  0.81614250112E+02 0.  0.
         23    2    4    4    0    0 -0.18904689332E+01  0.38179939296E+03  0.37304881209E+03  0.54089058823E+03  0.87309002434E+02 0.  0.
          4    1    3    3  502    0  0.36655726342E+02  0.71082547800E+02 -0.95687449047E+03  0.96021099837E+03  0.00000000000E+00 0. -1.
         -3    1    3    3    0  502  0.90944016461E+02  0.41436424172E+02 -0.82769477206E+03  0.83370643938E+03  0.00000000000E+00 0.  1.
         11    1    5    5    0    0 -0.75541368767E+02 -0.25647907456E+03  0.21927689806E+03  0.34578949103E+03  0.00000000000E+00 0. -1.
        -11    1    5    5    0    0 -0.50167905103E+02 -0.23783929037E+03  0.11021602218E+03  0.26689308401E+03  0.00000000000E+00 0.  1.
          4    1    6    6  503    0  0.24198612332E+02  0.31224479869E+03  0.33034971189E+03  0.45520689724E+03  0.00000000000E+00 0.  1.
         -4    1    6    6    0  503 -0.26089081265E+02  0.69554594270E+02  0.42699100195E+02  0.85683690996E+02  0.00000000000E+00 0. -1.
<mgrwt>
<rscale>  0 0.27416997E+04</rscale>
<asrwt>0</asrwt>
<pdfrwt beam="1">  1        2 0.30996293E+00 0.27416997E+04</pdfrwt>
<pdfrwt beam="2">  1       -1 0.14349716E+00 0.27416997E+04</pdfrwt>
<totfact> 0.25612964E+00</totfact>
</mgrwt>
</event>
<event>
12    6  0.1510140E-007  0.1956498E+04  0.7818608E-02  0.8627234E-01
          2   -1    0    0  501    0  0.00000000000E+00  0.00000000000E+00  0.12250487472E+04  0.12250487472E+04  0.00000000000E+00 0. -1.
         -1   -1    0    0    0  501 -0.00000000000E+00 -0.00000000000E+00 -0.78116968252E+03  0.78116968252E+03  0.00000000000E+00 0.  1.
         24    2    1    2    0    0 -0.12835831893E+03  0.65879551019E+03 -0.20648913003E+03  0.70698970804E+03  0.81910342299E+02 0.  0.
        254    2    1    2    0    0  0.12835831893E+03 -0.65879551019E+03  0.65036819467E+03  0.12992287216E+04  0.90251265930E+03 0.  0.
         23    2    4    4    0    0  0.48696569590E+03 -0.54632334591E+03  0.39926168316E+03  0.83886164159E+03  0.93135250108E+02 0.  0.
         23    2    4    4    0    0 -0.35860737697E+03 -0.11247216428E+03  0.25110651150E+03  0.46036708004E+03  0.87373506918E+02 0.  0.
          2    1    3    3  502    0 -0.89538397098E+02  0.30157505342E+03 -0.67665381132E+02  0.32178135621E+03  0.00000000000E+00 0. -1.
         -1    1    3    3    0  502 -0.38819921835E+02  0.35722045677E+03 -0.13882374890E+03  0.38520835183E+03  0.00000000000E+00 0.  1.
         11    1    5    5    0    0  0.32883426400E+03 -0.43035313163E+03  0.29739898286E+03  0.61788505896E+03  0.00000000000E+00 0. -1.
        -11    1    5    5    0    0  0.15813143190E+03 -0.11597021429E+03  0.10186270031E+03  0.22097658263E+03  0.00000000000E+00 0.  1.
          4    1    6    6  503    0 -0.72321456666E+02  0.15616201924E+01  0.19636923848E+02  0.74956257444E+02  0.00000000000E+00 0. -1.
         -4    1    6    6    0  503 -0.28628592031E+03 -0.11403378447E+03  0.23146958765E+03  0.38541082260E+03  0.00000000000E+00 0.  1.
<mgrwt>
<rscale>  0 0.19564978E+04</rscale>
<asrwt>0</asrwt>
<pdfrwt beam="1">  1        2 0.18846904E+00 0.19564978E+04</pdfrwt>
<pdfrwt beam="2">  1       -1 0.12017995E+00 0.19564978E+04</pdfrwt>
<totfact> 0.11999526E+01</totfact>
</mgrwt>
</event>
<event>
12    6  0.1510140E-007  0.5859959E+04  0.7818608E-02  0.7708012E-01
         -1   -1    0    0    0  501 -0.00000000000E+00  0.00000000000E+00  0.24011800248E+04  0.24011800248E+04  0.00000000000E+00 0.  1.
          2   -1    0    0  501    0  0.00000000000E+00 -0.00000000000E+00 -0.35752340465E+04  0.35752340465E+04  0.00000000000E+00 0. -1.
         24    2    1    2    0    0  0.45138863039E+03 -0.24713105295E+04  0.82008905382E+03  0.26439006939E+04  0.80854152550E+02 0.  0.
        254    2    1    2    0    0 -0.45138863039E+03  0.24713105295E+04 -0.19941430755E+04  0.33325133774E+04  0.90438452885E+03 0.  0.
         23    2    4    4    0    0 -0.42884179410E+03  0.60651421459E+03 -0.28239241200E+03  0.79942291298E+03  0.86987025299E+02 0.  0.
         23    2    4    4    0    0 -0.22546836282E+02  0.18647963149E+04 -0.17117506635E+04  0.25330904644E+04  0.92104890858E+02 0.  0.
          4    1    3    3  502    0  0.56842944821E+02 -0.48216008272E+03  0.16753073338E+03  0.51359128923E+03  0.00000000000E+00 0. -1.
         -3    1    3    3    0  502  0.39454568557E+03 -0.19891504468E+04  0.65255832044E+03  0.21303094046E+04  0.00000000000E+00 0.  1.
         11    1    5    5    0    0 -0.38832320646E+03  0.54915081060E+03 -0.22658769797E+03  0.70972072700E+03  0.00000000000E+00 0. -1.
        -11    1    5    5    0    0 -0.40518587641E+02  0.57363403995E+02 -0.55804714030E+02  0.89702185983E+02  0.00000000000E+00 0.  1.
          1    1    6    6  503    0  0.34794856200E+02  0.90230922065E+03 -0.82039287588E+03  0.12200070010E+04  0.00000000000E+00 0. -1.
         -1    1    6    6    0  503 -0.57341692481E+02  0.96248709424E+03 -0.89135778765E+03  0.13130834634E+04  0.00000000000E+00 0.  1.
<mgrwt>
<rscale>  0 0.58599592E+04</rscale>
<asrwt>0</asrwt>
<pdfrwt beam="1">  1        2 0.55003601E+00 0.58599592E+04</pdfrwt>
<pdfrwt beam="2">  1       -1 0.36941231E+00 0.58599592E+04</pdfrwt>
<totfact> 0.64005134E-03</totfact>
</mgrwt>
</event>
<event>
12    6  0.1510140E-007  0.2234016E+04  0.7818608E-02  0.8504402E-01
          2   -1    0    0  501    0  0.00000000000E+00  0.00000000000E+00  0.22200051563E+04  0.22200051563E+04  0.00000000000E+00 0. -1.
         -1   -1    0    0    0  501 -0.00000000000E+00 -0.00000000000E+00 -0.56202898946E+03  0.56202898946E+03  0.00000000000E+00 0.  1.
         24    2    1    2    0    0  0.35486962152E+03 -0.80440201561E+03  0.10699293384E+04  0.13871213431E+04  0.79760769308E+02 0.  0.
        254    2    1    2    0    0 -0.35486962152E+03  0.80440201561E+03  0.58804682843E+03  0.13949128027E+04  0.90938858778E+03 0.  0.
         23    2    4    4    0    0 -0.32307693248E+03  0.68251130912E+03 -0.26918420277E+02  0.76086075434E+03  0.89353761991E+02 0.  0.
         23    2    4    4    0    0 -0.31792689042E+02  0.12189070649E+03  0.61496524870E+03  0.63405204831E+03  0.89283948414E+02 0.  0.
          4    1    3    3  502    0  0.34826895611E+03 -0.75449857450E+03  0.98852623691E+03  0.12914114316E+04  0.00000000000E+00 0. -1.
         -3    1    3    3    0  502  0.66006654059E+01 -0.49903441104E+02  0.81403101541E+02  0.95709911495E+02  0.00000000000E+00 0.  1.
         11    1    5    5    0    0 -0.24419417372E+02  0.25662973688E+02  0.14123988328E+02  0.38136376461E+02  0.00000000000E+00 0.  1.
        -11    1    5    5    0    0 -0.29865751510E+03  0.65684833543E+03 -0.41042408605E+02  0.72272437788E+03  0.00000000000E+00 0. -1.
          1    1    6    6  503    0 -0.54653107455E+02  0.11901045988E+03  0.53815689175E+03  0.55386215961E+03  0.00000000000E+00 0. -1.
         -1    1    6    6    0  503  0.22860418413E+02  0.28802466091E+01  0.76808356957E+02  0.80189888695E+02  0.00000000000E+00 0.  1.
<mgrwt>
<rscale>  0 0.22340163E+04</rscale>
<asrwt>0</asrwt>
<pdfrwt beam="1">  1        2 0.34153925E+00 0.22340163E+04</pdfrwt>
<pdfrwt beam="2">  1       -1 0.86466000E-01 0.22340163E+04</pdfrwt>
<totfact> 0.68836366E+00</totfact>
</mgrwt>
</event>
<event>
12    6  0.1510140E-007  0.1733311E+04  0.7818608E-02  0.8742591E-01
          2   -1    0    0  501    0  0.00000000000E+00  0.00000000000E+00  0.10197558359E+04  0.10197558359E+04  0.00000000000E+00 0. -1.
         -1   -1    0    0    0  501 -0.00000000000E+00 -0.00000000000E+00 -0.73654077803E+03  0.73654077803E+03  0.00000000000E+00 0.  1.
         24    2    1    2    0    0  0.23314337066E+03 -0.11276403337E+03 -0.49374373778E+03  0.56289506903E+03  0.77436565240E+02 0.  0.
        254    2    1    2    0    0 -0.23314337066E+03  0.11276403337E+03  0.77695879568E+03  0.11934015449E+04  0.86802691131E+03 0.  0.
         23    2    4    4    0    0 -0.24061847616E+03 -0.34788329264E+03  0.42705873899E+03  0.60780179529E+03  0.90132233076E+02 0.  0.
         23    2    4    4    0    0  0.74751054972E+01  0.46064732601E+03  0.34990005669E+03  0.58559974965E+03  0.90802978746E+02 0.  0.
          2    1    3    3  502    0  0.13444213210E+02  0.93305711310E+01 -0.53579408033E+02  0.56022847050E+02  0.00000000000E+00 0. -1.
         -1    1    3    3    0  502  0.21969915745E+03 -0.12209460450E+03 -0.44016432975E+03  0.50687222198E+03  0.00000000000E+00 0.  1.
         11    1    5    5    0    0 -0.10162954906E+02 -0.10439821722E+02  0.48961861300E+02  0.51083650926E+02  0.00000000000E+00 0. -1.
        -11    1    5    5    0    0 -0.23045552125E+03 -0.33744347092E+03  0.37809687769E+03  0.55671814436E+03  0.00000000000E+00 0.  1.
          1    1    6    6  503    0 -0.31232686873E+02  0.20363759574E+03  0.11886175400E+03  0.23784841326E+03  0.00000000000E+00 0. -1.
         -1    1    6    6    0  503  0.38707792371E+02  0.25700973027E+03  0.23103830270E+03  0.34775133638E+03  0.00000000000E+00 0.  1.
<mgrwt>
<rscale>  0 0.17333110E+04</rscale>
<asrwt>0</asrwt>
<pdfrwt beam="1">  1        2 0.15688551E+00 0.17333110E+04</pdfrwt>
<pdfrwt beam="2">  1       -1 0.11331397E+00 0.17333110E+04</pdfrwt>
<totfact> 0.18840244E+01</totfact>
</mgrwt>
</event>
<event>
12    6  0.1510140E-007  0.2637205E+04  0.7818608E-02  0.8355672E-01
          2   -1    0    0  501    0  0.00000000000E+00  0.00000000000E+00  0.17361843199E+04  0.17361843199E+04  0.00000000000E+00 0. -1.
         -1   -1    0    0    0  501 -0.00000000000E+00 -0.00000000000E+00 -0.10014563034E+04  0.10014563034E+04  0.00000000000E+00 0.  1.
         24    2    1    2    0    0 -0.99716089254E+03  0.52270350771E+03  0.63396403028E+03  0.12945332732E+04  0.79732059288E+02 0.  0.
        254    2    1    2    0    0  0.99716089254E+03 -0.52270350771E+03  0.10076398625E+03  0.14431073500E+04  0.89713802740E+03 0.  0.
         23    2    4    4    0    0  0.64956685140E+02  0.11821760353E+03  0.25031402113E+03  0.29853024172E+03  0.90930871082E+02 0.  0.
         23    2    4    4    0    0  0.93220420740E+03 -0.64092111125E+03 -0.14955003488E+03  0.11445771083E+04  0.88921250662E+02 0.  0.
          4    1    3    3  502    0 -0.57188179938E+03  0.26612232997E+03  0.32472500977E+03  0.70944782679E+03  0.00000000000E+00 0. -1.
         -3    1    3    3    0  502 -0.42527909316E+03  0.25658117774E+03  0.30923902051E+03  0.58508544645E+03  0.00000000000E+00 0.  1.
         11    1    5    5    0    0  0.41305645606E+02  0.17126091097E+02  0.26929810494E+02  0.52198410401E+02  0.00000000000E+00 0. -1.
        -11    1    5    5    0    0  0.23651039534E+02  0.10109151244E+03  0.22338421064E+03  0.24633183132E+03  0.00000000000E+00 0.  1.
          4    1    6    6  503    0  0.64624651318E+01 -0.38022175053E+01 -0.94776124201E+01  0.12084926592E+02  0.00000000000E+00 0. -1.
         -4    1    6    6    0  503  0.92574174226E+03 -0.63711889374E+03 -0.14007242246E+03  0.11324921817E+04  0.00000000000E+00 0.  1.
<mgrwt>
<rscale>  0 0.26372051E+04</rscale>
<asrwt>0</asrwt>
<pdfrwt beam="1">  1        2 0.26710528E+00 0.26372051E+04</pdfrwt>
<pdfrwt beam="2">  1       -1 0.15407020E+00 0.26372051E+04</pdfrwt>
<totfact> 0.30492345E+00</totfact>
</mgrwt>
</event>
<event>
12    6  0.1510140E-007  0.2676536E+04  0.7818608E-02  0.8342658E-01
          2   -1    0    0  501    0  0.00000000000E+00  0.00000000000E+00  0.18744408789E+04  0.18744408789E+04  0.00000000000E+00 0. -1.
         -1   -1    0    0    0  501 -0.00000000000E+00 -0.00000000000E+00 -0.95546444546E+03  0.95546444546E+03  0.00000000000E+00 0.  1.
         24    2    1    2    0    0  0.84336341112E+03 -0.77436084483E+03  0.31784302174E+01  0.11477171352E+04  0.79674078610E+02 0.  0.
        254    2    1    2    0    0 -0.84336341112E+03  0.77436084483E+03  0.91579800322E+03  0.16821881892E+04  0.82472696078E+03 0.  0.
         23    2    4    4    0    0 -0.43965752483E+03 -0.75494708714E+02  0.39362410385E+03  0.60192524720E+03  0.91519822419E+02 0.  0.
         23    2    4    4    0    0 -0.40370588628E+03  0.84985555355E+03  0.52217389937E+03  0.10802629420E+04  0.95234122471E+02 0.  0.
          4    1    3    3  502    0  0.21682983656E+02 -0.80929636072E+01  0.69955018574E+01  0.24178190305E+02  0.00000000000E+00 0. -1.
         -1    1    3    3    0  502  0.82168042746E+03 -0.76626788123E+03 -0.38170716401E+01  0.11235389449E+04  0.00000000000E+00 0.  1.
         11    1    5    5    0    0 -0.31469394866E+03 -0.93975084823E+02  0.29827285502E+03  0.44365560284E+03  0.00000000000E+00 0.  1.
        -11    1    5    5    0    0 -0.12496357618E+03  0.18480376109E+02  0.95351248836E+02  0.15826964436E+03  0.00000000000E+00 0. -1.
          2    1    6    6  503    0 -0.49525910946E+02  0.63392176984E+02  0.68686019759E+02  0.10577879404E+03  0.00000000000E+00 0. -1.
         -2    1    6    6    0  503 -0.35417997534E+03  0.78646337656E+03  0.45348787961E+03  0.97448414793E+03  0.00000000000E+00 0.  1.
<mgrwt>
<rscale>  0 0.26765363E+04</rscale>
<asrwt>0</asrwt>
<pdfrwt beam="1">  1        2 0.28837552E+00 0.26765363E+04</pdfrwt>
<pdfrwt beam="2">  1       -1 0.14699453E+00 0.26765363E+04</pdfrwt>
<totfact> 0.28911749E+00</totfact>
</mgrwt>
</event>
<event>
12    6  0.1510140E-007  0.2909584E+04  0.7818608E-02  0.8270032E-01
          2   -1    0    0  501    0  0.00000000000E+00  0.00000000000E+00  0.28427087390E+04  0.28427087390E+04  0.00000000000E+00 0. -1.
         -3   -1    0    0    0  501 -0.00000000000E+00 -0.00000000000E+00 -0.74450799087E+03  0.74450799087E+03  0.00000000000E+00 0.  1.
         24    2    1    2    0    0  0.54334771116E+03 -0.11776273052E+04  0.68411371030E+03  0.14685151943E+04  0.80576065015E+02 0.  0.
        254    2    1    2    0    0 -0.54334771116E+03  0.11776273052E+04  0.14140870379E+04  0.21187015356E+04  0.89845491883E+03 0.  0.
         23    2    4    4    0    0 -0.87824846944E+02  0.58676868440E+03  0.10484970788E+03  0.60908999542E+03  0.89367043900E+02 0.  0.
         23    2    4    4    0    0 -0.45552286422E+03  0.59085862075E+03  0.13092373300E+04  0.15096115402E+04  0.90606988881E+02 0.  0.
          4    1    3    3  502    0  0.27483583510E+03 -0.59948510904E+03  0.30235664131E+03  0.72549064140E+03  0.00000000000E+00 0. -1.
         -3    1    3    3    0  502  0.26851187607E+03 -0.57814219611E+03  0.38175706899E+03  0.74302455292E+03  0.00000000000E+00 0.  1.
         11    1    5    5    0    0 -0.41808912019E+02  0.47326315746E+03  0.61036512094E+02  0.47901091548E+03  0.00000000000E+00 0. -1.
        -11    1    5    5    0    0 -0.46015934926E+02  0.11350552694E+03  0.43813195784E+02  0.13007907994E+03  0.00000000000E+00 0.  1.
          3    1    6    6  503    0 -0.31128034861E+03  0.34961629545E+03  0.75910348743E+03  0.89183244732E+03  0.00000000000E+00 0. -1.
         -3    1    6    6    0  503 -0.14424251561E+03  0.24124232530E+03  0.55013384257E+03  0.61777909285E+03  0.00000000000E+00 0.  1.
<mgrwt>
<rscale>  0 0.29095837E+04</rscale>
<asrwt>0</asrwt>
<pdfrwt beam="1">  1        2 0.43733980E+00 0.29095837E+04</pdfrwt>
<pdfrwt beam="2">  1       -3 0.11453969E+00 0.29095837E+04</pdfrwt>
<totfact> 0.75904512E-01</totfact>
</mgrwt>
</event>
<event>
12    6  0.1510140E-007  0.1166091E+04  0.7818608E-02  0.9143066E-01
          2   -1    0    0  501    0  0.00000000000E+00  0.00000000000E+00  0.10596566002E+04  0.10596566002E+04  0.00000000000E+00 0. -1.
         -1   -1    0    0    0  501 -0.00000000000E+00 -0.00000000000E+00 -0.32080401772E+03  0.32080401772E+03  0.00000000000E+00 0.  1.
         24    2    1    2    0    0  0.78091700743E+01 -0.21071715787E+03  0.57244782146E+02  0.23196221080E+03  0.77889655282E+02 0.  0.
        254    2    1    2    0    0 -0.78091700743E+01  0.21071715787E+03  0.68160780034E+03  0.11484984071E+04  0.89999816330E+03 0.  0.
         23    2    4    4    0    0  0.30852620287E+03 -0.21162806445E+03  0.34533248243E+03  0.51682952817E+03  0.88788412756E+02 0.  0.
         23    2    4    4    0    0 -0.31633537295E+03  0.42234522232E+03  0.33627531791E+03  0.63166887896E+03  0.86492359312E+02 0.  0.
          2    1    3    3  502    0  0.29108746755E+02 -0.94047555359E+02 -0.39070414721E+01  0.98526782043E+02  0.00000000000E+00 0. -1.
         -1    1    3    3    0  502 -0.21299576680E+02 -0.11666960251E+03  0.61151823618E+02  0.13343542876E+03  0.00000000000E+00 0.  1.
         11    1    5    5    0    0  0.20853618708E+03 -0.15621154389E+03  0.18348356351E+03  0.31867790298E+03  0.00000000000E+00 0.  1.
        -11    1    5    5    0    0  0.99990015789E+02 -0.55416520560E+02  0.16184891892E+03  0.19815162519E+03  0.00000000000E+00 0. -1.
          4    1    6    6  503    0 -0.52871431107E+02  0.38320212157E+02  0.18494741005E+02  0.67866651103E+02  0.00000000000E+00 0. -1.
         -4    1    6    6    0  503 -0.26346394184E+03  0.38402501017E+03  0.31778057691E+03  0.56380222786E+03  0.00000000000E+00 0.  1.
<mgrwt>
<rscale>  0 0.11660911E+04</rscale>
<asrwt>0</asrwt>
<pdfrwt beam="1">  1        2 0.16302409E+00 0.11660911E+04</pdfrwt>
<pdfrwt beam="2">  1       -1 0.49354465E-01 0.11660911E+04</pdfrwt>
<totfact> 0.10706901E+02</totfact>
</mgrwt>
</event>
<event>
12    6  0.1510140E-007  0.1458909E+04  0.7818608E-02  0.8912248E-01
          2   -1    0    0  501    0  0.00000000000E+00  0.00000000000E+00  0.44155524015E+03  0.44155524015E+03  0.00000000000E+00 0. -1.
         -1   -1    0    0    0  501 -0.00000000000E+00 -0.00000000000E+00 -0.12050669419E+04  0.12050669419E+04  0.00000000000E+00 0.  1.
         24    2    1    2    0    0  0.25640129094E+03 -0.21645268541E+03  0.99839457429E+02  0.35902123307E+03  0.79592345878E+02 0.  0.
        254    2    1    2    0    0 -0.25640129094E+03  0.21645268541E+03 -0.86335115920E+03  0.12876009490E+04  0.89439789397E+03 0.  0.
         23    2    4    4    0    0 -0.40094188180E+03  0.35828468491E+03 -0.18859882515E+03  0.57710225521E+03  0.91406718057E+02 0.  0.
         23    2    4    4    0    0  0.14454059086E+03 -0.14183199950E+03 -0.67475233405E+03  0.71049869378E+03  0.92246317383E+02 0.  0.
          4    1    3    3  502    0  0.67304550669E+02 -0.86199002672E+02  0.63748084597E+02  0.12658589531E+03  0.00000000000E+00 0. -1.
         -3    1    3    3    0  502  0.18909674027E+03 -0.13025368274E+03  0.36091372832E+02  0.23243533776E+03  0.00000000000E+00 0.  1.
         11    1    5    5    0    0 -0.27377684496E+03  0.21637061918E+03 -0.16191373272E+03  0.38468956643E+03  0.00000000000E+00 0.  1.
        -11    1    5    5    0    0 -0.12716503684E+03  0.14191406573E+03 -0.26685092432E+02  0.19241268878E+03  0.00000000000E+00 0. -1.
          2    1    6    6  503    0  0.54450965110E+02 -0.25043476809E+01 -0.21221581832E+03  0.21910438814E+03  0.00000000000E+00 0. -1.
         -2    1    6    6    0  503  0.90089625750E+02 -0.13932765182E+03 -0.46253651573E+03  0.49139430564E+03  0.00000000000E+00 0.  1.
<mgrwt>
<rscale>  0 0.14589087E+04</rscale>
<asrwt>0</asrwt>
<pdfrwt beam="1">  1        2 0.67931575E-01 0.14589087E+04</pdfrwt>
<pdfrwt beam="2">  1       -1 0.18539492E+00 0.14589087E+04</pdfrwt>
<totfact> 0.15001038E+01</totfact>
</mgrwt>
</event>
<event>
12    6  0.1510140E-007  0.1088971E+04  0.7818608E-02  0.9216009E-01
         -1   -1    0    0    0  501 -0.00000000000E+00  0.00000000000E+00  0.20987154026E+04  0.20987154026E+04  0.00000000000E+00 0.  1.
          2   -1    0    0  501    0  0.00000000000E+00 -0.00000000000E+00 -0.14125996864E+03  0.14125996864E+03  0.00000000000E+00 0. -1.
         24    2    1    2    0    0 -0.29026028639E+02  0.66066670169E+02  0.10349968771E+04  0.10406223999E+04  0.80430891037E+02 0.  0.
        254    2    1    2    0    0  0.29026028639E+02 -0.66066670169E+02  0.92245855690E+03  0.11993529714E+04  0.76309268480E+03 0.  0.
         23    2    4    4    0    0  0.11048979834E+02 -0.39511489637E+03  0.36544804931E+03  0.54579245704E+03  0.89995933948E+02 0.  0.
         23    2    4    4    0    0  0.17977048806E+02  0.32904822620E+03  0.55701050760E+03  0.65356051438E+03  0.91020497381E+02 0.  0.
          2    1    3    3  502    0  0.93260065063E+01 -0.15038847176E+02  0.21698740179E+03  0.21770777170E+03  0.00000000000E+00 0. -1.
         -1    1    3    3    0  502 -0.38352035146E+02  0.81105517345E+02  0.81800947531E+03  0.82291462816E+03  0.00000000000E+00 0.  1.
         11    1    5    5    0    0 -0.15878414454E+02 -0.32531840661E+03  0.26133315931E+03  0.41758736796E+03  0.00000000000E+00 0.  1.
        -11    1    5    5    0    0  0.26927394287E+02 -0.69796489756E+02  0.10411489000E+03  0.12820508907E+03  0.00000000000E+00 0. -1.
          3    1    6    6  503    0  0.13616338958E+02  0.17766925917E+03  0.21310255617E+03  0.27778493441E+03  0.00000000000E+00 0. -1.
         -3    1    6    6    0  503  0.43607098473E+01  0.15137896703E+03  0.34390795143E+03  0.37577557997E+03  0.00000000000E+00 0.  1.
<mgrwt>
<rscale>  0 0.10889710E+04</rscale>
<asrwt>0</asrwt>
<pdfrwt beam="1">  1        2 0.21732304E-01 0.10889710E+04</pdfrwt>
<pdfrwt beam="2">  1       -1 0.32287927E+00 0.10889710E+04</pdfrwt>
<totfact> 0.69909887E+00</totfact>
</mgrwt>
</event>
<event>
12    6  0.1510140E-007  0.1456680E+04  0.7818608E-02  0.8913783E-01
         -1   -1    0    0    0  501 -0.00000000000E+00  0.00000000000E+00  0.67835694396E+03  0.67835694396E+03  0.00000000000E+00 0.  1.
          2   -1    0    0  501    0  0.00000000000E+00 -0.00000000000E+00 -0.78200551159E+03  0.78200551159E+03  0.00000000000E+00 0. -1.
         24    2    1    2    0    0  0.25411013053E+03  0.24641885651E+03 -0.35059355464E+03  0.50437780597E+03  0.78656972503E+02 0.  0.
        254    2    1    2    0    0 -0.25411013053E+03 -0.24641885651E+03  0.24694498701E+03  0.95598464958E+03  0.85301266833E+03 0.  0.
         23    2    4    4    0    0  0.15226561490E+02  0.29522334843E+03  0.12307738930E+03  0.33170823029E+03  0.86565770659E+02 0.  0.
         23    2    4    4    0    0 -0.26933669202E+03 -0.54164220494E+03  0.12386759772E+03  0.62427641929E+03  0.91974638238E+02 0.  0.
          2    1    3    3  502    0  0.22894448129E+03  0.18754727459E+03 -0.26333452918E+03  0.39614975701E+03  0.00000000000E+00 0. -1.
         -1    1    3    3    0  502  0.25165649246E+02  0.58871581913E+02 -0.87259025458E+02  0.10822804897E+03  0.00000000000E+00 0.  1.
         11    1    5    5    0    0 -0.18763092544E+02  0.19374911565E+03  0.11082609639E+03  0.22399374343E+03  0.00000000000E+00 0. -1.
        -11    1    5    5    0    0  0.33989654034E+02  0.10147423278E+03  0.12251292910E+02  0.10771448685E+03  0.00000000000E+00 0.  1.
          3    1    6    6  503    0 -0.12245566011E+03 -0.33008897904E+03  0.45048195426E+02  0.35494149192E+03  0.00000000000E+00 0. -1.
         -3    1    6    6    0  503 -0.14688103191E+03 -0.21155322590E+03  0.78819402290E+02  0.26933492737E+03  0.00000000000E+00 0.  1.
<mgrwt>
<rscale>  0 0.14566796E+04</rscale>
<asrwt>0</asrwt>
<pdfrwt beam="1">  1        2 0.12030854E+00 0.14566796E+04</pdfrwt>
<pdfrwt beam="2">  1       -1 0.10436261E+00 0.14566796E+04</pdfrwt>
<totfact> 0.33942555E+01</totfact>
</mgrwt>
</event>
<event>
12    6  0.1510140E-007  0.1226473E+04  0.7818608E-02  0.9089995E-01
         -1   -1    0    0    0  501 -0.00000000000E+00  0.00000000000E+00  0.17511314992E+03  0.17511314992E+03  0.00000000000E+00 0.  1.
          2   -1    0    0  501    0  0.00000000000E+00 -0.00000000000E+00 -0.21475204360E+04  0.21475204360E+04  0.00000000000E+00 0. -1.
         24    2    1    2    0    0  0.16721786302E+03 -0.19603899231E+03 -0.38869546474E+03  0.47326261805E+03  0.80624072815E+02 0.  0.
        254    2    1    2    0    0 -0.16721786302E+03  0.19603899231E+03 -0.15837118213E+04  0.18493709678E+04  0.91958509311E+03 0.  0.
         23    2    4    4    0    0 -0.41286732481E+03 -0.12923794923E+03 -0.12103518488E+04  0.12886461023E+04  0.92169971987E+02 0.  0.
         23    2    4    4    0    0  0.24564946179E+03  0.32527694155E+03 -0.37335997256E+03  0.56072486555E+03  0.94159221298E+02 0.  0.
          4    1    3    3  502    0  0.14313086974E+03 -0.15890186954E+03 -0.25708815592E+03  0.33441078022E+03  0.00000000000E+00 0. -1.
         -3    1    3    3    0  502  0.24086993277E+02 -0.37137122771E+02 -0.13160730883E+03  0.13885183783E+03  0.00000000000E+00 0.  1.
         11    1    5    5    0    0 -0.10059093214E+03 -0.20782546532E+02 -0.41089749285E+03  0.42354126068E+03  0.00000000000E+00 0. -1.
        -11    1    5    5    0    0 -0.31227639266E+03 -0.10845540270E+03 -0.79945435592E+03  0.86510484161E+03  0.00000000000E+00 0.  1.
          3    1    6    6  503    0  0.15478888572E+03  0.22867435438E+03 -0.30532387378E+03  0.41167247587E+03  0.00000000000E+00 0.  1.
         -3    1    6    6    0  503  0.90860576064E+02  0.96602587166E+02 -0.68036098787E+02  0.14905238968E+03  0.00000000000E+00 0. -1.
<mgrwt>
<rscale>  0 0.12264731E+04</rscale>
<asrwt>0</asrwt>
<pdfrwt beam="1">  1        2 0.33038774E+00 0.12264731E+04</pdfrwt>
<pdfrwt beam="2">  1       -1 0.26940486E-01 0.12264731E+04</pdfrwt>
<totfact> 0.76521134E+01</totfact>
</mgrwt>
</event>
<event>
12    6  0.1510140E-007  0.2623590E+04  0.7818608E-02  0.8360232E-01
          2   -1    0    0  501    0  0.00000000000E+00  0.00000000000E+00  0.29384348750E+04  0.29384348750E+04  0.00000000000E+00 0. -1.
         -1   -1    0    0    0  501 -0.00000000000E+00 -0.00000000000E+00 -0.58561986047E+03  0.58561986047E+03  0.00000000000E+00 0.  1.
         24    2    1    2    0    0 -0.51118558831E+03 -0.40589969271E+03  0.23661598692E+04  0.24560002628E+04  0.84613818146E+02 0.  0.
        254    2    1    2    0    0  0.51118558831E+03  0.40589969271E+03 -0.13344854687E+02  0.10680544726E+04  0.84527924681E+03 0.  0.
         23    2    4    4    0    0  0.32742555641E+03  0.56493798004E+03  0.24291794624E+03  0.70273557398E+03  0.92009467138E+02 0.  0.
         23    2    4    4    0    0  0.18376003189E+03 -0.15903828733E+03 -0.25626280093E+03  0.36531889863E+03  0.93414926008E+02 0.  0.
          4    1    3    3  502    0 -0.25862949534E+03 -0.24244519464E+03  0.13931797848E+04  0.14375739289E+04  0.00000000000E+00 0. -1.
         -3    1    3    3    0  502 -0.25255609296E+03 -0.16345449807E+03  0.97298008443E+03  0.10184263340E+04  0.00000000000E+00 0.  1.
         11    1    5    5    0    0  0.10164847802E+03  0.22728546085E+03  0.13137938451E+03  0.28151667174E+03  0.00000000000E+00 0. -1.
        -11    1    5    5    0    0  0.22577707839E+03  0.33765251919E+03  0.11153856173E+03  0.42121890223E+03  0.00000000000E+00 0.  1.
          3    1    6    6  503    0  0.52652025513E+02 -0.10377359855E+03 -0.94644238620E+02  0.14999575811E+03  0.00000000000E+00 0. -1.
         -3    1    6    6    0  503  0.13110800638E+03 -0.55264688780E+02 -0.16161856231E+03  0.21532314052E+03  0.00000000000E+00 0.  1.
<mgrwt>
<rscale>  0 0.26235898E+04</rscale>
<asrwt>0</asrwt>
<pdfrwt beam="1">  1        2 0.45206690E+00 0.26235898E+04</pdfrwt>
<pdfrwt beam="2">  1       -1 0.90095364E-01 0.26235898E+04</pdfrwt>
<totfact> 0.23004692E+00</totfact>
</mgrwt>
</event>
<event>
12    6  0.1510140E-007  0.1960801E+04  0.7818608E-02  0.8625170E-01
         -3   -1    0    0    0  501 -0.00000000000E+00  0.00000000000E+00  0.11216488075E+04  0.11216488075E+04  0.00000000000E+00 0.  1.
          2   -1    0    0  501    0  0.00000000000E+00 -0.00000000000E+00 -0.85693967067E+03  0.85693967067E+03  0.00000000000E+00 0. -1.
         24    2    1    2    0    0 -0.38870513466E+03 -0.19560725233E+03  0.74470007521E+03  0.86622437028E+03  0.80078578691E+02 0.  0.
        254    2    1    2    0    0  0.38870513466E+03  0.19560725233E+03 -0.47999093833E+03  0.11123641079E+04  0.90421719121E+03 0.  0.
         23    2    4    4    0    0  0.68667866471E+02 -0.76316447410E+02  0.23820882854E+03  0.27521257402E+03  0.91973033408E+02 0.  0.
         23    2    4    4    0    0  0.32003726819E+03  0.27192369974E+03 -0.71819976687E+03  0.83715153392E+03  0.92980826503E+02 0.  0.
          4    1    3    3  502    0 -0.21244785374E+03 -0.11333374358E+03  0.33351867364E+03  0.41135548332E+03  0.00000000000E+00 0. -1.
         -1    1    3    3    0  502 -0.17625728091E+03 -0.82273508743E+02  0.41118140157E+03  0.45486888695E+03  0.00000000000E+00 0.  1.
         11    1    5    5    0    0  0.34894240970E+02 -0.48999013992E+01  0.14748081755E+02  0.38198468583E+02  0.00000000000E+00 0. -1.
        -11    1    5    5    0    0  0.33773625501E+02 -0.71416546011E+02  0.22346074678E+03  0.23701410544E+03  0.00000000000E+00 0.  1.
          1    1    6    6  503    0  0.56150868942E+02  0.51956693814E+02 -0.70740524641E+02  0.10419520114E+03  0.00000000000E+00 0. -1.
         -1    1    6    6    0  503  0.26388639925E+03  0.21996700592E+03 -0.64745924223E+03  0.73295633277E+03  0.00000000000E+00 0.  1.
<mgrwt>
<rscale>  0 0.19608012E+04</rscale>
<asrwt>0</asrwt>
<pdfrwt beam="1">  1        2 0.13183687E+00 0.19608012E+04</pdfrwt>
<pdfrwt beam="2">  1       -3 0.17256135E+00 0.19608012E+04</pdfrwt>
<totfact> 0.40903259E+00</totfact>
</mgrwt>
</event>
<event>
12    6  0.1510140E-007  0.1317292E+04  0.7818608E-02  0.9015964E-01
         -1   -1    0    0    0  501 -0.00000000000E+00  0.00000000000E+00  0.29628514693E+03  0.29628514693E+03  0.00000000000E+00 0.  1.
          2   -1    0    0  501    0  0.00000000000E+00 -0.00000000000E+00 -0.14641784693E+04  0.14641784693E+04  0.00000000000E+00 0. -1.
         24    2    1    2    0    0  0.43049396633E+02  0.31098494681E+03 -0.52394524990E+03  0.61588943600E+03  0.78970151316E+02 0.  0.
        254    2    1    2    0    0 -0.43049396633E+02 -0.31098494681E+03 -0.64394807245E+03  0.11445741802E+04  0.89264553228E+03 0.  0.
         23    2    4    4    0    0 -0.85369977771E+01  0.27456367819E+03 -0.31140981084E+02  0.29142813753E+03  0.92209028459E+02 0.  0.
         23    2    4    4    0    0 -0.34512398856E+02 -0.58554862500E+03 -0.61280709136E+03  0.85314604267E+03  0.90924919544E+02 0.  0.
          2    1    3    3  502    0  0.15922468195E+02  0.16829123483E+03 -0.20704993047E+03  0.26729223412E+03  0.00000000000E+00 0. -1.
         -1    1    3    3    0  502  0.27126928437E+02  0.14269371197E+03 -0.31689531942E+03  0.34859720188E+03  0.00000000000E+00 0.  1.
         11    1    5    5    0    0  0.14827686959E+02  0.74451247284E+02 -0.47079116868E+02  0.89326881552E+02  0.00000000000E+00 0. -1.
        -11    1    5    5    0    0 -0.23364684736E+02  0.20011243091E+03  0.15938135784E+02  0.20210125598E+03  0.00000000000E+00 0.  1.
          1    1    6    6  503    0  0.22205663618E+02 -0.87758498070E+02 -0.12072785137E+03  0.15089685078E+03  0.00000000000E+00 0. -1.
         -1    1    6    6    0  503 -0.56718062474E+02 -0.49779012693E+03 -0.49207923999E+03  0.70224919189E+03  0.00000000000E+00 0.  1.
<mgrwt>
<rscale>  0 0.13172917E+04</rscale>
<asrwt>0</asrwt>
<pdfrwt beam="1">  1        2 0.22525823E+00 0.13172917E+04</pdfrwt>
<pdfrwt beam="2">  1       -1 0.45582329E-01 0.13172917E+04</pdfrwt>
<totfact> 0.70924315E+01</totfact>
</mgrwt>
</event>
<event>
12    6  0.1510140E-007  0.1374659E+04  0.7818608E-02  0.8972368E-01
          2   -1    0    0  501    0  0.00000000000E+00  0.00000000000E+00  0.19883815047E+04  0.19883815047E+04  0.00000000000E+00 0. -1.
         -1   -1    0    0    0  501 -0.00000000000E+00 -0.00000000000E+00 -0.23759126984E+03  0.23759126984E+03  0.00000000000E+00 0.  1.
         24    2    1    2    0    0 -0.13069503838E+03 -0.21203532391E+03  0.19992918607E+02  0.26227643099E+03  0.79680849727E+02 0.  0.
        254    2    1    2    0    0  0.13069503838E+03  0.21203532391E+03  0.17307973163E+04  0.19636963436E+04  0.89353444708E+03 0.  0.
         23    2    4    4    0    0 -0.91015219404E+02  0.16821139950E+02  0.16387750020E+04  0.16439170505E+04  0.91175879409E+02 0.  0.
         23    2    4    4    0    0  0.22171025779E+03  0.19521418396E+03  0.92022314295E+02  0.31977929305E+03  0.80787832688E+02 0.  0.
          2    1    3    3  502    0 -0.13326619600E+03 -0.20511225020E+03  0.33495356682E+02  0.24688631614E+03  0.00000000000E+00 0. -1.
         -1    1    3    3    0  502  0.25711576161E+01 -0.69230737137E+01 -0.13502438074E+02  0.15390114849E+02  0.00000000000E+00 0.  1.
         11    1    5    5    0    0 -0.82447486069E+02 -0.25840531013E+02  0.10976550558E+04  0.11010503815E+04  0.00000000000E+00 0.  1.
        -11    1    5    5    0    0 -0.85677333354E+01  0.42661670963E+02  0.54111994612E+03  0.54286666901E+03  0.00000000000E+00 0. -1.
          1    1    6    6  503    0  0.88548716314E+02  0.32584341277E+02  0.13096956666E+02  0.95258305314E+02  0.00000000000E+00 0. -1.
         -1    1    6    6    0  503  0.13316154147E+03  0.16262984269E+03  0.78925357629E+02  0.22452098774E+03  0.00000000000E+00 0.  1.
<mgrwt>
<rscale>  0 0.13746594E+04</rscale>
<asrwt>0</asrwt>
<pdfrwt beam="1">  1        2 0.30590484E+00 0.13746594E+04</pdfrwt>
<pdfrwt beam="2">  1       -1 0.36552504E-01 0.13746594E+04</pdfrwt>
<totfact> 0.54088988E+01</totfact>
</mgrwt>
</event>
<event>
12    6  0.1510140E-007  0.1484949E+04  0.7818608E-02  0.8894524E-01
         -1   -1    0    0    0  501 -0.00000000000E+00  0.00000000000E+00  0.44530480060E+03  0.44530480060E+03  0.00000000000E+00 0.  1.
          2   -1    0    0  501    0  0.00000000000E+00 -0.00000000000E+00 -0.12379567067E+04  0.12379567067E+04  0.00000000000E+00 0. -1.
         24    2    1    2    0    0  0.20987724242E+03  0.25010967854E+03  0.12432967145E+03  0.35920115872E+03  0.83452363875E+02 0.  0.
        254    2    1    2    0    0 -0.20987724242E+03 -0.25010967854E+03 -0.91698157760E+03  0.13240603486E+04  0.89759527905E+03 0.  0.
         23    2    4    4    0    0 -0.39497138756E+03  0.18500230075E+03 -0.60259596017E+03  0.74892250363E+03  0.86803093033E+02 0.  0.
         23    2    4    4    0    0  0.18509414514E+03 -0.43511197930E+03 -0.31438561743E+03  0.57513784499E+03  0.91449150952E+02 0.  0.
          2    1    3    3  502    0  0.39753737651E+02  0.55883411738E+02  0.64535007809E+02  0.94170497491E+02  0.00000000000E+00 0. -1.
         -1    1    3    3    0  502  0.17012350477E+03  0.19422626680E+03  0.59794663644E+02  0.26503066123E+03  0.00000000000E+00 0.  1.
         11    1    5    5    0    0 -0.94308160012E+02  0.55710110925E+02 -0.21760547488E+03  0.24361811961E+03  0.00000000000E+00 0.  1.
        -11    1    5    5    0    0 -0.30066322755E+03  0.12929218983E+03 -0.38499048529E+03  0.50530438402E+03  0.00000000000E+00 0. -1.
          4    1    6    6  503    0  0.12847187344E+03 -0.37554027652E+03 -0.23717820793E+03  0.46237325168E+03  0.00000000000E+00 0.  1.
         -4    1    6    6    0  503  0.56622271699E+02 -0.59571702779E+02 -0.77207409503E+02  0.11276459332E+03  0.00000000000E+00 0. -1.
<mgrwt>
<rscale>  0 0.14849486E+04</rscale>
<asrwt>0</asrwt>
<pdfrwt beam="1">  1        2 0.19045487E+00 0.14849486E+04</pdfrwt>
<pdfrwt beam="2">  1       -1 0.68508432E-01 0.14849486E+04</pdfrwt>
<totfact> 0.42762648E+01</totfact>
</mgrwt>
</event>
<event>
12    6  0.1510140E-007  0.2360622E+04  0.7818608E-02  0.8454395E-01
         -1   -1    0    0    0  501 -0.00000000000E+00  0.00000000000E+00  0.67037920408E+03  0.67037920408E+03  0.00000000000E+00 0.  1.
          2   -1    0    0  501    0  0.00000000000E+00 -0.00000000000E+00 -0.20781291780E+04  0.20781291780E+04  0.00000000000E+00 0. -1.
         24    2    1    2    0    0  0.78751891199E+02  0.52270474841E+03  0.39423752031E+03  0.66436857721E+03  0.80871933275E+02 0.  0.
        254    2    1    2    0    0 -0.78751891199E+02 -0.52270474841E+03 -0.18019874943E+04  0.20841398049E+04  0.90391243078E+03 0.  0.
         23    2    4    4    0    0  0.22793266835E+03 -0.62501438969E+03 -0.14470287017E+04  0.15954558441E+04  0.94820874442E+02 0.  0.
         23    2    4    4    0    0 -0.30668455955E+03  0.10230964129E+03 -0.35495879254E+03  0.48868396080E+03  0.91069135165E+02 0.  0.
          2    1    3    3  502    0  0.47914690601E+01  0.77220795903E+02  0.95540442388E+02  0.12293895081E+03  0.00000000000E+00 0. -1.
         -1    1    3    3    0  502  0.73960422139E+02  0.44548395250E+03  0.29869707792E+03  0.54142962639E+03  0.00000000000E+00 0.  1.
         11    1    5    5    0    0  0.29185281066E+02 -0.13388620552E+03 -0.22385022831E+03  0.26246184746E+03  0.00000000000E+00 0. -1.
        -11    1    5    5    0    0  0.19874738729E+03 -0.49112818417E+03 -0.12231784734E+04  0.13329939966E+04  0.00000000000E+00 0.  1.
          1    1    6    6  503    0 -0.12772069551E+03  0.31758008874E+02 -0.20992033948E+03  0.24776540541E+03  0.00000000000E+00 0. -1.
         -1    1    6    6    0  503 -0.17896386405E+03  0.70551632412E+02 -0.14503845306E+03  0.24091855540E+03  0.00000000000E+00 0.  1.
<mgrwt>
<rscale>  0 0.23606224E+04</rscale>
<asrwt>0</asrwt>
<pdfrwt beam="1">  1        2 0.31971218E+00 0.23606224E+04</pdfrwt>
<pdfrwt beam="2">  1       -1 0.10313526E+00 0.23606224E+04</pdfrwt>
<totfact> 0.55062895E+00</totfact>
</mgrwt>
</event>
<event>
12    6  0.1510140E-007  0.1793307E+04  0.7818608E-02  0.8709867E-01
         -1   -1    0    0    0  501 -0.00000000000E+00  0.00000000000E+00  0.45191435955E+03  0.45191435955E+03  0.00000000000E+00 0.  1.
          2   -1    0    0  501    0  0.00000000000E+00 -0.00000000000E+00 -0.17790704125E+04  0.17790704125E+04  0.00000000000E+00 0. -1.
         24    2    1    2    0    0  0.40558023232E+03 -0.50052938822E+03 -0.68319287540E+03  0.94238436156E+03  0.79440459383E+02 0.  0.
        254    2    1    2    0    0 -0.40558023232E+03  0.50052938822E+03 -0.64396317753E+03  0.12886004105E+04  0.91146993947E+03 0.  0.
         23    2    4    4    0    0 -0.64934330740E+03  0.16324729541E+03 -0.29217660433E+03  0.73616583731E+03  0.90975609843E+02 0.  0.
         23    2    4    4    0    0  0.24376307508E+03  0.33728209281E+03 -0.35178657320E+03  0.55243457317E+03  0.90832360127E+02 0.  0.
          4    1    3    3  502    0  0.27767063372E+03 -0.35565425376E+03 -0.42480887423E+03  0.61972050851E+03  0.00000000000E+00 0. -1.
         -3    1    3    3    0  502  0.12790959860E+03 -0.14487513446E+03 -0.25838400118E+03  0.32266385305E+03  0.00000000000E+00 0.  1.
         11    1    5    5    0    0 -0.58873577111E+03  0.17226236902E+03 -0.27686754408E+03  0.67300800064E+03  0.00000000000E+00 0.  1.
        -11    1    5    5    0    0 -0.60607536287E+02 -0.90150736057E+01 -0.15309060247E+02  0.63157836668E+02  0.00000000000E+00 0. -1.
          1    1    6    6  503    0  0.14579622726E+03  0.26849680105E+03 -0.26689710793E+03  0.40568600947E+03  0.00000000000E+00 0. -1.
         -1    1    6    6    0  503  0.97966847817E+02  0.68785291751E+02 -0.84889465276E+02  0.14674856370E+03  0.00000000000E+00 0.  1.
<mgrwt>
<rscale>  0 0.17933070E+04</rscale>
<asrwt>0</asrwt>
<pdfrwt beam="1">  1        2 0.27370314E+00 0.17933070E+04</pdfrwt>
<pdfrwt beam="2">  1       -1 0.69525285E-01 0.17933070E+04</pdfrwt>
<totfact> 0.19949629E+01</totfact>
</mgrwt>
</event>
<event>
12    6  0.1510140E-007  0.1412436E+04  0.7818608E-02  0.8944866E-01
         -1   -1    0    0    0  501 -0.00000000000E+00  0.00000000000E+00  0.31140956660E+03  0.31140956660E+03  0.00000000000E+00 0.  1.
          2   -1    0    0  501    0  0.00000000000E+00 -0.00000000000E+00 -0.16015688957E+04  0.16015688957E+04  0.00000000000E+00 0. -1.
         24    2    1    2    0    0 -0.19995029338E+02 -0.63031559770E+02  0.17413292610E+03  0.20248030336E+03  0.79392811848E+02 0.  0.
        254    2    1    2    0    0  0.19995029338E+02  0.63031559770E+02 -0.14642922552E+04  0.17104981590E+04  0.88163448456E+03 0.  0.
         23    2    4    4    0    0 -0.37050618972E+03  0.54906718297E+02 -0.33193229271E+03  0.50904150117E+03  0.93030202848E+02 0.  0.
         23    2    4    4    0    0  0.39050121906E+03  0.81248414733E+01 -0.11323599625E+04  0.12014566578E+04  0.93283442720E+02 0.  0.
          2    1    3    3  502    0  0.20192119653E+02 -0.47574254612E+00  0.10537272295E+02  0.22781179392E+02  0.00000000000E+00 0. -1.
         -1    1    3    3    0  502 -0.40187148991E+02 -0.62555817224E+02  0.16359565380E+03  0.17969912397E+03  0.00000000000E+00 0.  1.
         11    1    5    5    0    0 -0.11096893569E+03 -0.17715391035E+02 -0.65501857399E+02  0.13007087718E+03  0.00000000000E+00 0.  1.
        -11    1    5    5    0    0 -0.25953725403E+03  0.72622109332E+02 -0.26643043531E+03  0.37897062400E+03  0.00000000000E+00 0. -1.
          3    1    6    6  503    0  0.35646607199E+03  0.20931024040E+02 -0.10815691221E+04  0.11389898745E+04  0.00000000000E+00 0. -1.
         -3    1    6    6    0  503  0.34035147071E+02 -0.12806182567E+02 -0.50790840403E+02  0.62466783309E+02  0.00000000000E+00 0.  1.
<mgrwt>
<rscale>  0 0.14124360E+04</rscale>
<asrwt>0</asrwt>
<pdfrwt beam="1">  1        2 0.24639522E+00 0.14124360E+04</pdfrwt>
<pdfrwt beam="2">  1       -1 0.47909164E-01 0.14124360E+04</pdfrwt>
<totfact> 0.53671202E+01</totfact>
</mgrwt>
</event>
<event>
12    6  0.1510140E-007  0.1816164E+04  0.7818608E-02  0.8697751E-01
         -1   -1    0    0    0  501 -0.00000000000E+00  0.00000000000E+00  0.70072888233E+03  0.70072888233E+03  0.00000000000E+00 0.  1.
          2   -1    0    0  501    0  0.00000000000E+00 -0.00000000000E+00 -0.11767931328E+04  0.11767931328E+04  0.00000000000E+00 0. -1.
         24    2    1    2    0    0 -0.21812973630E+03  0.59582193934E+03  0.79363804384E+02  0.64432023944E+03  0.79155494116E+02 0.  0.
        254    2    1    2    0    0  0.21812973630E+03 -0.59582193934E+03 -0.55542805486E+03  0.12332017757E+04  0.89983439043E+03 0.  0.
         23    2    4    4    0    0 -0.38451998798E+02 -0.68657367937E+03 -0.63166964606E+03  0.93819385360E+03  0.91319175278E+02 0.  0.
         23    2    4    4    0    0  0.25658173510E+03  0.90751740029E+02  0.76241591198E+02  0.29500792210E+03  0.84538918648E+02 0.  0.
          2    1    3    3  502    0 -0.72543877299E+01  0.21258843793E+02 -0.12053337651E+02  0.25492107196E+02  0.00000000000E+00 0. -1.
         -1    1    3    3    0  502 -0.21087534857E+03  0.57456309554E+03  0.91417142035E+02  0.61882813224E+03  0.00000000000E+00 0.  1.
         11    1    5    5    0    0 -0.39861803098E+02 -0.16688181171E+03 -0.12405229636E+03  0.21172499772E+03  0.00000000000E+00 0.  1.
        -11    1    5    5    0    0  0.14098042996E+01 -0.51969186766E+03 -0.50761734969E+03  0.72646885588E+03  0.00000000000E+00 0. -1.
          3    1    6    6  503    0  0.25412770853E+03  0.81656194266E+02  0.56077110717E+02  0.27275129450E+03  0.00000000000E+00 0. -1.
         -3    1    6    6    0  503  0.24540265759E+01  0.90955457633E+01  0.20164480481E+02  0.22256627603E+02  0.00000000000E+00 0.  1.
<mgrwt>
<rscale>  0 0.18161640E+04</rscale>
<asrwt>0</asrwt>
<pdfrwt beam="1">  1        2 0.18104510E+00 0.18161640E+04</pdfrwt>
<pdfrwt beam="2">  1       -1 0.10780444E+00 0.18161640E+04</pdfrwt>
<totfact> 0.16832518E+01</totfact>
</mgrwt>
</event>
<event>
12    6  0.1510140E-007  0.3807234E+04  0.7818608E-02  0.8044604E-01
          2   -1    0    0  501    0  0.00000000000E+00  0.00000000000E+00  0.21089037557E+04  0.21089037557E+04  0.00000000000E+00 0. -1.
         -1   -1    0    0    0  501 -0.00000000000E+00 -0.00000000000E+00 -0.17183132595E+04  0.17183132595E+04  0.00000000000E+00 0.  1.
         24    2    1    2    0    0  0.91647958572E+02  0.24407685607E+03 -0.16033205459E+04  0.16262824599E+04  0.78644812761E+02 0.  0.
        254    2    1    2    0    0 -0.91647958572E+02 -0.24407685607E+03  0.19939110421E+04  0.22009345553E+04  0.89468363853E+03 0.  0.
         23    2    4    4    0    0  0.36438993723E+03  0.44665298152E+02  0.92797449569E+03  0.10027708571E+04  0.98171849223E+02 0.  0.
         23    2    4    4    0    0 -0.45603789580E+03 -0.28874215422E+03  0.10659365464E+04  0.11981636982E+04  0.89626629707E+02 0.  0.
          2    1    3    3  502    0 -0.14422437742E+02  0.33612307578E+02 -0.20391346824E+03  0.20716779784E+03  0.00000000000E+00 0. -1.
         -1    1    3    3    0  502  0.10607039631E+03  0.21046454849E+03 -0.13994070777E+04  0.14191146621E+04  0.00000000000E+00 0.  1.
         11    1    5    5    0    0  0.22557249308E+03  0.75394550155E+02  0.58067649817E+03  0.62749699868E+03  0.00000000000E+00 0. -1.
        -11    1    5    5    0    0  0.13881744415E+03 -0.30729252004E+02  0.34729799752E+03  0.37527385841E+03  0.00000000000E+00 0.  1.
          2    1    6    6  503    0 -0.39532761920E+03 -0.27120592918E+03  0.98505928747E+03  0.10955265320E+04  0.00000000000E+00 0. -1.
         -2    1    6    6    0  503 -0.60710276602E+02 -0.17536225041E+02  0.80877258909E+02  0.10263716618E+03  0.00000000000E+00 0.  1.
<mgrwt>
<rscale>  0 0.38072338E+04</rscale>
<asrwt>0</asrwt>
<pdfrwt beam="1">  1        2 0.32444673E+00 0.38072338E+04</pdfrwt>
<pdfrwt beam="2">  1       -1 0.26435589E+00 0.38072338E+04</pdfrwt>
<totfact> 0.29763506E-01</totfact>
</mgrwt>
</event>
<event>
12    6  0.1510140E-007  0.2389833E+04  0.7818608E-02  0.8443320E-01
          2   -1    0    0  501    0  0.00000000000E+00  0.00000000000E+00  0.45629113704E+04  0.45629113704E+04  0.00000000000E+00 0. -1.
         -1   -1    0    0    0  501 -0.00000000000E+00 -0.00000000000E+00 -0.31291976995E+03  0.31291976995E+03  0.00000000000E+00 0.  1.
         24    2    1    2    0    0  0.19655528932E+02  0.10204074788E+04  0.17000245007E+04  0.19845023063E+04  0.80921801032E+02 0.  0.
        254    2    1    2    0    0 -0.19655528932E+02 -0.10204074788E+04  0.25499670997E+04  0.28913288341E+04  0.90323444047E+03 0.  0.
         23    2    4    4    0    0 -0.10898660164E+03 -0.50107214262E+03  0.21792799329E+04  0.22406408148E+04  0.90878289506E+02 0.  0.
         23    2    4    4    0    0  0.89331072703E+02 -0.51933533620E+03  0.37068716676E+03  0.65068801923E+03  0.91086172344E+02 0.  0.
          2    1    3    3  502    0  0.26649083943E+02  0.28132964362E+03  0.41490636551E+03  0.50199983485E+03  0.00000000000E+00 0. -1.
         -1    1    3    3    0  502 -0.69935550104E+01  0.73907783521E+03  0.12851181352E+04  0.14825024714E+04  0.00000000000E+00 0.  1.
         11    1    5    5    0    0 -0.18407561964E+02 -0.28379678875E+03  0.11233755495E+04  0.11588149467E+04  0.00000000000E+00 0.  1.
        -11    1    5    5    0    0 -0.90579039671E+02 -0.21727535387E+03  0.10559043835E+04  0.10818258681E+04  0.00000000000E+00 0. -1.
          1    1    6    6  503    0  0.99721054452E+02 -0.37649265955E+03  0.24490510151E+03  0.46007555917E+03  0.00000000000E+00 0. -1.
         -1    1    6    6    0  503 -0.10389981750E+02 -0.14284267665E+03  0.12578206524E+03  0.19061246006E+03  0.00000000000E+00 0.  1.
<mgrwt>
<rscale>  0 0.23898328E+04</rscale>
<asrwt>0</asrwt>
<pdfrwt beam="1">  1        2 0.70198632E+00 0.23898328E+04</pdfrwt>
<pdfrwt beam="2">  1       -1 0.48141506E-01 0.23898328E+04</pdfrwt>
<totfact> 0.47462840E-01</totfact>
</mgrwt>
</event>
<event>
12    6  0.1510140E-007  0.1912453E+04  0.7818608E-02  0.8648683E-01
          2   -1    0    0  501    0  0.00000000000E+00  0.00000000000E+00  0.45243104661E+03  0.45243104661E+03  0.00000000000E+00 0. -1.
         -1   -1    0    0    0  501 -0.00000000000E+00 -0.00000000000E+00 -0.20210127347E+04  0.20210127347E+04  0.00000000000E+00 0.  1.
         24    2    1    2    0    0 -0.35661920115E+03  0.52355012396E+03 -0.11020689330E+04  0.12736478927E+04  0.79630612399E+02 0.  0.
        254    2    1    2    0    0  0.35661920115E+03 -0.52355012396E+03 -0.46651275511E+03  0.11997958887E+04  0.90586645643E+03 0.  0.
         23    2    4    4    0    0  0.52466708490E+03 -0.15768502541E+03  0.26117704122E+02  0.55678857882E+03  0.95871110455E+02 0.  0.
         23    2    4    4    0    0 -0.16804788376E+03 -0.36586509855E+03 -0.49263045923E+03  0.64300730986E+03  0.93146495336E+02 0.  0.
          4    1    3    3  502    0  0.29342223111E+01  0.10174138612E+02 -0.29930973106E+02  0.31748793806E+02  0.00000000000E+00 0. -1.
         -3    1    3    3    0  502 -0.35955342346E+03  0.51337598535E+03 -0.10721379599E+04  0.12418990989E+04  0.00000000000E+00 0.  1.
         11    1    5    5    0    0  0.40732073336E+03 -0.79181887427E+02  0.22603034026E+02  0.41556088395E+03  0.00000000000E+00 0. -1.
        -11    1    5    5    0    0  0.11734635155E+03 -0.78503137983E+02  0.35146700962E+01  0.14122769488E+03  0.00000000000E+00 0.  1.
          3    1    6    6  503    0 -0.98690527974E+02 -0.17523516087E+03 -0.31304346498E+03  0.37207982058E+03  0.00000000000E+00 0. -1.
         -3    1    6    6    0  503 -0.69357355784E+02 -0.19062993768E+03 -0.17958699425E+03  0.27092748928E+03  0.00000000000E+00 0.  1.
<mgrwt>
<rscale>  0 0.19124528E+04</rscale>
<asrwt>0</asrwt>
<pdfrwt beam="1">  1        2 0.69604775E-01 0.19124528E+04</pdfrwt>
<pdfrwt beam="2">  1       -1 0.31092504E+00 0.19124528E+04</pdfrwt>
<totfact> 0.20749948E+00</totfact>
</mgrwt>
</event>
<event>
12    6  0.1510140E-007  0.1893655E+04  0.7818608E-02  0.8658021E-01
          2   -1    0    0  501    0  0.00000000000E+00  0.00000000000E+00  0.16637384221E+04  0.16637384221E+04  0.00000000000E+00 0. -1.
         -1   -1    0    0    0  501 -0.00000000000E+00 -0.00000000000E+00 -0.53883584815E+03  0.53883584815E+03  0.00000000000E+00 0.  1.
         24    2    1    2    0    0  0.57269110282E+03 -0.40435712831E+03  0.20135728925E+03  0.73380630344E+03  0.80294125430E+02 0.  0.
        254    2    1    2    0    0 -0.57269110282E+03  0.40435712831E+03  0.92354528471E+03  0.14687679668E+04  0.90158951912E+03 0.  0.
         23    2    4    4    0    0 -0.47668148109E+03  0.66550657424E+03  0.81007392654E+03  0.11552325763E+04  0.90654863027E+02 0.  0.
         23    2    4    4    0    0 -0.96009621723E+02 -0.26114944593E+03  0.11347135817E+03  0.31353539048E+03  0.89508722418E+02 0.  0.
          4    1    3    3  502    0  0.42063786637E+03 -0.32310237097E+03  0.17984322481E+03  0.56006690874E+03  0.00000000000E+00 0. -1.
         -3    1    3    3    0  502  0.15205323645E+03 -0.81254757334E+02  0.21514064436E+02  0.17373939470E+03  0.00000000000E+00 0.  1.
         11    1    5    5    0    0 -0.40629824324E+03  0.60802825824E+03  0.74103872303E+03  0.10411123927E+04  0.00000000000E+00 0. -1.
        -11    1    5    5    0    0 -0.70383237852E+02  0.57478315997E+02  0.69035203510E+02  0.11412018360E+03  0.00000000000E+00 0.  1.
          3    1    6    6  503    0 -0.93179570619E+02 -0.23952074644E+03  0.72365958088E+02  0.26700084690E+03  0.00000000000E+00 0. -1.
         -3    1    6    6    0  503 -0.28300511033E+01 -0.21628699490E+02  0.41105400078E+02  0.46534543582E+02  0.00000000000E+00 0.  1.
<mgrwt>
<rscale>  0 0.18936546E+04</rscale>
<asrwt>0</asrwt>
<pdfrwt beam="1">  1        2 0.25595976E+00 0.18936546E+04</pdfrwt>
<pdfrwt beam="2">  1       -1 0.82897824E-01 0.18936546E+04</pdfrwt>
<totfact> 0.15849013E+01</totfact>
</mgrwt>
</event>
<event>
12    6  0.1510140E-007  0.1418223E+04  0.7818608E-02  0.8940733E-01
          2   -1    0    0  501    0  0.00000000000E+00  0.00000000000E+00  0.43905828004E+03  0.43905828004E+03  0.00000000000E+00 0. -1.
         -1   -1    0    0    0  501 -0.00000000000E+00 -0.00000000000E+00 -0.11452671576E+04  0.11452671576E+04  0.00000000000E+00 0.  1.
         24    2    1    2    0    0 -0.30574616764E+03  0.15844315866E+03  0.65545869928E+02  0.35956249540E+03  0.80024830402E+02 0.  0.
        254    2    1    2    0    0  0.30574616764E+03 -0.15844315866E+03 -0.77175474745E+03  0.12247629422E+04  0.88648402174E+03 0.  0.
         23    2    4    4    0    0  0.47795186637E+03  0.20068327628E+03 -0.32072275150E+03  0.61618354817E+03  0.90040645054E+02 0.  0.
         23    2    4    4    0    0 -0.17220569873E+03 -0.35912643494E+03 -0.45103199595E+03  0.60857939403E+03  0.91172465779E+02 0.  0.
          2    1    3    3  502    0 -0.16366083060E+03  0.67156785117E+02 -0.39297887679E+01  0.17694729300E+03  0.00000000000E+00 0. -1.
         -1    1    3    3    0  502 -0.14208533704E+03  0.91286373547E+02  0.69475658696E+02  0.18261520240E+03  0.00000000000E+00 0.  1.
         11    1    5    5    0    0  0.43438102890E+03  0.15675889196E+03 -0.30104491988E+03  0.55126062099E+03  0.00000000000E+00 0. -1.
        -11    1    5    5    0    0  0.43570837468E+02  0.43924384317E+02 -0.19677831622E+02  0.64922927172E+02  0.00000000000E+00 0.  1.
          4    1    6    6  503    0 -0.16136930516E+03 -0.29778742100E+03 -0.41824647740E+03  0.53818910860E+03  0.00000000000E+00 0. -1.
         -4    1    6    6    0  503 -0.10836393566E+02 -0.61339013937E+02 -0.32785518553E+02  0.70390285431E+02  0.00000000000E+00 0.  1.
<mgrwt>
<rscale>  0 0.14182229E+04</rscale>
<asrwt>0</asrwt>
<pdfrwt beam="1">  1        2 0.67547429E-01 0.14182229E+04</pdfrwt>
<pdfrwt beam="2">  1       -1 0.17619494E+00 0.14182229E+04</pdfrwt>
<totfact> 0.17632073E+01</totfact>
</mgrwt>
</event>
<event>
12    6  0.1510140E-007  0.1619253E+04  0.7818608E-02  0.8808807E-01
          2   -1    0    0  501    0  0.00000000000E+00  0.00000000000E+00  0.84218514528E+03  0.84218514528E+03  0.00000000000E+00 0. -1.
         -1   -1    0    0    0  501 -0.00000000000E+00 -0.00000000000E+00 -0.77832631125E+03  0.77832631125E+03  0.00000000000E+00 0.  1.
         24    2    1    2    0    0  0.29528256253E+03 -0.45125843966E+03  0.16738381364E+03  0.57023404352E+03  0.79520766012E+02 0.  0.
        254    2    1    2    0    0 -0.29528256253E+03  0.45125843966E+03 -0.10352497960E+03  0.10502774130E+04  0.89528724540E+03 0.  0.
         23    2    4    4    0    0 -0.48127738681E+03  0.37031489003E+03 -0.35915765757E+03  0.71140115351E+03  0.91303545356E+02 0.  0.
         23    2    4    4    0    0  0.18599482428E+03  0.80943549631E+02  0.25563267797E+03  0.33887625950E+03  0.91340682722E+02 0.  0.
          2    1    3    3  502    0  0.11693768520E+03 -0.19510436032E+03  0.30826173135E+02  0.22954386637E+03  0.00000000000E+00 0. -1.
         -1    1    3    3    0  502  0.17834487733E+03 -0.25615407934E+03  0.13655764050E+03  0.34069017716E+03  0.00000000000E+00 0.  1.
         11    1    5    5    0    0 -0.70022595199E+02  0.25773357868E+02 -0.68146575354E+02  0.10105140052E+03  0.00000000000E+00 0. -1.
        -11    1    5    5    0    0 -0.41125479161E+03  0.34454153216E+03 -0.29101108222E+03  0.61034975299E+03  0.00000000000E+00 0.  1.
          2    1    6    6  503    0 -0.22744703032E+01  0.19495950016E+02  0.66251958358E+01  0.20716141099E+02  0.00000000000E+00 0. -1.
         -2    1    6    6    0  503  0.18826929459E+03  0.61447599616E+02  0.24900748213E+03  0.31816011840E+03  0.00000000000E+00 0.  1.
<mgrwt>
<rscale>  0 0.16192527E+04</rscale>
<asrwt>0</asrwt>
<pdfrwt beam="1">  1        2 0.12956695E+00 0.16192527E+04</pdfrwt>
<pdfrwt beam="2">  1       -1 0.11974251E+00 0.16192527E+04</pdfrwt>
<totfact> 0.21868788E+01</totfact>
</mgrwt>
</event>
<event>
12    6  0.1510140E-007  0.1238998E+04  0.7818608E-02  0.9079390E-01
         -1   -1    0    0    0  501 -0.00000000000E+00  0.00000000000E+00  0.51254792466E+03  0.51254792466E+03  0.00000000000E+00 0.  1.
          2   -1    0    0  501    0  0.00000000000E+00 -0.00000000000E+00 -0.74876699404E+03  0.74876699404E+03  0.00000000000E+00 0. -1.
         24    2    1    2    0    0  0.11552710431E+03  0.13315873766E+03  0.17484355651E+03  0.26128108268E+03  0.81361991553E+02 0.  0.
        254    2    1    2    0    0 -0.11552710431E+03 -0.13315873766E+03 -0.41106262589E+03  0.10000338360E+04  0.89443693435E+03 0.  0.
         23    2    4    4    0    0  0.14091591125E+03  0.72240387853E+01 -0.61212058671E+03  0.63459282838E+03  0.90038682632E+02 0.  0.
         23    2    4    4    0    0 -0.25644301556E+03 -0.14038277645E+03  0.20105796082E+03  0.36544100764E+03  0.87478467643E+02 0.  0.
          4    1    3    3  502    0  0.10284851083E+02 -0.54279996833E+01 -0.34606544813E+01  0.12133320724E+02  0.00000000000E+00 0. -1.
         -3    1    3    3    0  502  0.10524225323E+03  0.13858673735E+03  0.17830421099E+03  0.24914776196E+03  0.00000000000E+00 0.  1.
         11    1    5    5    0    0  0.16952903898E+02  0.27122951958E+02 -0.23394216998E+03  0.23611860234E+03  0.00000000000E+00 0. -1.
        -11    1    5    5    0    0  0.12396300735E+03 -0.19898913173E+02 -0.37817841673E+03  0.39847422604E+03  0.00000000000E+00 0.  1.
          1    1    6    6  503    0 -0.17699699787E+02 -0.43268278679E+02  0.22416796086E+02  0.51845308940E+02  0.00000000000E+00 0. -1.
         -1    1    6    6    0  503 -0.23874331578E+03 -0.97114497768E+02  0.17864116474E+03  0.31359569870E+03  0.00000000000E+00 0.  1.
<mgrwt>
<rscale>  0 0.12389979E+04</rscale>
<asrwt>0</asrwt>
<pdfrwt beam="1">  1        2 0.11519492E+00 0.12389979E+04</pdfrwt>
<pdfrwt beam="2">  1       -1 0.78853527E-01 0.12389979E+04</pdfrwt>
<totfact> 0.67971266E+01</totfact>
</mgrwt>
</event>
<event>
12    6  0.1510140E-007  0.1339761E+04  0.7818608E-02  0.8998615E-01
          2   -1    0    0  501    0  0.00000000000E+00  0.00000000000E+00  0.73183923992E+03  0.73183923992E+03  0.00000000000E+00 0. -1.
         -1   -1    0    0    0  501 -0.00000000000E+00 -0.00000000000E+00 -0.61316719019E+03  0.61316719019E+03  0.00000000000E+00 0.  1.
         24    2    1    2    0    0 -0.10563086633E+03 -0.21150159903E+03 -0.22130086912E+03  0.33299986018E+03  0.77614598421E+02 0.  0.
        254    2    1    2    0    0  0.10563086633E+03  0.21150159903E+03  0.33997291886E+03  0.10120065699E+04  0.92340939226E+03 0.  0.
         23    2    4    4    0    0  0.47189596614E+03  0.62988270333E+01  0.32848765305E+03  0.58236179696E+03  0.92280259410E+02 0.  0.
         23    2    4    4    0    0 -0.36626509981E+03  0.20520277200E+03  0.11485265814E+02  0.42964477297E+03  0.90578245931E+02 0.  0.
          4    1    3    3  502    0 -0.14867836967E+02 -0.46770828609E+00 -0.32148916707E+02  0.35423497463E+02  0.00000000000E+00 0. -1.
         -3    1    3    3    0  502 -0.90763029366E+02 -0.21103389075E+03 -0.18915195241E+03  0.29757636271E+03  0.00000000000E+00 0.  1.
         11    1    5    5    0    0  0.29201073705E+03 -0.23827915824E+02  0.24433396012E+03  0.38149328198E+03  0.00000000000E+00 0. -1.
        -11    1    5    5    0    0  0.17988522909E+03  0.30126742857E+02  0.84153692925E+02  0.20086851498E+03  0.00000000000E+00 0.  1.
          3    1    6    6  503    0 -0.93546796030E+02  0.90633470236E+02 -0.21467385559E+02  0.13200862706E+03  0.00000000000E+00 0. -1.
         -3    1    6    6    0  503 -0.27271830378E+03  0.11456930176E+03  0.32952651373E+02  0.29763614591E+03  0.00000000000E+00 0.  1.
<mgrwt>
<rscale>  0 0.13397609E+04</rscale>
<asrwt>0</asrwt>
<pdfrwt beam="1">  1        2 0.11259065E+00 0.13397609E+04</pdfrwt>
<pdfrwt beam="2">  1       -1 0.94333414E-01 0.13397609E+04</pdfrwt>
<totfact> 0.47029045E+01</totfact>
</mgrwt>
</event>
<event>
12    6  0.1510140E-007  0.1101577E+04  0.7818608E-02  0.9203656E-01
          2   -1    0    0  501    0  0.00000000000E+00  0.00000000000E+00  0.31984512791E+03  0.31984512791E+03  0.00000000000E+00 0. -1.
         -1   -1    0    0    0  501 -0.00000000000E+00 -0.00000000000E+00 -0.94848450468E+03  0.94848450468E+03  0.00000000000E+00 0.  1.
         24    2    1    2    0    0 -0.79011614272E+02  0.10712286296E+03 -0.26457548016E+02  0.16442395247E+03  0.92828289545E+02 0.  0.
        254    2    1    2    0    0  0.79011614272E+02 -0.10712286296E+03 -0.60218182875E+03  0.11039056801E+04  0.91556903223E+03 0.  0.
         23    2    4    4    0    0  0.34987479303E+03 -0.38128493536E+03 -0.39403367185E+03  0.65663727959E+03  0.90107766929E+02 0.  0.
         23    2    4    4    0    0 -0.27086317876E+03  0.27416207241E+03 -0.20814815690E+03  0.44726840054E+03  0.90507808205E+02 0.  0.
          4    1    3    3  502    0 -0.42847253008E+02 -0.52957178749E+01  0.98682904806E+00  0.43184552211E+02  0.00000000000E+00 0. -1.
         -3    1    3    3    0  502 -0.36164361265E+02  0.11241858083E+03 -0.27444377064E+02  0.12123940026E+03  0.00000000000E+00 0.  1.
         11    1    5    5    0    0  0.20458071674E+03 -0.27988568733E+03 -0.23767163654E+03  0.42032972111E+03  0.00000000000E+00 0.  1.
        -11    1    5    5    0    0  0.14529407629E+03 -0.10139924803E+03 -0.15636203532E+03  0.23630755848E+03  0.00000000000E+00 0. -1.
          2    1    6    6  503    0  0.22473671235E+01  0.11127336568E+02  0.48679586397E+01  0.12351732648E+02  0.00000000000E+00 0. -1.
         -2    1    6    6    0  503 -0.27311054588E+03  0.26303473584E+03 -0.21301611554E+03  0.43491666789E+03  0.00000000000E+00 0.  1.
<mgrwt>
<rscale>  0 0.11015773E+04</rscale>
<asrwt>0</asrwt>
<pdfrwt beam="1">  1        2 0.49206944E-01 0.11015773E+04</pdfrwt>
<pdfrwt beam="2">  1       -1 0.14592069E+00 0.11015773E+04</pdfrwt>
<totfact> 0.43682803E+01</totfact>
</mgrwt>
</event>
<event>
12    6  0.1510140E-007  0.2200347E+04  0.7818608E-02  0.8518284E-01
          2   -1    0    0  501    0  0.00000000000E+00  0.00000000000E+00  0.10853092110E+04  0.10853092110E+04  0.00000000000E+00 0. -1.
         -1   -1    0    0    0  501 -0.00000000000E+00 -0.00000000000E+00 -0.11152412698E+04  0.11152412698E+04  0.00000000000E+00 0.  1.
         24    2    1    2    0    0  0.29980093489E+03  0.16378615977E+03  0.83045627409E+03  0.90151892227E+03  0.79826294794E+02 0.  0.
        254    2    1    2    0    0 -0.29980093489E+03 -0.16378615977E+03 -0.86038833290E+03  0.12990315586E+04  0.91132233604E+03 0.  0.
         23    2    4    4    0    0 -0.11087515671E+02  0.30884658975E+02  0.17728839270E+03  0.19981702967E+03  0.86132897303E+02 0.  0.
         23    2    4    4    0    0 -0.28871341922E+03 -0.19467081875E+03 -0.10376767256E+04  0.10992145289E+04  0.10122957898E+03 0.  0.
          2    1    3    3  502    0  0.29698835489E+03  0.15324952674E+03  0.76013414811E+03  0.83035620279E+03  0.00000000000E+00 0. -1.
         -3    1    3    3    0  502  0.28125800067E+01  0.10536633037E+02  0.70322125979E+02  0.71162719483E+02  0.00000000000E+00 0.  1.
         11    1    5    5    0    0 -0.11211212582E+02  0.43563469825E+02  0.18107940693E+03  0.18658300782E+03  0.00000000000E+00 0.  1.
        -11    1    5    5    0    0  0.12369691183E+00 -0.12678810851E+02 -0.37910142358E+01  0.13234021855E+02  0.00000000000E+00 0. -1.
          1    1    6    6  503    0 -0.11126527519E+03 -0.85570782194E+02 -0.27702319834E+03  0.31055462104E+03  0.00000000000E+00 0. -1.
         -1    1    6    6    0  503 -0.17744814404E+03 -0.10910003656E+03 -0.76065352725E+03  0.78865990790E+03  0.00000000000E+00 0.  1.
<mgrwt>
<rscale>  0 0.22003469E+04</rscale>
<asrwt>0</asrwt>
<pdfrwt beam="1">  1        2 0.16697065E+00 0.22003469E+04</pdfrwt>
<pdfrwt beam="2">  1       -1 0.17157558E+00 0.22003469E+04</pdfrwt>
<totfact> 0.55555833E+00</totfact>
</mgrwt>
</event>
<event>
12    6  0.1510140E-007  0.1766635E+04  0.7818608E-02  0.8724247E-01
          2   -1    0    0  501    0  0.00000000000E+00  0.00000000000E+00  0.24282786507E+04  0.24282786507E+04  0.00000000000E+00 0. -1.
         -1   -1    0    0    0  501 -0.00000000000E+00 -0.00000000000E+00 -0.32131804428E+03  0.32131804428E+03  0.00000000000E+00 0.  1.
         24    2    1    2    0    0  0.25271296963E+02 -0.10511428956E+03  0.17926824479E+04  0.17978002731E+04  0.81779035341E+02 0.  0.
        254    2    1    2    0    0 -0.25271296963E+02  0.10511428956E+03  0.31427815854E+03  0.95179642190E+03  0.89188453035E+03 0.  0.
         23    2    4    4    0    0  0.38993142545E+03  0.96009444128E+02  0.32749284328E+03  0.52600103981E+03  0.90339368828E+02 0.  0.
         23    2    4    4    0    0 -0.41520272241E+03  0.91048454335E+01 -0.13214684738E+02  0.42579538209E+03  0.93010110250E+02 0.  0.
          2    1    3    3  502    0 -0.62133341020E+01 -0.80717593134E+02  0.15274378882E+04  0.15295817853E+04  0.00000000000E+00 0. -1.
         -1    1    3    3    0  502  0.31484631065E+02 -0.24396696428E+02  0.26524455968E+03  0.26821848786E+03  0.00000000000E+00 0.  1.
         11    1    5    5    0    0  0.21567625317E+03  0.72115551029E+02  0.23601057570E+03  0.32774668683E+03  0.00000000000E+00 0.  1.
        -11    1    5    5    0    0  0.17425517228E+03  0.23893893099E+02  0.91482267575E+02  0.19825435298E+03  0.00000000000E+00 0. -1.
          1    1    6    6  503    0 -0.29598971632E+03  0.31251608098E+02  0.24948361974E+02  0.29867875040E+03  0.00000000000E+00 0. -1.
         -1    1    6    6    0  503 -0.11921300610E+03 -0.22146762664E+02 -0.38163046712E+02  0.12711663169E+03  0.00000000000E+00 0.  1.
<mgrwt>
<rscale>  0 0.17666349E+04</rscale>
<asrwt>0</asrwt>
<pdfrwt beam="1">  1        2 0.37358132E+00 0.17666349E+04</pdfrwt>
<pdfrwt beam="2">  1       -1 0.49433547E-01 0.17666349E+04</pdfrwt>
<totfact> 0.16948948E+01</totfact>
</mgrwt>
</event>
<event>
12    6  0.1510140E-007  0.2971983E+04  0.7818608E-02  0.8251777E-01
         -1   -1    0    0    0  501 -0.00000000000E+00  0.00000000000E+00  0.22911804967E+04  0.22911804967E+04  0.00000000000E+00 0.  1.
          2   -1    0    0  501    0  0.00000000000E+00 -0.00000000000E+00 -0.96376993177E+03  0.96376993177E+03  0.00000000000E+00 0. -1.
         24    2    1    2    0    0 -0.80781110635E+03  0.37403010621E+03  0.17137290968E+04  0.19327896339E+04  0.79693461297E+02 0.  0.
        254    2    1    2    0    0  0.80781110635E+03 -0.37403010621E+03 -0.38631853182E+03  0.13221607946E+04  0.89800325999E+03 0.  0.
         23    2    4    4    0    0  0.52083232953E+03 -0.55554888325E+03 -0.54109052517E+03  0.93794865417E+03  0.84070472033E+02 0.  0.
         23    2    4    4    0    0  0.28697877682E+03  0.18151877703E+03  0.15477199336E+03  0.38421214047E+03  0.91426003931E+02 0.  0.
          4    1    3    3  502    0 -0.33091608828E+02  0.12358332993E+02  0.40242308690E+02  0.53546488007E+02  0.00000000000E+00 0. -1.
         -3    1    3    3    0  502 -0.77471949752E+03  0.36167177322E+03  0.16734867881E+04  0.18792431459E+04  0.00000000000E+00 0.  1.
         11    1    5    5    0    0  0.14274201775E+03 -0.15820348556E+03 -0.19881046981E+03  0.29142619886E+03  0.00000000000E+00 0. -1.
        -11    1    5    5    0    0  0.37809031178E+03 -0.39734539768E+03 -0.34228005536E+03  0.64652245531E+03  0.00000000000E+00 0.  1.
          2    1    6    6  503    0  0.19613542070E+03  0.96805694613E+02  0.56711881268E+02  0.22595725976E+03  0.00000000000E+00 0. -1.
         -2    1    6    6    0  503  0.90843356119E+02  0.84713082419E+02  0.98060112087E+02  0.15825488070E+03  0.00000000000E+00 0.  1.
<mgrwt>
<rscale>  0 0.29719831E+04</rscale>
<asrwt>0</asrwt>
<pdfrwt beam="1">  1        2 0.14827230E+00 0.29719831E+04</pdfrwt>
<pdfrwt beam="2">  1       -1 0.35248931E+00 0.29719831E+04</pdfrwt>
<totfact> 0.38882039E-01</totfact>
</mgrwt>
</event>
<event>
12    6  0.1510140E-007  0.2398398E+04  0.7818608E-02  0.8440104E-01
          2   -1    0    0  501    0  0.00000000000E+00  0.00000000000E+00  0.16870022091E+04  0.16870022091E+04  0.00000000000E+00 0. -1.
         -1   -1    0    0    0  501 -0.00000000000E+00 -0.00000000000E+00 -0.85244572288E+03  0.85244572288E+03  0.00000000000E+00 0.  1.
         24    2    1    2    0    0  0.36761759687E+03  0.86622375558E+03  0.78560817204E+03  0.12282182578E+04  0.76508801302E+02 0.  0.
        254    2    1    2    0    0 -0.36761759687E+03 -0.86622375558E+03  0.48948314175E+02  0.13112296741E+04  0.91183388212E+03 0.  0.
         23    2    4    4    0    0 -0.22117141040E+03  0.14462081168E+03 -0.37540238525E+02  0.28221147104E+03  0.91662821960E+02 0.  0.
         23    2    4    4    0    0 -0.14644618647E+03 -0.10108445673E+04  0.86488552700E+02  0.10290182031E+04  0.90249475518E+02 0.  0.
          2    1    3    3  502    0  0.21266202654E+03  0.46863154512E+03  0.38254942563E+03  0.64123687173E+03  0.00000000000E+00 0. -1.
         -1    1    3    3    0  502  0.15495557033E+03  0.39759221046E+03  0.40305874641E+03  0.58698138612E+03  0.00000000000E+00 0.  1.
         11    1    5    5    0    0 -0.17958159960E+03  0.13477819216E+03  0.11888835011E+01  0.22453535454E+03  0.00000000000E+00 0. -1.
        -11    1    5    5    0    0 -0.41589810800E+02  0.98426195250E+01 -0.38729122026E+02  0.57676116499E+02  0.00000000000E+00 0.  1.
          3    1    6    6  503    0 -0.78880372691E+02 -0.80176060663E+03  0.70284752241E+02  0.80869161609E+03  0.00000000000E+00 0. -1.
         -3    1    6    6    0  503 -0.67565813783E+02 -0.20908396063E+03  0.16203800459E+02  0.22032658699E+03  0.00000000000E+00 0.  1.
<mgrwt>
<rscale>  0 0.23983976E+04</rscale>
<asrwt>0</asrwt>
<pdfrwt beam="1">  1        2 0.25953880E+00 0.23983976E+04</pdfrwt>
<pdfrwt beam="2">  1       -1 0.13114550E+00 0.23983976E+04</pdfrwt>
<totfact> 0.50647826E+00</totfact>
</mgrwt>
</event>
<event>
12    6  0.1510140E-007  0.1573429E+04  0.7818608E-02  0.8837040E-01
         -1   -1    0    0    0  501 -0.00000000000E+00  0.00000000000E+00  0.25912810159E+03  0.25912810159E+03  0.00000000000E+00 0.  1.
          2   -1    0    0  501    0  0.00000000000E+00 -0.00000000000E+00 -0.23884697091E+04  0.23884697091E+04  0.00000000000E+00 0. -1.
         24    2    1    2    0    0  0.39361402103E+02 -0.30840245573E+03 -0.14343400645E+04  0.14697788604E+04  0.79101726336E+02 0.  0.
        254    2    1    2    0    0 -0.39361402103E+02  0.30840245573E+03 -0.69500154295E+03  0.11778189503E+04  0.89864839632E+03 0.  0.
         23    2    4    4    0    0  0.22195769907E+03  0.31216203918E+03 -0.78901259449E+03  0.88181921634E+03  0.91399656178E+02 0.  0.
         23    2    4    4    0    0 -0.26131910117E+03 -0.37595834514E+01  0.94011051544E+02  0.29599973392E+03  0.10235212536E+03 0.  0.
          2    1    3    3  502    0  0.47863121093E+02 -0.13860792053E+03 -0.78329682276E+03  0.79690460316E+03  0.00000000000E+00 0. -1.
         -1    1    3    3    0  502 -0.85017189907E+01 -0.16979453520E+03 -0.65104324175E+03  0.67287425723E+03  0.00000000000E+00 0.  1.
         11    1    5    5    0    0  0.19061063232E+03  0.19706166479E+03 -0.56601766420E+03  0.62892106743E+03  0.00000000000E+00 0. -1.
        -11    1    5    5    0    0  0.31347066749E+02  0.11510037439E+03 -0.22299493030E+03  0.25289814890E+03  0.00000000000E+00 0.  1.
          3    1    6    6  503    0 -0.19809115204E+03 -0.18832236695E+02  0.11228642227E+03  0.22847975464E+03  0.00000000000E+00 0. -1.
         -3    1    6    6    0  503 -0.63227949128E+02  0.15072653244E+02 -0.18275370723E+02  0.67519979279E+02  0.00000000000E+00 0.  1.
<mgrwt>
<rscale>  0 0.15734289E+04</rscale>
<asrwt>0</asrwt>
<pdfrwt beam="1">  1        2 0.36745687E+00 0.15734289E+04</pdfrwt>
<pdfrwt beam="2">  1       -1 0.39865863E-01 0.15734289E+04</pdfrwt>
<totfact> 0.27115568E+01</totfact>
</mgrwt>
</event>
<event>
12    6  0.1510140E-007  0.1990775E+04  0.7818608E-02  0.8610946E-01
          2   -1    0    0  501    0  0.00000000000E+00  0.00000000000E+00  0.30194257139E+04  0.30194257139E+04  0.00000000000E+00 0. -1.
         -1   -1    0    0    0  501 -0.00000000000E+00 -0.00000000000E+00 -0.32814065910E+03  0.32814065910E+03  0.00000000000E+00 0.  1.
         24    2    1    2    0    0 -0.51359910308E+03  0.26243753500E-01  0.64273499650E+02  0.52353473117E+03  0.78571576367E+02 0.  0.
        254    2    1    2    0    0  0.51359910308E+03 -0.26243753500E-01  0.26270115551E+04  0.28240316418E+04  0.90010052979E+03 0.  0.
         23    2    4    4    0    0 -0.24424543712E+03  0.59229433767E+02  0.58701340800E+03  0.64512597843E+03  0.91863091035E+02 0.  0.
         23    2    4    4    0    0  0.75784454020E+03 -0.59255677520E+02  0.20399981471E+04  0.21789056634E+04  0.90542073934E+02 0.  0.
          4    1    3    3  502    0 -0.19983928841E+02  0.11738816661E+02 -0.80012925118E+01  0.24518929634E+02  0.00000000000E+00 0. -1.
         -3    1    3    3    0  502 -0.49361517424E+03 -0.11712572907E+02  0.72274792162E+02  0.49901580154E+03  0.00000000000E+00 0.  1.
         11    1    5    5    0    0 -0.85666498570E-01  0.11207429661E+02  0.75165395536E+02  0.75996384812E+02  0.00000000000E+00 0. -1.
        -11    1    5    5    0    0 -0.24415977062E+03  0.48022004106E+02  0.51184801246E+03  0.56912959362E+03  0.00000000000E+00 0.  1.
          3    1    6    6  503    0  0.20801522496E+03 -0.55201617543E+02  0.60879407939E+03  0.64571493981E+03  0.00000000000E+00 0. -1.
         -3    1    6    6    0  503  0.54982931524E+03 -0.40540599769E+01  0.14312040678E+04  0.15331907236E+04  0.00000000000E+00 0.  1.
<mgrwt>
<rscale>  0 0.19907751E+04</rscale>
<asrwt>0</asrwt>
<pdfrwt beam="1">  1        2 0.46452701E+00 0.19907751E+04</pdfrwt>
<pdfrwt beam="2">  1       -1 0.50483180E-01 0.19907751E+04</pdfrwt>
<totfact> 0.70782832E+00</totfact>
</mgrwt>
</event>
<event>
12    6  0.1510140E-007  0.2122337E+04  0.7818608E-02  0.8551467E-01
         -3   -1    0    0    0  501 -0.00000000000E+00  0.00000000000E+00  0.13884572343E+04  0.13884572343E+04  0.00000000000E+00 0.  1.
          4   -1    0    0  501    0  0.00000000000E+00 -0.00000000000E+00 -0.81102891990E+03  0.81102891990E+03  0.00000000000E+00 0. -1.
         24    2    1    2    0    0  0.17472677921E+03  0.42769292138E+03  0.93669595155E+03  0.10476316880E+04  0.81744515269E+02 0.  0.
        254    2    1    2    0    0 -0.17472677921E+03 -0.42769292138E+03 -0.35926763719E+03  0.11518544661E+04  0.99209112162E+03 0.  0.
         23    2    4    4    0    0  0.63964062836E+02 -0.63625879711E+02  0.31637445331E+03  0.34300510921E+03  0.97056974687E+02 0.  0.
         23    2    4    4    0    0 -0.23869084204E+03 -0.36406704167E+03 -0.67564209050E+03  0.80884935690E+03  0.90702363834E+02 0.  0.
          4    1    3    3  502    0  0.90106733057E+01  0.89537468422E+01  0.67666511048E+02  0.68848518745E+02  0.00000000000E+00 0. -1.
         -3    1    3    3    0  502  0.16571610590E+03  0.41873917454E+03  0.86902944050E+03  0.97878316930E+03  0.00000000000E+00 0.  1.
         11    1    5    5    0    0  0.32082938817E+02  0.22587129770E+02  0.11841134626E+03  0.12474269645E+03  0.00000000000E+00 0.  1.
        -11    1    5    5    0    0  0.31881124019E+02 -0.86213009481E+02  0.19796310705E+03  0.21826241276E+03  0.00000000000E+00 0. -1.
          2    1    6    6  503    0 -0.37268944833E+02 -0.15619516841E+02 -0.42772331171E+02  0.58842296600E+02  0.00000000000E+00 0. -1.
         -2    1    6    6    0  503 -0.20142189721E+03 -0.34844752483E+03 -0.63286975933E+03  0.75000706030E+03  0.00000000000E+00 0.  1.
<mgrwt>
<rscale>  0 0.21223374E+04</rscale>
<asrwt>0</asrwt>
<pdfrwt beam="1">  1        4 0.12477368E+00 0.21223374E+04</pdfrwt>
<pdfrwt beam="2">  1       -3 0.21360880E+00 0.21223374E+04</pdfrwt>
<totfact> 0.12156887E-01</totfact>
</mgrwt>
</event>
<event>
12    6  0.1510140E-007  0.1279415E+04  0.7818608E-02  0.9046050E-01
         -1   -1    0    0    0  501 -0.00000000000E+00  0.00000000000E+00  0.68757412628E+03  0.68757412628E+03  0.00000000000E+00 0.  1.
          2   -1    0    0  501    0  0.00000000000E+00 -0.00000000000E+00 -0.59517360229E+03  0.59517360229E+03  0.00000000000E+00 0. -1.
         24    2    1    2    0    0 -0.22188657781E+03 -0.52636656447E+02  0.25336707215E+03  0.34959933629E+03  0.77592213987E+02 0.  0.
        254    2    1    2    0    0  0.22188657781E+03  0.52636656447E+02 -0.16096654816E+03  0.93314839228E+03  0.89042204677E+03 0.  0.
         23    2    4    4    0    0  0.50626220933E+03  0.12253644243E+03  0.90579082622E+02  0.53650047025E+03  0.91167867451E+02 0.  0.
         23    2    4    4    0    0 -0.28437563152E+03 -0.69899785987E+02 -0.25154563078E+03  0.39664792203E+03  0.91098242592E+02 0.  0.
          4    1    3    3  502    0 -0.92068454717E+01  0.15000998903E+02  0.21324757985E+02  0.27650339505E+02  0.00000000000E+00 0. -1.
         -3    1    3    3    0  502 -0.21267973234E+03 -0.67637655350E+02  0.23204231416E+03  0.32194899678E+03  0.00000000000E+00 0.  1.
         11    1    5    5    0    0  0.93055818646E+02 -0.94862789203E+01  0.31559922210E+02  0.98718810576E+02  0.00000000000E+00 0.  1.
        -11    1    5    5    0    0  0.41320639068E+03  0.13202272136E+03  0.59019160412E+02  0.43778165968E+03  0.00000000000E+00 0. -1.
          3    1    6    6  503    0 -0.73612301687E+02 -0.59885810359E+02 -0.65139983825E+02  0.11510125427E+03  0.00000000000E+00 0. -1.
         -3    1    6    6    0  503 -0.21076332983E+03 -0.10013975629E+02 -0.18640564695E+03  0.28154666776E+03  0.00000000000E+00 0.  1.
<mgrwt>
<rscale>  0 0.12794154E+04</rscale>
<asrwt>0</asrwt>
<pdfrwt beam="1">  1        2 0.91565170E-01 0.12794154E+04</pdfrwt>
<pdfrwt beam="2">  1       -1 0.10578063E+00 0.12794154E+04</pdfrwt>
<totfact> 0.47035263E+01</totfact>
</mgrwt>
</event>
<event>
12    6  0.1510140E-007  0.1565600E+04  0.7818608E-02  0.8841965E-01
         -1   -1    0    0    0  501 -0.00000000000E+00  0.00000000000E+00  0.12069651430E+04  0.12069651430E+04  0.00000000000E+00 0.  1.
          2   -1    0    0  501    0  0.00000000000E+00 -0.00000000000E+00 -0.50769960936E+03  0.50769960936E+03  0.00000000000E+00 0. -1.
         24    2    1    2    0    0  0.18718487723E+03 -0.30921760120E+03  0.55496525812E+03  0.66704008512E+03  0.79387242532E+02 0.  0.
        254    2    1    2    0    0 -0.18718487723E+03  0.30921760120E+03  0.14430027555E+03  0.10476246673E+04  0.97264647781E+03 0.  0.
         23    2    4    4    0    0  0.26350103522E+03  0.31239984064E+03  0.34815612984E+03  0.54446396330E+03  0.90564124185E+02 0.  0.
         23    2    4    4    0    0 -0.45068591245E+03 -0.31822394454E+01 -0.20385585430E+03  0.50316070397E+03  0.92117133900E+02 0.  0.
          4    1    3    3  502    0 -0.54028403390E+01 -0.28974280005E+02  0.54978916216E+02  0.62380933095E+02  0.00000000000E+00 0. -1.
         -3    1    3    3    0  502  0.19258771757E+03 -0.28024332119E+03  0.49998634191E+03  0.60465915202E+03  0.00000000000E+00 0.  1.
         11    1    5    5    0    0  0.18322040237E+03  0.25929347227E+03  0.30009946297E+03  0.43687813894E+03  0.00000000000E+00 0.  1.
        -11    1    5    5    0    0  0.80280632853E+02  0.53106368375E+02  0.48056666870E+02  0.10758582436E+03  0.00000000000E+00 0. -1.
          1    1    6    6  503    0 -0.36879461012E+02 -0.26328862521E+02 -0.25108035435E+02  0.51804604907E+02  0.00000000000E+00 0. -1.
         -1    1    6    6    0  503 -0.41380645144E+03  0.23146623076E+02 -0.17874781886E+03  0.45135609906E+03  0.00000000000E+00 0.  1.
<mgrwt>
<rscale>  0 0.15655999E+04</rscale>
<asrwt>0</asrwt>
<pdfrwt beam="1">  1        2 0.78107632E-01 0.15655999E+04</pdfrwt>
<pdfrwt beam="2">  1       -1 0.18568694E+00 0.15655999E+04</pdfrwt>
<totfact> 0.12598690E+01</totfact>
</mgrwt>
</event>
<event>
12    6  0.1510140E-007  0.1033036E+04  0.7818608E-02  0.9273035E-01
         -1   -1    0    0    0  501 -0.00000000000E+00  0.00000000000E+00  0.94888590397E+02  0.94888590397E+02  0.00000000000E+00 0.  1.
          2   -1    0    0  501    0  0.00000000000E+00 -0.00000000000E+00 -0.28116229462E+04  0.28116229462E+04  0.00000000000E+00 0. -1.
         24    2    1    2    0    0  0.48272216845E+02  0.78221352373E+02 -0.17667961792E+03  0.21405147263E+03  0.78444621623E+02 0.  0.
        254    2    1    2    0    0 -0.48272216845E+02 -0.78221352373E+02 -0.25400547378E+04  0.26924600639E+04  0.88826479031E+03 0.  0.
         23    2    4    4    0    0  0.31389084617E+03  0.11058121924E+03 -0.48534103243E+03  0.59560623309E+03  0.91843332753E+02 0.  0.
         23    2    4    4    0    0 -0.36216306301E+03 -0.18880257161E+03 -0.20547137054E+04  0.20968538308E+04  0.90216857827E+02 0.  0.
          2    1    3    3  502    0 -0.31821533394E+01  0.11025016425E+01 -0.80120867722E+02  0.80191614613E+02  0.00000000000E+00 0. -1.
         -1    1    3    3    0  502  0.51454370184E+02  0.77118850730E+02 -0.96558750194E+02  0.13385985802E+03  0.00000000000E+00 0.  1.
         11    1    5    5    0    0  0.30077895441E+03  0.78926171887E+02 -0.43882683098E+03  0.53783483303E+03  0.00000000000E+00 0. -1.
        -11    1    5    5    0    0  0.13111891757E+02  0.31655047354E+02 -0.46514201452E+02  0.57771400062E+02  0.00000000000E+00 0.  1.
          4    1    6    6  503    0 -0.36377301342E+03 -0.19036528787E+03 -0.19806710434E+04  0.20227771825E+04  0.00000000000E+00 0. -1.
         -4    1    6    6    0  503  0.16099504073E+01  0.15627162583E+01 -0.74042662032E+02  0.74076648299E+02  0.00000000000E+00 0.  1.
<mgrwt>
<rscale>  0 0.10330362E+04</rscale>
<asrwt>0</asrwt>
<pdfrwt beam="1">  1        2 0.43255740E+00 0.10330362E+04</pdfrwt>
<pdfrwt beam="2">  1       -1 0.14598244E-01 0.10330362E+04</pdfrwt>
<totfact> 0.90412949E+01</totfact>
</mgrwt>
</event>
<event>
12    6  0.1510140E-007  0.2432450E+04  0.7818608E-02  0.8427454E-01
          2   -1    0    0  501    0  0.00000000000E+00  0.00000000000E+00  0.11686809835E+04  0.11686809835E+04  0.00000000000E+00 0. -1.
         -1   -1    0    0    0  501 -0.00000000000E+00 -0.00000000000E+00 -0.12657033119E+04  0.12657033119E+04  0.00000000000E+00 0.  1.
         24    2    1    2    0    0 -0.30841032018E+03 -0.59749692204E+03  0.76123506433E+03  0.10186888665E+04  0.78285925503E+02 0.  0.
        254    2    1    2    0    0  0.30841032018E+03  0.59749692204E+03 -0.85825739279E+03  0.14156954289E+04  0.90303283317E+03 0.  0.
         23    2    4    4    0    0 -0.76986464034E+02  0.49899635547E+03 -0.86750023278E+03  0.10075771785E+04  0.87925185575E+02 0.  0.
         23    2    4    4    0    0  0.38539678421E+03  0.98500566570E+02  0.92428399971E+01  0.40811825047E+03  0.90785645229E+02 0.  0.
          4    1    3    3  502    0 -0.28264295654E+03 -0.57600557353E+03  0.73779869581E+03  0.97776089979E+03  0.00000000000E+00 0. -1.
         -3    1    3    3    0  502 -0.25767363644E+02 -0.21491348510E+02  0.23436368518E+02  0.40927966713E+02  0.00000000000E+00 0.  1.
         11    1    5    5    0    0  0.10207464793E+02  0.17096891321E+03 -0.33187462220E+03  0.37346395607E+03  0.00000000000E+00 0.  1.
        -11    1    5    5    0    0 -0.87193928827E+02  0.32802744226E+03 -0.53562561058E+03  0.63411322239E+03  0.00000000000E+00 0. -1.
          3    1    6    6  503    0  0.29978404898E+03  0.43653844408E+02 -0.15962817623E+02  0.30336602595E+03  0.00000000000E+00 0. -1.
         -3    1    6    6    0  503  0.85612735236E+02  0.54846722162E+02  0.25205657620E+02  0.10475222452E+03  0.00000000000E+00 0.  1.
<mgrwt>
<rscale>  0 0.24324501E+04</rscale>
<asrwt>0</asrwt>
<pdfrwt beam="1">  1        2 0.17979708E+00 0.24324501E+04</pdfrwt>
<pdfrwt beam="2">  1       -1 0.19472359E+00 0.24324501E+04</pdfrwt>
<totfact> 0.33109295E+00</totfact>
</mgrwt>
</event>
<event>
12    6  0.1510140E-007  0.1407607E+04  0.7818608E-02  0.8948330E-01
          2   -1    0    0  501    0  0.00000000000E+00  0.00000000000E+00  0.30671954182E+04  0.30671954182E+04  0.00000000000E+00 0. -1.
         -1   -1    0    0    0  501 -0.00000000000E+00 -0.00000000000E+00 -0.16149594863E+03  0.16149594863E+03  0.00000000000E+00 0.  1.
         24    2    1    2    0    0  0.19512944789E+03  0.11519399380E+03  0.77762612570E+02  0.25413248040E+03  0.84800566272E+02 0.  0.
        254    2    1    2    0    0 -0.19512944789E+03 -0.11519399380E+03  0.28279368570E+04  0.29745588864E+04  0.89410768029E+03 0.  0.
         23    2    4    4    0    0  0.22409482584E+03 -0.35388123213E+03  0.12140371661E+04  0.12874564189E+04  0.90594549882E+02 0.  0.
         23    2    4    4    0    0 -0.41922427373E+03  0.23868723833E+03  0.16138996909E+04  0.16871024675E+04  0.94455990862E+02 0.  0.
          2    1    3    3  502    0  0.84133402441E+02  0.83802050267E+01  0.48051375455E+02  0.97250151289E+02  0.00000000000E+00 0. -1.
         -1    1    3    3    0  502  0.11099604545E+03  0.10681378877E+03  0.29711237116E+02  0.15688232912E+03  0.00000000000E+00 0.  1.
         11    1    5    5    0    0  0.22285308711E+03 -0.35266241339E+03  0.12155539759E+04  0.12851481411E+04  0.00000000000E+00 0.  1.
        -11    1    5    5    0    0  0.12417387301E+01 -0.12188187399E+01 -0.15168098296E+01  0.23082777679E+01  0.00000000000E+00 0. -1.
          2    1    6    6  503    0 -0.47669611402E+02  0.27002121845E+02  0.31194741599E+03  0.31672179713E+03  0.00000000000E+00 0. -1.
         -2    1    6    6    0  503 -0.37155466233E+03  0.21168511648E+03  0.13019522749E+04  0.13703806703E+04  0.00000000000E+00 0.  1.
<mgrwt>
<rscale>  0 0.14076074E+04</rscale>
<asrwt>0</asrwt>
<pdfrwt beam="1">  1        2 0.47187618E+00 0.14076074E+04</pdfrwt>
<pdfrwt beam="2">  1       -1 0.24845533E-01 0.14076074E+04</pdfrwt>
<totfact> 0.25012683E+01</totfact>
</mgrwt>
</event>
<event>
12    6  0.1510140E-007  0.1875733E+04  0.7818608E-02  0.8667031E-01
          4   -1    0    0  501    0  0.00000000000E+00  0.00000000000E+00  0.33352742324E+03  0.33352742324E+03  0.00000000000E+00 0. -1.
         -3   -1    0    0    0  501 -0.00000000000E+00 -0.00000000000E+00 -0.26372464021E+04  0.26372464021E+04  0.00000000000E+00 0.  1.
         24    2    1    2    0    0 -0.51448014339E+03  0.46547419450E+03 -0.11303831677E+04  0.13287294286E+04  0.79998406376E+02 0.  0.
        254    2    1    2    0    0  0.51448014339E+03 -0.46547419450E+03 -0.11733358112E+04  0.16420443967E+04  0.91555274633E+03 0.  0.
         23    2    4    4    0    0  0.43144149762E+03 -0.14119457471E+03 -0.12061657144E+04  0.12921686312E+04  0.93735623603E+02 0.  0.
         23    2    4    4    0    0  0.83038645777E+02 -0.32427961979E+03  0.32829903161E+02  0.34987576555E+03  0.96346044401E+02 0.  0.
          2    1    3    3  502    0 -0.18468885357E+03  0.15406481636E+03 -0.32372213942E+03  0.40328893343E+03  0.00000000000E+00 0. -1.
         -1    1    3    3    0  502 -0.32979128982E+03  0.31140937814E+03 -0.80666102826E+03  0.92544049520E+03  0.00000000000E+00 0.  1.
         11    1    5    5    0    0  0.55224284649E+02 -0.82884926614E+01 -0.81281071810E+02  0.98615583759E+02  0.00000000000E+00 0. -1.
        -11    1    5    5    0    0  0.37621721297E+03 -0.13290608205E+03 -0.11248846426E+04  0.11935530474E+04  0.00000000000E+00 0.  1.
          3    1    6    6  503    0  0.97513725476E+02 -0.20466798292E+03  0.79559614379E+01  0.22685062753E+03  0.00000000000E+00 0. -1.
         -3    1    6    6    0  503 -0.14475079699E+02 -0.11961163687E+03  0.24873941723E+02  0.12302513802E+03  0.00000000000E+00 0.  1.
<mgrwt>
<rscale>  0 0.18757335E+04</rscale>
<asrwt>0</asrwt>
<pdfrwt beam="1">  1        4 0.51311911E-01 0.18757335E+04</pdfrwt>
<pdfrwt beam="2">  1       -3 0.40573022E+00 0.18757335E+04</pdfrwt>
<totfact> 0.77723423E-02</totfact>
</mgrwt>
</event>
<event>
12    6  0.1510140E-007  0.2798789E+04  0.7818608E-02  0.8303645E-01
         -3   -1    0    0    0  501 -0.00000000000E+00  0.00000000000E+00  0.27562680512E+04  0.27562680512E+04  0.00000000000E+00 0.  1.
          2   -1    0    0  501    0  0.00000000000E+00 -0.00000000000E+00 -0.71049133381E+03  0.71049133381E+03  0.00000000000E+00 0. -1.
         24    2    1    2    0    0 -0.73711090847E+03 -0.70914700455E+03  0.21784056193E+02  0.10263514337E+04  0.81858139506E+02 0.  0.
        254    2    1    2    0    0  0.73711090847E+03  0.70914700455E+03  0.20239926612E+04  0.24404079512E+04  0.90156680869E+03 0.  0.
         23    2    4    4    0    0  0.37561777477E+03 -0.15602713472E+03  0.71482233577E+03  0.82728217647E+03  0.89396019467E+02 0.  0.
         23    2    4    4    0    0  0.36149313371E+03  0.86517413927E+03  0.13091703254E+04  0.16131257748E+04  0.95101247767E+02 0.  0.
          2    1    3    3  502    0 -0.53129709248E+03 -0.53838520703E+03  0.46220662996E+02  0.75780708714E+03  0.00000000000E+00 0. -1.
         -1    1    3    3    0  502 -0.20581381599E+03 -0.17076179752E+03 -0.24436606803E+02  0.26854434661E+03  0.00000000000E+00 0.  1.
         11    1    5    5    0    0  0.33325546430E+03 -0.13489606573E+03  0.56079064498E+03  0.66613985058E+03  0.00000000000E+00 0.  1.
        -11    1    5    5    0    0  0.42362310469E+02 -0.21131068993E+02  0.15403169079E+03  0.16114232589E+03  0.00000000000E+00 0. -1.
          3    1    6    6  503    0  0.33147036984E+03  0.70820595635E+03  0.11099719450E+04  0.13577429806E+04  0.00000000000E+00 0. -1.
         -3    1    6    6    0  503  0.30022763872E+02  0.15696818292E+03  0.19919838035E+03  0.25538279413E+03  0.00000000000E+00 0.  1.
<mgrwt>
<rscale>  0 0.27987887E+04</rscale>
<asrwt>0</asrwt>
<pdfrwt beam="1">  1        2 0.10930636E+00 0.27987887E+04</pdfrwt>
<pdfrwt beam="2">  1       -3 0.42404123E+00 0.27987887E+04</pdfrwt>
<totfact> 0.16966027E-01</totfact>
</mgrwt>
</event>
<event>
12    6  0.1510140E-007  0.1025658E+04  0.7818608E-02  0.9280842E-01
         -1   -1    0    0    0  501 -0.00000000000E+00  0.00000000000E+00  0.29707212437E+03  0.29707212437E+03  0.00000000000E+00 0.  1.
          2   -1    0    0  501    0  0.00000000000E+00 -0.00000000000E+00 -0.88528601797E+03  0.88528601797E+03  0.00000000000E+00 0. -1.
         24    2    1    2    0    0 -0.46524993635E+02 -0.44839364459E+02 -0.13244671942E+03  0.16924133401E+03  0.83218699899E+02 0.  0.
        254    2    1    2    0    0  0.46524993635E+02  0.44839364459E+02 -0.45576717419E+03  0.10131168083E+04  0.90250030838E+03 0.  0.
         23    2    4    4    0    0  0.37319774019E+03 -0.24636761198E+03 -0.25842540121E+03  0.52458052438E+03  0.91801334716E+02 0.  0.
         23    2    4    4    0    0 -0.32667274655E+03  0.29120697644E+03 -0.19734177298E+03  0.48853628395E+03  0.90594364644E+02 0.  0.
          4    1    3    3  502    0 -0.74140589776E+01 -0.50199599465E+02 -0.11573967492E+03  0.12637499914E+03  0.00000000000E+00 0. -1.
         -3    1    3    3    0  502 -0.39110934658E+02  0.53602350061E+01 -0.16707044507E+02  0.42866334871E+02  0.00000000000E+00 0.  1.
         11    1    5    5    0    0  0.34911983324E+03 -0.25094460683E+03 -0.23204587761E+03  0.48857255651E+03  0.00000000000E+00 0. -1.
        -11    1    5    5    0    0  0.24077906947E+02  0.45769948514E+01 -0.26379523598E+02  0.36007967869E+02  0.00000000000E+00 0.  1.
          3    1    6    6  503    0 -0.26412276916E+03  0.22323296944E+03 -0.11401801127E+03  0.36413445694E+03  0.00000000000E+00 0. -1.
         -3    1    6    6    0  503 -0.62549977396E+02  0.67974006997E+02 -0.83323761706E+02  0.12440182701E+03  0.00000000000E+00 0.  1.
<mgrwt>
<rscale>  0 0.10256584E+04</rscale>
<asrwt>0</asrwt>
<pdfrwt beam="1">  1        2 0.13619785E+00 0.10256584E+04</pdfrwt>
<pdfrwt beam="2">  1       -1 0.45703404E-01 0.10256584E+04</pdfrwt>
<totfact> 0.16226552E+02</totfact>
</mgrwt>
</event>
<event>
12    6  0.1510140E-007  0.1631895E+04  0.7818608E-02  0.8801190E-01
         -1   -1    0    0    0  501 -0.00000000000E+00  0.00000000000E+00  0.72706239936E+03  0.72706239936E+03  0.00000000000E+00 0.  1.
          4   -1    0    0  501    0  0.00000000000E+00 -0.00000000000E+00 -0.91569898778E+03  0.91569898778E+03  0.00000000000E+00 0. -1.
         24    2    1    2    0    0 -0.53530158740E+02  0.47821221668E+03  0.24737105776E+03  0.54447960004E+03  0.60935970996E+02 0.  0.
        254    2    1    2    0    0  0.53530158740E+02 -0.47821221668E+03 -0.43600764618E+03  0.10982817871E+04  0.88575832725E+03 0.  0.
         23    2    4    4    0    0  0.26744399228E+03 -0.61474701594E+03 -0.12677893266E+03  0.68847619337E+03  0.92121596047E+02 0.  0.
         23    2    4    4    0    0 -0.21391383354E+03  0.13653479926E+03 -0.30922871352E+03  0.40980559374E+03  0.88979479708E+02 0.  0.
          2    1    3    3  502    0 -0.57898284665E+02  0.28574524638E+03  0.13201386916E+03  0.32004721347E+03  0.00000000000E+00 0. -1.
         -1    1    3    3    0  502  0.43681259247E+01  0.19246697030E+03  0.11535718860E+03  0.22443238657E+03  0.00000000000E+00 0.  1.
         11    1    5    5    0    0  0.15460913334E+03 -0.32611752707E+03 -0.11331981628E+03  0.37828297125E+03  0.00000000000E+00 0.  1.
        -11    1    5    5    0    0  0.11283485894E+03 -0.28862948887E+03 -0.13459116383E+02  0.31019322212E+03  0.00000000000E+00 0. -1.
          4    1    6    6  503    0 -0.61687345230E+02 -0.24488477251E+01 -0.87219137432E+02  0.10685739727E+03  0.00000000000E+00 0. -1.
         -4    1    6    6    0  503 -0.15222648831E+03  0.13898364698E+03 -0.22200957608E+03  0.30294819647E+03  0.00000000000E+00 0.  1.
<mgrwt>
<rscale>  0 0.16318950E+04</rscale>
<asrwt>0</asrwt>
<pdfrwt beam="1">  1        4 0.14087677E+00 0.16318950E+04</pdfrwt>
<pdfrwt beam="2">  1       -1 0.11185575E+00 0.16318950E+04</pdfrwt>
<totfact> 0.10176706E+00</totfact>
</mgrwt>
</event>
<event>
12    6  0.1510140E-007  0.2425096E+04  0.7818608E-02  0.8430168E-01
          2   -1    0    0  501    0  0.00000000000E+00  0.00000000000E+00  0.68584470413E+03  0.68584470413E+03  0.00000000000E+00 0. -1.
         -1   -1    0    0    0  501 -0.00000000000E+00 -0.00000000000E+00 -0.21437390921E+04  0.21437390921E+04  0.00000000000E+00 0.  1.
         24    2    1    2    0    0 -0.48904029065E+03 -0.20622882275E+03  0.42005580806E+03  0.68169913189E+03  0.81093102767E+02 0.  0.
        254    2    1    2    0    0  0.48904029065E+03  0.20622882275E+03 -0.18779501960E+04  0.21478846643E+04  0.89722954662E+03 0.  0.
         23    2    4    4    0    0  0.76554268924E+02  0.32208885069E+03 -0.16807663162E+03  0.38234961820E+03  0.91321917457E+02 0.  0.
         23    2    4    4    0    0  0.41248602173E+03 -0.11586002794E+03 -0.17098735644E+04  0.17655350461E+04  0.99388775561E+02 0.  0.
          4    1    3    3  502    0 -0.36260677860E+03 -0.11322412637E+03  0.29201234271E+03  0.47913942331E+03  0.00000000000E+00 0. -1.
         -3    1    3    3    0  502 -0.12643351206E+03 -0.93004696379E+02  0.12804346535E+03  0.20255970858E+03  0.00000000000E+00 0.  1.
         11    1    5    5    0    0  0.48589380083E+02  0.67251442337E+02 -0.67506481863E+02  0.10696171954E+03  0.00000000000E+00 0. -1.
        -11    1    5    5    0    0  0.27964888841E+02  0.25483740836E+03 -0.10057014976E+03  0.27538789866E+03  0.00000000000E+00 0.  1.
          4    1    6    6  503    0  0.10413063397E+03 -0.25177633388E+02 -0.62257914100E+03  0.63172928456E+03  0.00000000000E+00 0. -1.
         -4    1    6    6    0  503  0.30835538776E+03 -0.90682394556E+02 -0.10872944234E+04  0.11338057615E+04  0.00000000000E+00 0.  1.
<mgrwt>
<rscale>  0 0.24250955E+04</rscale>
<asrwt>0</asrwt>
<pdfrwt beam="1">  1        2 0.10551457E+00 0.24250955E+04</pdfrwt>
<pdfrwt beam="2">  1       -1 0.32980601E+00 0.24250955E+04</pdfrwt>
<totfact> 0.90918581E-01</totfact>
</mgrwt>
</event>
<event>
12    6  0.1510140E-007  0.1801939E+04  0.7818608E-02  0.8705269E-01
         -1   -1    0    0    0  501 -0.00000000000E+00  0.00000000000E+00  0.34733167429E+03  0.34733167429E+03  0.00000000000E+00 0.  1.
          2   -1    0    0  501    0  0.00000000000E+00 -0.00000000000E+00 -0.23370918975E+04  0.23370918975E+04  0.00000000000E+00 0. -1.
         24    2    1    2    0    0  0.26329256359E+03 -0.42608293439E+02  0.16844784333E+03  0.32733548604E+03  0.87380797577E+02 0.  0.
        254    2    1    2    0    0 -0.26329256359E+03  0.42608293439E+02 -0.21582080665E+04  0.23570880858E+04  0.90932048518E+03 0.  0.
         23    2    4    4    0    0 -0.48121694888E+03  0.31814400312E+03 -0.13506642313E+04  0.14716474595E+04  0.93096834151E+02 0.  0.
         23    2    4    4    0    0  0.21792438529E+03 -0.27553570968E+03 -0.80754383523E+03  0.88544062630E+03  0.92016802141E+02 0.  0.
          2    1    3    3  502    0  0.16434781877E+02  0.14379701120E+02 -0.20862139810E+01  0.21936958505E+02  0.00000000000E+00 0. -1.
         -1    1    3    3    0  502  0.24685778172E+03 -0.56987994559E+02  0.17053405731E+03  0.30539852754E+03  0.00000000000E+00 0.  1.
         11    1    5    5    0    0 -0.35288063392E+03  0.27892516699E+03 -0.10187609667E+04  0.11136417278E+04  0.00000000000E+00 0.  1.
        -11    1    5    5    0    0 -0.12833631496E+03  0.39218836126E+02 -0.33190326459E+03  0.35800573165E+03  0.00000000000E+00 0. -1.
          1    1    6    6  503    0  0.33444543297E+02 -0.15406413987E+02 -0.15263475086E+03  0.15701357342E+03  0.00000000000E+00 0. -1.
         -1    1    6    6    0  503  0.18447984199E+03 -0.26012929569E+03 -0.65490908437E+03  0.72842705288E+03  0.00000000000E+00 0.  1.
<mgrwt>
<rscale>  0 0.18019390E+04</rscale>
<asrwt>0</asrwt>
<pdfrwt beam="1">  1        2 0.35955258E+00 0.18019390E+04</pdfrwt>
<pdfrwt beam="2">  1       -1 0.53435645E-01 0.18019390E+04</pdfrwt>
<totfact> 0.16410469E+01</totfact>
</mgrwt>
</event>
<event>
12    6  0.1510140E-007  0.1152556E+04  0.7818608E-02  0.9155429E-01
          2   -1    0    0  501    0  0.00000000000E+00  0.00000000000E+00  0.14291151241E+04  0.14291151241E+04  0.00000000000E+00 0. -1.
         -1   -1    0    0    0  501 -0.00000000000E+00 -0.00000000000E+00 -0.23237889472E+03  0.23237889472E+03  0.00000000000E+00 0.  1.
         24    2    1    2    0    0 -0.64447365319E+02 -0.19295861104E+02  0.53805591850E+03  0.54920387205E+03  0.87148886918E+02 0.  0.
        254    2    1    2    0    0  0.64447365319E+02  0.19295861104E+02  0.65868031084E+03  0.11122901467E+04  0.89375825897E+03 0.  0.
         23    2    4    4    0    0  0.56036023417E+02  0.26878782897E+03  0.77152828204E+03  0.82391557830E+03  0.90521032109E+02 0.  0.
         23    2    4    4    0    0  0.84113419023E+01 -0.24949196787E+03 -0.11284797120E+03  0.28837456843E+03  0.90045735114E+02 0.  0.
          2    1    3    3  502    0 -0.83617799739E+02 -0.28997769888E+02  0.42310708151E+03  0.43226428202E+03  0.00000000000E+00 0. -1.
         -1    1    3    3    0  502  0.19170434420E+02  0.97019087847E+01  0.11494883699E+03  0.11693959003E+03  0.00000000000E+00 0.  1.
         11    1    5    5    0    0  0.64129479594E+02  0.95996802208E+02  0.28157284296E+03  0.30432095242E+03  0.00000000000E+00 0. -1.
        -11    1    5    5    0    0 -0.80934561767E+01  0.17279102676E+03  0.48995543908E+03  0.51959462588E+03  0.00000000000E+00 0.  1.
          3    1    6    6  503    0  0.22478379430E+02 -0.24095421475E+03 -0.12036783543E+03  0.27028249472E+03  0.00000000000E+00 0. -1.
         -3    1    6    6    0  503 -0.14067037527E+02 -0.85377531189E+01  0.75198642314E+01  0.18092073711E+02  0.00000000000E+00 0.  1.
<mgrwt>
<rscale>  0 0.11525558E+04</rscale>
<asrwt>0</asrwt>
<pdfrwt beam="1">  1        2 0.21986386E+00 0.11525558E+04</pdfrwt>
<pdfrwt beam="2">  1       -1 0.35750600E-01 0.11525558E+04</pdfrwt>
<totfact> 0.11723260E+02</totfact>
</mgrwt>
</event>
<event>
12    6  0.1510140E-007  0.1175777E+04  0.7818608E-02  0.9134327E-01
          2   -1    0    0  501    0  0.00000000000E+00  0.00000000000E+00  0.25022167793E+03  0.25022167793E+03  0.00000000000E+00 0. -1.
         -1   -1    0    0    0  501 -0.00000000000E+00 -0.00000000000E+00 -0.13812260585E+04  0.13812260585E+04  0.00000000000E+00 0.  1.
         24    2    1    2    0    0 -0.38546792080E+02  0.74582179543E+02  0.61777281185E+02  0.13212595172E+03  0.81194075909E+02 0.  0.
        254    2    1    2    0    0  0.38546792080E+02 -0.74582179543E+02 -0.11927816618E+04  0.14993217847E+04  0.90453820529E+03 0.  0.
         23    2    4    4    0    0  0.41785022564E+03 -0.13561590070E+03 -0.90693249024E+03  0.10117895843E+04  0.90560132229E+02 0.  0.
         23    2    4    4    0    0 -0.37930343356E+03  0.61033721161E+02 -0.28584917155E+03  0.48753220040E+03  0.91551557747E+02 0.  0.
          4    1    3    3  502    0 -0.21378261582E+02  0.45274672945E+02  0.79394283276E+02  0.93863082708E+02  0.00000000000E+00 0. -1.
         -3    1    3    3    0  502 -0.17168530499E+02  0.29307506598E+02 -0.17617002091E+02  0.38262869014E+02  0.00000000000E+00 0.  1.
         11    1    5    5    0    0  0.29133316296E+03 -0.49925439672E+02 -0.61051199335E+03  0.67830115391E+03  0.00000000000E+00 0.  1.
        -11    1    5    5    0    0  0.12651706268E+03 -0.85690461032E+02 -0.29642049689E+03  0.33348843044E+03  0.00000000000E+00 0. -1.
          2    1    6    6  503    0 -0.27398124105E+03  0.47731693591E+02 -0.15279549273E+03  0.31731766043E+03  0.00000000000E+00 0. -1.
         -2    1    6    6    0  503 -0.10532219251E+03  0.13302027570E+02 -0.13305367882E+03  0.17021453998E+03  0.00000000000E+00 0.  1.
<mgrwt>
<rscale>  0 0.11757767E+04</rscale>
<asrwt>0</asrwt>
<pdfrwt beam="1">  1        2 0.38495642E-01 0.11757767E+04</pdfrwt>
<pdfrwt beam="2">  1       -1 0.21249632E+00 0.11757767E+04</pdfrwt>
<totfact> 0.18853624E+01</totfact>
</mgrwt>
</event>
<event>
12    6  0.1510140E-007  0.1966354E+04  0.7818608E-02  0.8622515E-01
          2   -1    0    0  501    0  0.00000000000E+00  0.00000000000E+00  0.10504898190E+04  0.10504898190E+04  0.00000000000E+00 0. -1.
         -1   -1    0    0    0  501 -0.00000000000E+00 -0.00000000000E+00 -0.92017739753E+03  0.92017739753E+03  0.00000000000E+00 0.  1.
         24    2    1    2    0    0  0.96183328443E+02  0.39392532792E+03 -0.60522812967E+03  0.73252479446E+03  0.76570809821E+02 0.  0.
        254    2    1    2    0    0 -0.96183328443E+02 -0.39392532792E+03  0.73554055112E+03  0.12381424220E+04  0.90969684966E+03 0.  0.
         23    2    4    4    0    0 -0.16200311664E+03  0.34339219210E+02 -0.15426322263E+03  0.24460577108E+03  0.92793586046E+02 0.  0.
         23    2    4    4    0    0  0.65819788199E+02 -0.42826454713E+03  0.88980377375E+03  0.99353665097E+03  0.87301513082E+02 0.  0.
          2    1    3    3  502    0  0.35095804701E+02  0.72861904324E+02 -0.16991874630E+03  0.18818329616E+03  0.00000000000E+00 0. -1.
         -1    1    3    3    0  502  0.61087523743E+02  0.32106342360E+03 -0.43530938336E+03  0.54434149830E+03  0.00000000000E+00 0.  1.
         11    1    5    5    0    0 -0.22799459007E+01 -0.38683357091E+01 -0.49725832573E+02  0.49928154377E+02  0.00000000000E+00 0. -1.
        -11    1    5    5    0    0 -0.15972317074E+03  0.38207554919E+02 -0.10453739006E+03  0.19467761670E+03  0.00000000000E+00 0.  1.
          1    1    6    6  503    0  0.48041493512E+02 -0.41820589696E+03  0.85859922327E+03  0.95624096521E+03  0.00000000000E+00 0. -1.
         -1    1    6    6    0  503  0.17778294688E+02 -0.10058650177E+02  0.31204550478E+02  0.37295685755E+02  0.00000000000E+00 0.  1.
<mgrwt>
<rscale>  0 0.19663540E+04</rscale>
<asrwt>0</asrwt>
<pdfrwt beam="1">  1        2 0.16161382E+00 0.19663540E+04</pdfrwt>
<pdfrwt beam="2">  1       -1 0.14156575E+00 0.19663540E+04</pdfrwt>
<totfact> 0.10119263E+01</totfact>
</mgrwt>
</event>
<event>
12    6  0.1510140E-007  0.1634254E+04  0.7818608E-02  0.8799776E-01
          2   -1    0    0  501    0  0.00000000000E+00  0.00000000000E+00  0.21728147363E+04  0.21728147363E+04  0.00000000000E+00 0. -1.
         -1   -1    0    0    0  501 -0.00000000000E+00 -0.00000000000E+00 -0.30729581743E+03  0.30729581743E+03  0.00000000000E+00 0.  1.
         24    2    1    2    0    0  0.33969553417E+03  0.41685628293E+03  0.88204087238E+03  0.10361862366E+04  0.80768804604E+02 0.  0.
        254    2    1    2    0    0 -0.33969553417E+03 -0.41685628293E+03  0.98347804652E+03  0.14439243172E+04  0.91023411779E+03 0.  0.
         23    2    4    4    0    0  0.18858347642E+03 -0.22112199150E+03 -0.27859065839E+01  0.30450285694E+03  0.90860144771E+02 0.  0.
         23    2    4    4    0    0 -0.52827901059E+03 -0.19573429143E+03  0.98626395310E+03  0.11394214602E+04  0.90410469382E+02 0.  0.
          2    1    3    3  502    0  0.30059842613E+03  0.33834265028E+03  0.77840893998E+03  0.90041970249E+03  0.00000000000E+00 0. -1.
         -1    1    3    3    0  502  0.39097108044E+02  0.78513632647E+02  0.10363193240E+03  0.13576653410E+03  0.00000000000E+00 0.  1.
         11    1    5    5    0    0  0.15260731008E+03 -0.14906354568E+03 -0.37851718482E+02  0.21666029708E+03  0.00000000000E+00 0. -1.
        -11    1    5    5    0    0  0.35976166336E+02 -0.72058445821E+02  0.35065811898E+02  0.87842559858E+02  0.00000000000E+00 0.  1.
          3    1    6    6  503    0 -0.44554748031E+03 -0.18648662402E+03  0.88601443367E+03  0.10091141634E+04  0.00000000000E+00 0. -1.
         -3    1    6    6    0  503 -0.82731530276E+02 -0.92476674027E+01  0.10024951943E+03  0.13030729681E+03  0.00000000000E+00 0.  1.
<mgrwt>
<rscale>  0 0.16342544E+04</rscale>
<asrwt>0</asrwt>
<pdfrwt beam="1">  1        2 0.33427918E+00 0.16342544E+04</pdfrwt>
<pdfrwt beam="2">  1       -1 0.47276281E-01 0.16342544E+04</pdfrwt>
<totfact> 0.26023281E+01</totfact>
</mgrwt>
</event>
<event>
12    6  0.1510140E-007  0.1946091E+04  0.7818608E-02  0.8632248E-01
          2   -1    0    0  501    0  0.00000000000E+00  0.00000000000E+00  0.84225801034E+03  0.84225801034E+03  0.00000000000E+00 0. -1.
         -1   -1    0    0    0  501 -0.00000000000E+00 -0.00000000000E+00 -0.11241423289E+04  0.11241423289E+04  0.00000000000E+00 0.  1.
         24    2    1    2    0    0 -0.43627323675E+03  0.61832739581E+03 -0.24591758593E+03  0.80200571005E+03  0.10037227889E+03 0.  0.
        254    2    1    2    0    0  0.43627323675E+03 -0.61832739581E+03 -0.35966732669E+02  0.11643946292E+04  0.88422742616E+03 0.  0.
         23    2    4    4    0    0 -0.51685380233E+02 -0.18011990172E+03  0.34310490711E+03  0.40135986978E+03  0.90852684400E+02 0.  0.
         23    2    4    4    0    0  0.48795861699E+03 -0.43820749409E+03 -0.37907163978E+03  0.76303475943E+03  0.91636871691E+02 0.  0.
          2    1    3    3  502    0 -0.27967298250E+03  0.35500462581E+03 -0.10096701444E+03  0.46307623508E+03  0.00000000000E+00 0. -1.
         -1    1    3    3    0  502 -0.15660025426E+03  0.26332277000E+03 -0.14495057149E+03  0.33892947497E+03  0.00000000000E+00 0.  1.
         11    1    5    5    0    0 -0.71409880416E+02 -0.13472532562E+03  0.29633267812E+03  0.33326166972E+03  0.00000000000E+00 0. -1.
        -11    1    5    5    0    0  0.19724500183E+02 -0.45394576096E+02  0.46772228989E+02  0.68098200057E+02  0.00000000000E+00 0.  1.
          1    1    6    6  503    0  0.48495470682E+03 -0.43004084046E+03 -0.35850652963E+03  0.74070447813E+03  0.00000000000E+00 0. -1.
         -1    1    6    6    0  503  0.30039101658E+01 -0.81666536254E+01 -0.20565110148E+02  0.22330281304E+02  0.00000000000E+00 0.  1.
<mgrwt>
<rscale>  0 0.19460913E+04</rscale>
<asrwt>0</asrwt>
<pdfrwt beam="1">  1        2 0.12957816E+00 0.19460913E+04</pdfrwt>
<pdfrwt beam="2">  1       -1 0.17294497E+00 0.19460913E+04</pdfrwt>
<totfact> 0.80123034E+00</totfact>
</mgrwt>
</event>
<event>
12    6  0.1510140E-007  0.1188802E+04  0.7818608E-02  0.9122715E-01
          2   -1    0    0  501    0  0.00000000000E+00  0.00000000000E+00  0.12735086102E+04  0.12735086102E+04  0.00000000000E+00 0. -1.
         -1   -1    0    0    0  501 -0.00000000000E+00 -0.00000000000E+00 -0.27743220134E+03  0.27743220134E+03  0.00000000000E+00 0.  1.
         24    2    1    2    0    0  0.10648703434E+03 -0.11790689398E+03 -0.19137416317E+02  0.17939433838E+03  0.81083683999E+02 0.  0.
        254    2    1    2    0    0 -0.10648703434E+03  0.11790689398E+03  0.10152138252E+04  0.13715464732E+04  0.90842671311E+03 0.  0.
         23    2    4    4    0    0 -0.37616875287E+03  0.37112493167E+03  0.52595542576E+03  0.75130839477E+03  0.92728359302E+02 0.  0.
         23    2    4    4    0    0  0.26968171853E+03 -0.25321803769E+03  0.48925839946E+03  0.62023807843E+03  0.92053726511E+02 0.  0.
          4    1    3    3  502    0 -0.86346630473E+01  0.33693541605E+01  0.48604717589E+01  0.10465855871E+02  0.00000000000E+00 0. -1.
         -3    1    3    3    0  502  0.11512169739E+03 -0.12127624814E+03 -0.23997888076E+02  0.16892848251E+03  0.00000000000E+00 0.  1.
         11    1    5    5    0    0 -0.38518682261E+02  0.39952834699E+02  0.20691612302E+02  0.59228884029E+02  0.00000000000E+00 0.  1.
        -11    1    5    5    0    0 -0.33765007061E+03  0.33117209697E+03  0.50526381346E+03  0.69207951074E+03  0.00000000000E+00 0. -1.
          2    1    6    6  503    0  0.18068951206E+03 -0.10790042906E+03  0.25702253210E+03  0.33219239059E+03  0.00000000000E+00 0. -1.
         -2    1    6    6    0  503  0.88992206469E+02 -0.14531760863E+03  0.23223586736E+03  0.28804568783E+03  0.00000000000E+00 0.  1.
<mgrwt>
<rscale>  0 0.11888016E+04</rscale>
<asrwt>0</asrwt>
<pdfrwt beam="1">  1        2 0.19592440E+00 0.11888016E+04</pdfrwt>
<pdfrwt beam="2">  1       -1 0.42681878E-01 0.11888016E+04</pdfrwt>
<totfact> 0.10415203E+02</totfact>
</mgrwt>
</event>
<event>
12    6  0.1510140E-007  0.1859364E+04  0.7818608E-02  0.8675352E-01
          2   -1    0    0  501    0  0.00000000000E+00  0.00000000000E+00  0.25259040191E+04  0.25259040191E+04  0.00000000000E+00 0. -1.
         -1   -1    0    0    0  501 -0.00000000000E+00 -0.00000000000E+00 -0.34217778551E+03  0.34217778551E+03  0.00000000000E+00 0.  1.
         24    2    1    2    0    0  0.30470922809E+03 -0.44700005829E+03  0.15381509471E+04  0.16324794520E+04  0.80150229811E+02 0.  0.
        254    2    1    2    0    0 -0.30470922809E+03  0.44700005829E+03  0.64557528652E+03  0.12356023526E+04  0.90404035169E+03 0.  0.
         23    2    4    4    0    0  0.42185644396E+01  0.65728923035E+03  0.35877032872E+03  0.75423165455E+03  0.90012839863E+02 0.  0.
         23    2    4    4    0    0 -0.30892779253E+03 -0.21028917206E+03  0.28680495780E+03  0.48137069808E+03  0.99008829265E+02 0.  0.
          2    1    3    3  502    0  0.26538237618E+03 -0.42176840560E+03  0.14397746632E+04  0.15235706332E+04  0.00000000000E+00 0. -1.
         -1    1    3    3    0  502  0.39326851910E+02 -0.25231652688E+02  0.98376283895E+02  0.10890881880E+03  0.00000000000E+00 0.  1.
         11    1    5    5    0    0  0.97873852235E+01  0.65667828893E+03  0.35103175267E+03  0.74467809115E+03  0.00000000000E+00 0. -1.
        -11    1    5    5    0    0 -0.55688207839E+01  0.61094141928E+00  0.77385760496E+01  0.95535633989E+01  0.00000000000E+00 0.  1.
          3    1    6    6  503    0 -0.23145038370E+03 -0.18102172688E+03  0.26511232709E+03  0.39575584859E+03  0.00000000000E+00 0. -1.
         -3    1    6    6    0  503 -0.77477408835E+02 -0.29267445177E+02  0.21692630706E+02  0.85614849494E+02  0.00000000000E+00 0.  1.
<mgrwt>
<rscale>  0 0.18593636E+04</rscale>
<asrwt>0</asrwt>
<pdfrwt beam="1">  1        2 0.38860061E+00 0.18593636E+04</pdfrwt>
<pdfrwt beam="2">  1       -1 0.52642738E-01 0.18593636E+04</pdfrwt>
<totfact> 0.13094846E+01</totfact>
</mgrwt>
</event>
<event>
12    6  0.1510140E-007  0.1746399E+04  0.7818608E-02  0.8735335E-01
         -1   -1    0    0    0  501 -0.00000000000E+00  0.00000000000E+00  0.41610211408E+03  0.41610211408E+03  0.00000000000E+00 0.  1.
          2   -1    0    0  501    0  0.00000000000E+00 -0.00000000000E+00 -0.18324290412E+04  0.18324290412E+04  0.00000000000E+00 0. -1.
         24    2    1    2    0    0  0.19141186287E+03 -0.31699732135E+02  0.26143004206E+03  0.33494665877E+03  0.78741495168E+02 0.  0.
        254    2    1    2    0    0 -0.19141186287E+03  0.31699732135E+02 -0.16777569692E+04  0.19135844966E+04  0.89960758302E+03 0.  0.
         23    2    4    4    0    0 -0.18737838481E+03 -0.41514764723E+03 -0.83991522575E+03  0.95986900148E+03  0.91829654539E+02 0.  0.
         23    2    4    4    0    0 -0.40334780636E+01  0.44684737936E+03 -0.83784174347E+03  0.95371549508E+03  0.88913492073E+02 0.  0.
          2    1    3    3  502    0 -0.57076324270E+01  0.22524734357E+01  0.22611019018E+02  0.23428804612E+02  0.00000000000E+00 0. -1.
         -1    1    3    3    0  502  0.19711949530E+03 -0.33952205570E+02  0.23881902304E+03  0.31151785415E+03  0.00000000000E+00 0.  1.
         11    1    5    5    0    0 -0.16010929931E+03 -0.39886386971E+03 -0.74887037734E+03  0.86344323284E+03  0.00000000000E+00 0.  1.
        -11    1    5    5    0    0 -0.27269085499E+02 -0.16283777521E+02 -0.91044848416E+02  0.96425768638E+02  0.00000000000E+00 0. -1.
          4    1    6    6  503    0  0.41245215534E+02  0.17492675986E+03 -0.31571375573E+03  0.36328461938E+03  0.00000000000E+00 0. -1.
         -4    1    6    6    0  503 -0.45278693597E+02  0.27192061950E+03 -0.52212798773E+03  0.59043087570E+03  0.00000000000E+00 0.  1.
<mgrwt>
<rscale>  0 0.17463993E+04</rscale>
<asrwt>0</asrwt>
<pdfrwt beam="1">  1        2 0.28191217E+00 0.17463993E+04</pdfrwt>
<pdfrwt beam="2">  1       -1 0.64015709E-01 0.17463993E+04</pdfrwt>
<totfact> 0.22121895E+01</totfact>
</mgrwt>
</event>
<event>
12    6  0.1510140E-007  0.1611302E+04  0.7818608E-02  0.8813635E-01
          2   -1    0    0  501    0  0.00000000000E+00  0.00000000000E+00  0.21759716338E+04  0.21759716338E+04  0.00000000000E+00 0. -1.
         -1   -1    0    0    0  501 -0.00000000000E+00 -0.00000000000E+00 -0.29829130459E+03  0.29829130459E+03  0.00000000000E+00 0.  1.
         24    2    1    2    0    0 -0.44071731689E+02 -0.48131114467E+03  0.10554821621E+04  0.11637580352E+04  0.81776735864E+02 0.  0.
        254    2    1    2    0    0  0.44071731689E+02  0.48131114467E+03  0.82219816706E+03  0.13105049031E+04  0.89878281004E+03 0.  0.
         23    2    4    4    0    0 -0.14581681805E+03  0.26605014476E+03 -0.10679546143E+03  0.33422116285E+03  0.90847626084E+02 0.  0.
         23    2    4    4    0    0  0.18988854974E+03  0.21526099991E+03  0.92899362849E+03  0.97628374026E+03  0.87782801854E+02 0.  0.
          2    1    3    3  502    0 -0.24959804165E+02 -0.46310673160E+03  0.99619285277E+03  0.10988589703E+04  0.00000000000E+00 0. -1.
         -1    1    3    3    0  502 -0.19111927524E+02 -0.18204413067E+02  0.59289309337E+02  0.64899064943E+02  0.00000000000E+00 0.  1.
         11    1    5    5    0    0 -0.10816166833E+03  0.15403391776E+03 -0.10606212499E+03  0.21604297877E+03  0.00000000000E+00 0. -1.
        -11    1    5    5    0    0 -0.37655149716E+02  0.11201622700E+03 -0.73333643437E+00  0.11817818408E+03  0.00000000000E+00 0.  1.
          3    1    6    6  503    0  0.78681689506E+02  0.11870964867E+03  0.32941541482E+03  0.35888341348E+03  0.00000000000E+00 0. -1.
         -3    1    6    6    0  503  0.11120686023E+03  0.96551351243E+02  0.59957821367E+03  0.61740032677E+03  0.00000000000E+00 0.  1.
<mgrwt>
<rscale>  0 0.16113019E+04</rscale>
<asrwt>0</asrwt>
<pdfrwt beam="1">  1        2 0.33476486E+00 0.16113019E+04</pdfrwt>
<pdfrwt beam="2">  1       -1 0.45890971E-01 0.16113019E+04</pdfrwt>
<totfact> 0.27459612E+01</totfact>
</mgrwt>
</event>
<event>
12    6  0.1510140E-007  0.1703776E+04  0.7818608E-02  0.8759214E-01
         -1   -1    0    0    0  501 -0.00000000000E+00  0.00000000000E+00  0.57245280869E+03  0.57245280869E+03  0.00000000000E+00 0.  1.
          2   -1    0    0  501    0  0.00000000000E+00 -0.00000000000E+00 -0.12677257692E+04  0.12677257692E+04  0.00000000000E+00 0. -1.
         24    2    1    2    0    0 -0.69380872754E+02  0.44215382862E+03 -0.70141633257E+03  0.83618429424E+03  0.83099871719E+02 0.  0.
        254    2    1    2    0    0  0.69380872754E+02 -0.44215382862E+03  0.61433720894E+01  0.10039942836E+04  0.89869520242E+03 0.  0.
         23    2    4    4    0    0  0.38097920710E+03 -0.12726669862E+03  0.25877147508E+03  0.48598960754E+03  0.88776424202E+02 0.  0.
         23    2    4    4    0    0 -0.31159833435E+03 -0.31488713000E+03 -0.25262810299E+03  0.51800467608E+03  0.90887069557E+02 0.  0.
          4    1    3    3  502    0 -0.61362363055E+02  0.43218066193E+03 -0.69744579356E+03  0.82278557298E+03  0.00000000000E+00 0. -1.
         -3    1    3    3    0  502 -0.80185096990E+01  0.99731666861E+01 -0.39705390109E+01  0.13398721267E+02  0.00000000000E+00 0.  1.
         11    1    5    5    0    0  0.72198080921E+02 -0.22097675087E+02  0.10874151815E+02  0.76283139098E+02  0.00000000000E+00 0. -1.
        -11    1    5    5    0    0  0.30878112618E+03 -0.10516902353E+03  0.24789732326E+03  0.40970646844E+03  0.00000000000E+00 0.  1.
          2    1    6    6  503    0 -0.75055294349E+02 -0.27758366856E+02 -0.50462577157E+02  0.94606003158E+02  0.00000000000E+00 0. -1.
         -2    1    6    6    0  503 -0.23654304000E+03 -0.28712876314E+03 -0.20216552583E+03  0.42339867292E+03  0.00000000000E+00 0.  1.
<mgrwt>
<rscale>  0 0.17037760E+04</rscale>
<asrwt>0</asrwt>
<pdfrwt beam="1">  1        2 0.19503473E+00 0.17037760E+04</pdfrwt>
<pdfrwt beam="2">  1       -1 0.88069665E-01 0.17037760E+04</pdfrwt>
<totfact> 0.23729528E+01</totfact>
</mgrwt>
</event>
<event>
12    6  0.1510140E-007  0.1939644E+04  0.7818608E-02  0.8635371E-01
          2   -1    0    0  501    0  0.00000000000E+00  0.00000000000E+00  0.10015762540E+04  0.10015762540E+04  0.00000000000E+00 0. -1.
         -1   -1    0    0    0  501 -0.00000000000E+00 -0.00000000000E+00 -0.93907452009E+03  0.93907452009E+03  0.00000000000E+00 0.  1.
         24    2    1    2    0    0  0.36377558242E+02 -0.45314093428E+03 -0.58316448165E+03  0.74375453321E+03  0.80187031079E+02 0.  0.
        254    2    1    2    0    0 -0.36377558242E+02  0.45314093428E+03  0.64566621553E+03  0.11968962409E+04  0.89945300958E+03 0.  0.
         23    2    4    4    0    0  0.10296338769E+02 -0.26298118804E+03  0.13470532099E+03  0.31043262228E+03  0.94645494433E+02 0.  0.
         23    2    4    4    0    0 -0.46673897011E+02  0.71612212232E+03  0.51096089455E+03  0.88646361858E+03  0.98627402767E+02 0.  0.
          2    1    3    3  502    0  0.24472518038E+02 -0.13583076803E+03 -0.23503724687E+03  0.27256450447E+03  0.00000000000E+00 0. -1.
         -1    1    3    3    0  502  0.11905040204E+02 -0.31731016625E+03 -0.34812723478E+03  0.47119002874E+03  0.00000000000E+00 0.  1.
         11    1    5    5    0    0  0.36091770127E+02 -0.19039440161E+03  0.59348336996E+02  0.20266935915E+03  0.00000000000E+00 0. -1.
        -11    1    5    5    0    0 -0.25795431358E+02 -0.72586786435E+02  0.75356983990E+02  0.10776326313E+03  0.00000000000E+00 0.  1.
          3    1    6    6  503    0 -0.44909433254E+02  0.56880152478E+03  0.45143642187E+03  0.72756228241E+03  0.00000000000E+00 0. -1.
         -3    1    6    6    0  503 -0.17644637572E+01  0.14732059753E+03  0.59524472675E+02  0.15890133617E+03  0.00000000000E+00 0.  1.
<mgrwt>
<rscale>  0 0.19396440E+04</rscale>
<asrwt>0</asrwt>
<pdfrwt beam="1">  1        2 0.15408866E+00 0.19396440E+04</pdfrwt>
<pdfrwt beam="2">  1       -1 0.14447300E+00 0.19396440E+04</pdfrwt>
<totfact> 0.10325829E+01</totfact>
</mgrwt>
</event>
<event>
12    6  0.1718651E-007  0.1597337E+04  0.7818608E-02  0.8822185E-01
          2   -1    0    0  501    0  0.00000000000E+00  0.00000000000E+00  0.21680666980E+04  0.21680666980E+04  0.00000000000E+00 0. -1.
         -1   -1    0    0    0  501 -0.00000000000E+00 -0.00000000000E+00 -0.29421217952E+03  0.29421217952E+03  0.00000000000E+00 0.  1.
         24    2    1    2    0    0  0.20537472811E+03  0.16247782595E+03  0.13680971195E+04  0.13960521573E+04  0.93242022062E+02 0.  0.
        254    2    1    2    0    0 -0.20537472811E+03 -0.16247782595E+03  0.50575739900E+03  0.10662267202E+04  0.90137175984E+03 0.  0.
         23    2    4    4    0    0  0.26185843566E+03  0.86595491242E+02 -0.48565534066E+02  0.29352028759E+03  0.87902950443E+02 0.  0.
         23    2    4    4    0    0 -0.46723316377E+03 -0.24907331719E+03  0.55432293307E+03  0.77270643265E+03  0.97246955048E+02 0.  0.
          4    1    3    3  502    0  0.17685434838E+03  0.16398099032E+03  0.13004184761E+04  0.13225942078E+04  0.00000000000E+00 0. -1.
         -3    1    3    3    0  502  0.28520379727E+02 -0.15031643751E+01  0.67678643441E+02  0.73457949474E+02  0.00000000000E+00 0.  1.
         11    1    5    5    0    0  0.16482967061E+03  0.97935930626E+02 -0.34892627258E+02  0.19487883994E+03  0.00000000000E+00 0.  1.
        -11    1    5    5    0    0  0.97028765053E+02 -0.11340439384E+02 -0.13672906807E+02  0.98641447646E+02  0.00000000000E+00 0. -1.
          1    1    6    6  503    0 -0.59807809789E+02 -0.64622434091E+02  0.62704868575E+02  0.10809687157E+03  0.00000000000E+00 0. -1.
         -1    1    6    6    0  503 -0.40742535398E+03 -0.18445088310E+03  0.49161806449E+03  0.66460956108E+03  0.00000000000E+00 0.  1.
<mgrwt>
<rscale>  0 0.15973373E+04</rscale>
<asrwt>0</asrwt>
<pdfrwt beam="1">  1        2 0.33354871E+00 0.15973373E+04</pdfrwt>
<pdfrwt beam="2">  1       -1 0.45263414E-01 0.15973373E+04</pdfrwt>
<totfact> 0.28498244E+01</totfact>
</mgrwt>
</event>
<event>
12    6  0.1510140E-007  0.1924210E+04  0.7818608E-02  0.8642898E-01
         -1   -1    0    0    0  501 -0.00000000000E+00  0.00000000000E+00  0.88903443891E+03  0.88903443891E+03  0.00000000000E+00 0.  1.
          2   -1    0    0  501    0  0.00000000000E+00 -0.00000000000E+00 -0.10411817444E+04  0.10411817444E+04  0.00000000000E+00 0. -1.
         24    2    1    2    0    0 -0.37618583789E+02 -0.63919739170E+03 -0.44952939215E+03  0.78642462557E+03  0.79990961285E+02 0.  0.
        254    2    1    2    0    0  0.37618583789E+02  0.63919739170E+03  0.29738208663E+03  0.11437915578E+04  0.89990808351E+03 0.  0.
         23    2    4    4    0    0  0.42197487329E+03  0.47335145378E+03  0.37125099951E+02  0.64234998528E+03  0.95450710124E+02 0.  0.
         23    2    4    4    0    0 -0.38435628950E+03  0.16584593792E+03  0.26025698668E+03  0.50144157249E+03  0.92061496301E+02 0.  0.
          4    1    3    3  502    0 -0.35935152755E+02 -0.64145496456E+03 -0.44738935062E+03  0.78288762783E+03  0.00000000000E+00 0. -1.
         -3    1    3    3    0  502 -0.16834310332E+01  0.22575728567E+01 -0.21400415298E+01  0.35369977377E+01  0.00000000000E+00 0.  1.
         11    1    5    5    0    0  0.41538163586E+03  0.47595436688E+03  0.30207092111E+02  0.63244520014E+03  0.00000000000E+00 0. -1.
        -11    1    5    5    0    0  0.65932374220E+01 -0.26029130954E+01  0.69180078406E+01  0.99047851450E+01  0.00000000000E+00 0.  1.
          1    1    6    6  503    0 -0.27495368398E+03  0.71756587767E+02  0.17892382503E+03  0.33580094013E+03  0.00000000000E+00 0. -1.
         -1    1    6    6    0  503 -0.10940260551E+03  0.94089350156E+02  0.81333161644E+02  0.16564063236E+03  0.00000000000E+00 0.  1.
<mgrwt>
<rscale>  0 0.19242104E+04</rscale>
<asrwt>0</asrwt>
<pdfrwt beam="1">  1        2 0.16018181E+00 0.19242104E+04</pdfrwt>
<pdfrwt beam="2">  1       -1 0.13677453E+00 0.19242104E+04</pdfrwt>
<totfact> 0.11261194E+01</totfact>
</mgrwt>
</event>
<event>
12    6  0.1510140E-007  0.1529683E+04  0.7818608E-02  0.8864950E-01
          2   -1    0    0  501    0  0.00000000000E+00  0.00000000000E+00  0.62570922775E+03  0.62570922775E+03  0.00000000000E+00 0. -1.
         -1   -1    0    0    0  501 -0.00000000000E+00 -0.00000000000E+00 -0.93491131772E+03  0.93491131772E+03  0.00000000000E+00 0.  1.
         24    2    1    2    0    0 -0.16092070593E+03  0.45866440773E+03 -0.56772758107E+02  0.49800168825E+03  0.92271463184E+02 0.  0.
        254    2    1    2    0    0  0.16092070593E+03 -0.45866440773E+03 -0.25242933187E+03  0.10626188572E+04  0.91058758810E+03 0.  0.
         23    2    4    4    0    0  0.25668330381E+03 -0.46389131098E+03  0.21290040231E+03  0.57846569669E+03  0.90633956584E+02 0.  0.
         23    2    4    4    0    0 -0.95762597884E+02  0.52269032417E+01 -0.46532973418E+03  0.48415316053E+03  0.93138207376E+02 0.  0.
          2    1    3    3  502    0 -0.16342927823E+03  0.46229836425E+03 -0.56081955777E+02  0.49353226068E+03  0.00000000000E+00 0. -1.
         -1    1    3    3    0  502  0.25085723035E+01 -0.36339565127E+01 -0.69080232955E+00  0.44694275693E+01  0.00000000000E+00 0.  1.
         11    1    5    5    0    0  0.17797091267E+03 -0.33413606652E+03  0.10700421151E+03  0.39340876705E+03  0.00000000000E+00 0.  1.
        -11    1    5    5    0    0  0.78712391146E+02 -0.12975524445E+03  0.10589619080E+03  0.18505692964E+03  0.00000000000E+00 0. -1.
          2    1    6    6  503    0 -0.57633684227E+02 -0.25870772795E+02 -0.38351368705E+03  0.38868198646E+03  0.00000000000E+00 0. -1.
         -2    1    6    6    0  503 -0.38128913658E+02  0.31097676037E+02 -0.81816047129E+02  0.95471174076E+02  0.00000000000E+00 0.  1.
<mgrwt>
<rscale>  0 0.15296832E+04</rscale>
<asrwt>0</asrwt>
<pdfrwt beam="1">  1        2 0.96262958E-01 0.15296832E+04</pdfrwt>
<pdfrwt beam="2">  1       -1 0.14383251E+00 0.15296832E+04</pdfrwt>
<totfact> 0.20263856E+01</totfact>
</mgrwt>
</event>
<event>
12    6  0.1510140E-007  0.1875483E+04  0.7818608E-02  0.8667157E-01
          2   -1    0    0  501    0  0.00000000000E+00  0.00000000000E+00  0.11193345213E+04  0.11193345213E+04  0.00000000000E+00 0. -1.
         -1   -1    0    0    0  501 -0.00000000000E+00 -0.00000000000E+00 -0.78560914795E+03  0.78560914795E+03  0.00000000000E+00 0.  1.
         24    2    1    2    0    0 -0.94381209207E+02 -0.59978797436E+03 -0.26577969559E+03  0.66746161843E+03  0.78820927704E+02 0.  0.
        254    2    1    2    0    0  0.94381209207E+02  0.59978797436E+03  0.59950506897E+03  0.12374820509E+04  0.89627120427E+03 0.  0.
         23    2    4    4    0    0  0.56640887359E+01  0.74695725690E+03  0.69126587483E+03  0.10216125835E+04  0.88693491597E+02 0.  0.
         23    2    4    4    0    0  0.88717120471E+02 -0.14716928254E+03 -0.91760805858E+02  0.21586946738E+03  0.93005678691E+02 0.  0.
          4    1    3    3  502    0 -0.10075542323E+02 -0.85890000217E+02 -0.69454435954E+02  0.11091675872E+03  0.00000000000E+00 0. -1.
         -3    1    3    3    0  502 -0.84305666884E+02 -0.51389797415E+03 -0.19632525964E+03  0.55654485971E+03  0.00000000000E+00 0.  1.
         11    1    5    5    0    0  0.37273014850E+02  0.53963686775E+03  0.46771776197E+03  0.71509239371E+03  0.00000000000E+00 0. -1.
        -11    1    5    5    0    0 -0.31608926114E+02  0.20732038915E+03  0.22354811286E+03  0.30652018976E+03  0.00000000000E+00 0.  1.
          1    1    6    6  503    0  0.41777713194E+02 -0.12885031812E+03 -0.34864487298E+02  0.13986891818E+03  0.00000000000E+00 0. -1.
         -1    1    6    6    0  503  0.46939407277E+02 -0.18318964419E+02 -0.56896318560E+02  0.76000549199E+02  0.00000000000E+00 0.  1.
<mgrwt>
<rscale>  0 0.18754833E+04</rscale>
<asrwt>0</asrwt>
<pdfrwt beam="1">  1        2 0.17220531E+00 0.18754833E+04</pdfrwt>
<pdfrwt beam="2">  1       -1 0.12086295E+00 0.18754833E+04</pdfrwt>
<totfact> 0.13800332E+01</totfact>
</mgrwt>
</event>
<event>
12    6  0.1510140E-007  0.2188613E+04  0.7818608E-02  0.8523183E-01
         -1   -1    0    0    0  501 -0.00000000000E+00  0.00000000000E+00  0.44449284992E+03  0.44449284992E+03  0.00000000000E+00 0.  1.
          2   -1    0    0  501    0  0.00000000000E+00 -0.00000000000E+00 -0.26940969541E+04  0.26940969541E+04  0.00000000000E+00 0. -1.
         24    2    1    2    0    0  0.56644854136E+03  0.60770355766E+03 -0.40247960655E+03  0.92671281460E+03  0.81481550346E+02 0.  0.
        254    2    1    2    0    0 -0.56644854136E+03 -0.60770355766E+03 -0.18471244977E+04  0.22118769895E+04  0.88902381444E+03 0.  0.
         23    2    4    4    0    0  0.20024305731E+03 -0.14331953529E+03 -0.73632159805E+03  0.78173685120E+03  0.91133076173E+02 0.  0.
         23    2    4    4    0    0 -0.76669159867E+03 -0.46438402237E+03 -0.11108028996E+04  0.14301401383E+04  0.89158317486E+02 0.  0.
          2    1    3    3  502    0  0.26436849409E+03  0.25509912691E+03 -0.21735121617E+03  0.42685807523E+03  0.00000000000E+00 0. -1.
         -1    1    3    3    0  502  0.30208004727E+03  0.35260443075E+03 -0.18512839038E+03  0.49985473937E+03  0.00000000000E+00 0.  1.
         11    1    5    5    0    0  0.10979147427E+03 -0.11497044160E+03 -0.55247481860E+03  0.57489198590E+03  0.00000000000E+00 0.  1.
        -11    1    5    5    0    0  0.90451583037E+02 -0.28349093691E+02 -0.18384677945E+03  0.20684486530E+03  0.00000000000E+00 0. -1.
          2    1    6    6  503    0 -0.55984294733E+01 -0.17055494651E+02 -0.23478026162E+02  0.29554187907E+02  0.00000000000E+00 0. -1.
         -2    1    6    6    0  503 -0.76109316920E+03 -0.44732852772E+03 -0.10873248734E+04  0.14005859504E+04  0.00000000000E+00 0.  1.
<mgrwt>
<rscale>  0 0.21886131E+04</rscale>
<asrwt>0</asrwt>
<pdfrwt beam="1">  1        2 0.41447646E+00 0.21886131E+04</pdfrwt>
<pdfrwt beam="2">  1       -1 0.68383515E-01 0.21886131E+04</pdfrwt>
<totfact> 0.60355154E+00</totfact>
</mgrwt>
</event>
<event>
12    6  0.1510140E-007  0.2468607E+04  0.7818608E-02  0.8414255E-01
         -1   -1    0    0    0  501 -0.00000000000E+00  0.00000000000E+00  0.13323083326E+04  0.13323083326E+04  0.00000000000E+00 0.  1.
          2   -1    0    0  501    0  0.00000000000E+00 -0.00000000000E+00 -0.11435083161E+04  0.11435083161E+04  0.00000000000E+00 0. -1.
         24    2    1    2    0    0 -0.33230785512E+03  0.18018543236E+03  0.10852050937E+04  0.11519112412E+04  0.79587131947E+02 0.  0.
        254    2    1    2    0    0  0.33230785512E+03 -0.18018543236E+03 -0.89640507723E+03  0.13239054074E+04  0.89793550143E+03 0.  0.
         23    2    4    4    0    0  0.11673903373E+03  0.11184121098E+03 -0.93008883655E+03  0.94834161704E+03  0.90278016549E+02 0.  0.
         23    2    4    4    0    0  0.21556882138E+03 -0.29202664333E+03  0.33683759314E+02  0.37556379039E+03  0.90355342071E+02 0.  0.
          2    1    3    3  502    0 -0.52236483645E+02  0.64617526621E+02  0.25038013993E+03  0.26380729603E+03  0.00000000000E+00 0. -1.
         -1    1    3    3    0  502 -0.28007137147E+03  0.11556790574E+03  0.83482495382E+03  0.88810394520E+03  0.00000000000E+00 0.  1.
         11    1    5    5    0    0  0.96795792674E+02  0.10384406483E+03 -0.56291707730E+03  0.58054168774E+03  0.00000000000E+00 0. -1.
        -11    1    5    5    0    0  0.19943241060E+02  0.79971461477E+01 -0.36717175924E+03  0.36779992930E+03  0.00000000000E+00 0.  1.
          2    1    6    6  503    0  0.78969473252E+02 -0.18059942276E+03  0.66611487626E+01  0.19722246350E+03  0.00000000000E+00 0. -1.
         -2    1    6    6    0  503  0.13659934813E+03 -0.11142722057E+03  0.27022610551E+02  0.17834132689E+03  0.00000000000E+00 0.  1.
<mgrwt>
<rscale>  0 0.24686074E+04</rscale>
<asrwt>0</asrwt>
<pdfrwt beam="1">  1        2 0.17592436E+00 0.24686074E+04</pdfrwt>
<pdfrwt beam="2">  1       -1 0.20497051E+00 0.24686074E+04</pdfrwt>
<totfact> 0.29049969E+00</totfact>
</mgrwt>
</event>
<event>
12    6  0.1510140E-007  0.1414934E+04  0.7818608E-02  0.8943079E-01
          2   -1    0    0  501    0  0.00000000000E+00  0.00000000000E+00  0.65719132942E+03  0.65719132942E+03  0.00000000000E+00 0. -1.
         -1   -1    0    0    0  501 -0.00000000000E+00 -0.00000000000E+00 -0.76158844152E+03  0.76158844152E+03  0.00000000000E+00 0.  1.
         24    2    1    2    0    0  0.58219850104E+02 -0.26969186736E+03 -0.31974167337E+03  0.42942173797E+03  0.77749836549E+02 0.  0.
        254    2    1    2    0    0 -0.58219850104E+02  0.26969186736E+03  0.21534456128E+03  0.98935803298E+03  0.92538250636E+03 0.  0.
         23    2    4    4    0    0  0.35645042017E+03  0.13397513538E+03  0.34947947267E+03  0.52532491634E+03  0.93936824324E+02 0.  0.
         23    2    4    4    0    0 -0.41467027028E+03  0.13571673198E+03 -0.13413491139E+03  0.46403311664E+03  0.83451150342E+02 0.  0.
          2    1    3    3  502    0 -0.11487174621E+02 -0.43660696506E+01 -0.12453311754E+02  0.17495791454E+02  0.00000000000E+00 0. -1.
         -1    1    3    3    0  502  0.69707024725E+02 -0.26532579771E+03 -0.30728836162E+03  0.41192594651E+03  0.00000000000E+00 0.  1.
         11    1    5    5    0    0  0.89059516298E+02  0.63889993447E+01  0.43167988212E+02  0.99176065470E+02  0.00000000000E+00 0. -1.
        -11    1    5    5    0    0  0.26739090388E+03  0.12758613604E+03  0.30631148446E+03  0.42614885087E+03  0.00000000000E+00 0.  1.
          4    1    6    6  503    0 -0.20165856786E+03  0.10536768079E+03 -0.49671847724E+02  0.23288584887E+03  0.00000000000E+00 0. -1.
         -4    1    6    6    0  503 -0.21301170242E+03  0.30349051190E+02 -0.84463063668E+02  0.23114726777E+03  0.00000000000E+00 0.  1.
<mgrwt>
<rscale>  0 0.14149337E+04</rscale>
<asrwt>0</asrwt>
<pdfrwt beam="1">  1        2 0.10110636E+00 0.14149337E+04</pdfrwt>
<pdfrwt beam="2">  1       -1 0.11716745E+00 0.14149337E+04</pdfrwt>
<totfact> 0.32338643E+01</totfact>
</mgrwt>
</event>
<event>
12    6  0.1510140E-007  0.2208918E+04  0.7818608E-02  0.8514726E-01
         -1   -1    0    0    0  501 -0.00000000000E+00  0.00000000000E+00  0.57009492440E+03  0.57009492440E+03  0.00000000000E+00 0.  1.
          2   -1    0    0  501    0  0.00000000000E+00 -0.00000000000E+00 -0.21396950124E+04  0.21396950124E+04  0.00000000000E+00 0. -1.
         24    2    1    2    0    0 -0.40114182682E+03  0.75288098811E+03 -0.10711014935E+04  0.13716352883E+04  0.79877451796E+02 0.  0.
        254    2    1    2    0    0  0.40114182682E+03 -0.75288098811E+03 -0.49849859457E+03  0.13381546485E+04  0.90244804123E+03 0.  0.
         23    2    4    4    0    0  0.59158220748E+03 -0.64235830691E+03 -0.11364265374E+03  0.88536249642E+03  0.91424256313E+02 0.  0.
         23    2    4    4    0    0 -0.19044038066E+03 -0.11052268120E+03 -0.38485594083E+03  0.45279215212E+03  0.91781458853E+02 0.  0.
          2    1    3    3  502    0 -0.23988117977E+03  0.37495075762E+03 -0.58643273688E+03  0.73622985944E+03  0.00000000000E+00 0. -1.
         -1    1    3    3    0  502 -0.16126064705E+03  0.37793023049E+03 -0.48466875658E+03  0.63540542885E+03  0.00000000000E+00 0.  1.
         11    1    5    5    0    0  0.38838190021E+03 -0.47012187812E+03 -0.52462787105E+02  0.61205181539E+03  0.00000000000E+00 0. -1.
        -11    1    5    5    0    0  0.20320030727E+03 -0.17223642880E+03 -0.61179866640E+02  0.27331068102E+03  0.00000000000E+00 0.  1.
          1    1    6    6  503    0 -0.19280037732E+03 -0.88886321942E+02 -0.36952247493E+03  0.42616853850E+03  0.00000000000E+00 0. -1.
         -1    1    6    6    0  503  0.23599966678E+01 -0.21636359253E+02 -0.15333465893E+02  0.26623613622E+02  0.00000000000E+00 0.  1.
<mgrwt>
<rscale>  0 0.22089176E+04</rscale>
<asrwt>0</asrwt>
<pdfrwt beam="1">  1        2 0.32918385E+00 0.22089176E+04</pdfrwt>
<pdfrwt beam="2">  1       -1 0.87706912E-01 0.22089176E+04</pdfrwt>
<totfact> 0.74192027E+00</totfact>
</mgrwt>
</event>
<event>
12    6  0.1510140E-007  0.1922611E+04  0.7818608E-02  0.8643683E-01
          2   -1    0    0  501    0  0.00000000000E+00  0.00000000000E+00  0.18025103543E+04  0.18025103543E+04  0.00000000000E+00 0. -1.
         -1   -1    0    0    0  501 -0.00000000000E+00 -0.00000000000E+00 -0.51267850772E+03  0.51267850772E+03  0.00000000000E+00 0.  1.
         24    2    1    2    0    0  0.41282606999E+03  0.53005078323E+02 -0.24143703240E+03  0.48906661742E+03  0.87518073957E+02 0.  0.
        254    2    1    2    0    0 -0.41282606999E+03 -0.53005078323E+02  0.15312688790E+04  0.18261222446E+04  0.90371631063E+03 0.  0.
         23    2    4    4    0    0 -0.43941797035E+03  0.32953962819E+03  0.11458522185E+04  0.12739670071E+04  0.91269433165E+02 0.  0.
         23    2    4    4    0    0  0.26591900359E+02 -0.38254470651E+03  0.38541666049E+03  0.55215523747E+03  0.96342215211E+02 0.  0.
          2    1    3    3  502    0  0.64010081617E+02 -0.18583761870E+02 -0.58760634789E+02  0.88856395125E+02  0.00000000000E+00 0. -1.
         -1    1    3    3    0  502  0.34881598838E+03  0.71588840194E+02 -0.18267639761E+03  0.40021022230E+03  0.00000000000E+00 0.  1.
         11    1    5    5    0    0 -0.56228425890E+02  0.73568869218E+02  0.14381043694E+03  0.17104226428E+03  0.00000000000E+00 0.  1.
        -11    1    5    5    0    0 -0.38318954446E+03  0.25597075897E+03  0.10020417815E+04  0.11029247429E+04  0.00000000000E+00 0. -1.
          1    1    6    6  503    0  0.28064409087E+02 -0.36688271000E+03  0.38958665823E+03  0.53588086197E+03  0.00000000000E+00 0. -1.
         -1    1    6    6    0  503 -0.14725087279E+01 -0.15661996517E+02 -0.41699977360E+01  0.16274375502E+02  0.00000000000E+00 0.  1.
<mgrwt>
<rscale>  0 0.19226111E+04</rscale>
<asrwt>0</asrwt>
<pdfrwt beam="1">  1        2 0.27730928E+00 0.19226111E+04</pdfrwt>
<pdfrwt beam="2">  1       -1 0.78873617E-01 0.19226111E+04</pdfrwt>
<totfact> 0.14721769E+01</totfact>
</mgrwt>
</event>
<event>
12    6  0.1690114E-007  0.2643240E+04  0.7818608E-02  0.8353660E-01
         -1   -1    0    0    0  501 -0.00000000000E+00  0.00000000000E+00  0.58172733777E+03  0.58172733777E+03  0.00000000000E+00 0.  1.
          2   -1    0    0  501    0  0.00000000000E+00 -0.00000000000E+00 -0.30025732595E+04  0.30025732595E+04  0.00000000000E+00 0. -1.
         24    2    1    2    0    0  0.70411904299E+02 -0.11373132888E+04 -0.72987818365E+03  0.13555485586E+04  0.79689263969E+02 0.  0.
        254    2    1    2    0    0 -0.70411904299E+02  0.11373132888E+04 -0.16909677380E+04  0.22287520386E+04  0.89973574198E+03 0.  0.
         23    2    4    4    0    0 -0.17594348146E+03  0.63164366851E+03 -0.15504481124E+04  0.16853180282E+04  0.80484001619E+02 0.  0.
         23    2    4    4    0    0  0.10553157717E+03  0.50566962025E+03 -0.14051962566E+03  0.54343401035E+03  0.93466998357E+02 0.  0.
          4    1    3    3  502    0  0.37228265740E+02 -0.41485813686E+03 -0.22372671151E+03  0.47280742267E+03  0.00000000000E+00 0. -1.
         -3    1    3    3    0  502  0.33183638559E+02 -0.72245515191E+03 -0.50615147214E+03  0.88274113597E+03  0.00000000000E+00 0.  1.
         11    1    5    5    0    0 -0.84713222001E+02  0.16976056480E+03 -0.43344981873E+03  0.47315296120E+03  0.00000000000E+00 0.  1.
        -11    1    5    5    0    0 -0.91230259464E+02  0.46188310371E+03 -0.11169982936E+04  0.12121650670E+04  0.00000000000E+00 0. -1.
          4    1    6    6  503    0  0.51468811460E+02  0.31882516253E+03 -0.42857839578E+02  0.32578415742E+03  0.00000000000E+00 0. -1.
         -4    1    6    6    0  503  0.54062765706E+02  0.18684445773E+03 -0.97661786080E+02  0.21764985293E+03  0.00000000000E+00 0.  1.
<mgrwt>
<rscale>  0 0.26432396E+04</rscale>
<asrwt>0</asrwt>
<pdfrwt beam="1">  1        2 0.46193434E+00 0.26432396E+04</pdfrwt>
<pdfrwt beam="2">  1       -1 0.89496514E-01 0.26432396E+04</pdfrwt>
<totfact> 0.21255488E+00</totfact>
</mgrwt>
</event>
<event>
12    6  0.1528609E-007  0.1763991E+04  0.7818608E-02  0.8725687E-01
          2   -1    0    0  501    0  0.00000000000E+00  0.00000000000E+00  0.12015193909E+04  0.12015193909E+04  0.00000000000E+00 0. -1.
         -1   -1    0    0    0  501 -0.00000000000E+00 -0.00000000000E+00 -0.64744339534E+03  0.64744339534E+03  0.00000000000E+00 0.  1.
         24    2    1    2    0    0 -0.35805648782E+03  0.50976652234E+02  0.77015614869E+03  0.85461955533E+03  0.80193662216E+02 0.  0.
        254    2    1    2    0    0  0.35805648782E+03 -0.50976652234E+02 -0.21608015311E+03  0.99434323092E+03  0.90068016563E+03 0.  0.
         23    2    4    4    0    0  0.26837528751E+03 -0.55439203730E+01  0.32837651136E+03  0.43388583816E+03  0.91486377897E+02 0.  0.
         23    2    4    4    0    0  0.89681200305E+02 -0.45432731861E+02 -0.54445666447E+03  0.56045739276E+03  0.87020565357E+02 0.  0.
          2    1    3    3  502    0 -0.31001861154E+03  0.50828578990E+02  0.71794678606E+03  0.78367255378E+03  0.00000000000E+00 0. -1.
         -1    1    3    3    0  502 -0.48037876278E+02  0.14807324465E+00  0.52209362628E+02  0.70947001551E+02  0.00000000000E+00 0.  1.
         11    1    5    5    0    0  0.21580105509E+03  0.11455711899E+02  0.20138069404E+03  0.29539044102E+03  0.00000000000E+00 0. -1.
        -11    1    5    5    0    0  0.52574232421E+02 -0.16999632272E+02  0.12699581732E+03  0.13849539714E+03  0.00000000000E+00 0.  1.
          1    1    6    6  503    0  0.41151246304E+02 -0.48576910737E+02 -0.44731152025E+03  0.45181936377E+03  0.00000000000E+00 0. -1.
         -1    1    6    6    0  503  0.48529954001E+02  0.31441788756E+01 -0.97145144220E+02  0.10863802898E+03  0.00000000000E+00 0.  1.
<mgrwt>
<rscale>  0 0.17639907E+04</rscale>
<asrwt>0</asrwt>
<pdfrwt beam="1">  1        2 0.18484914E+00 0.17639907E+04</pdfrwt>
<pdfrwt beam="2">  1       -1 0.99606677E-01 0.17639907E+04</pdfrwt>
<totfact> 0.19627050E+01</totfact>
</mgrwt>
</event>
<event>
12    6  0.1510140E-007  0.1148556E+04  0.7818608E-02  0.9159117E-01
         -1   -1    0    0    0  501 -0.00000000000E+00  0.00000000000E+00  0.10366904702E+03  0.10366904702E+03  0.00000000000E+00 0.  1.
          2   -1    0    0  501    0  0.00000000000E+00 -0.00000000000E+00 -0.31812315081E+04  0.31812315081E+04  0.00000000000E+00 0. -1.
         24    2    1    2    0    0 -0.40593315224E+02 -0.62631465131E+02 -0.84204319083E+03  0.84910529550E+03  0.79828252900E+02 0.  0.
        254    2    1    2    0    0  0.40593315224E+02  0.62631465131E+02 -0.22355192702E+04  0.24357952596E+04  0.96435554723E+03 0.  0.
         23    2    4    4    0    0 -0.33151223725E+03  0.29116041090E+03 -0.66496768341E+03  0.80335084581E+03  0.92281163595E+02 0.  0.
         23    2    4    4    0    0  0.37210555248E+03 -0.22852894577E+03 -0.15705515868E+04  0.16324444138E+04  0.86916373789E+02 0.  0.
          4    1    3    3  502    0  0.20673646381E+02 -0.19627965226E+02 -0.12727906479E+03  0.13043242314E+03  0.00000000000E+00 0. -1.
         -3    1    3    3    0  502 -0.61266961605E+02 -0.43003499905E+02 -0.71476412604E+03  0.71867287236E+03  0.00000000000E+00 0.  1.
         11    1    5    5    0    0  0.13809557362E+01 -0.48309121886E+01 -0.10894386944E+02  0.11997183762E+02  0.00000000000E+00 0.  1.
        -11    1    5    5    0    0 -0.33289319299E+03  0.29599132309E+03 -0.65407329647E+03  0.79135366205E+03  0.00000000000E+00 0. -1.
          4    1    6    6  503    0  0.42507564391E+02 -0.47022043031E+02 -0.33206845489E+03  0.33806423102E+03  0.00000000000E+00 0.  1.
         -4    1    6    6    0  503  0.32959798809E+03 -0.18150690274E+03 -0.12384831319E+04  0.12943801828E+04  0.00000000000E+00 0. -1.
<mgrwt>
<rscale>  0 0.11485560E+04</rscale>
<asrwt>0</asrwt>
<pdfrwt beam="1">  1        2 0.48942013E+00 0.11485560E+04</pdfrwt>
<pdfrwt beam="2">  1       -1 0.15949088E-01 0.11485560E+04</pdfrwt>
<totfact> 0.45695732E+01</totfact>
</mgrwt>
</event>
<event>
12    6  0.1510140E-007  0.1629422E+04  0.7818608E-02  0.8802674E-01
          2   -1    0    0  501    0  0.00000000000E+00  0.00000000000E+00  0.94550395958E+03  0.94550395958E+03  0.00000000000E+00 0. -1.
         -1   -1    0    0    0  501 -0.00000000000E+00 -0.00000000000E+00 -0.70201090088E+03  0.70201090088E+03  0.00000000000E+00 0.  1.
         24    2    1    2    0    0  0.97088797642E+02  0.27054217237E+03  0.57231077260E+03  0.64540799730E+03  0.79953491999E+02 0.  0.
        254    2    1    2    0    0 -0.97088797642E+02 -0.27054217237E+03 -0.32881771390E+03  0.10021068632E+04  0.90193002754E+03 0.  0.
         23    2    4    4    0    0  0.34059179176E+03  0.98226881492E+02 -0.15229411086E+03  0.39629633650E+03  0.90586981695E+02 0.  0.
         23    2    4    4    0    0 -0.43768058940E+03 -0.36876905386E+03 -0.17652360304E+03  0.60581052667E+03  0.91054370405E+02 0.  0.
          2    1    3    3  502    0  0.51032294213E+02  0.60585538003E+02  0.20576153449E+03  0.22048290533E+03  0.00000000000E+00 0. -1.
         -1    1    3    3    0  502  0.46056503428E+02  0.20995663437E+03  0.36654923811E+03  0.42492509196E+03  0.00000000000E+00 0.  1.
         11    1    5    5    0    0  0.29115376174E+03  0.74266431558E+02 -0.16064973558E+03  0.34072621469E+03  0.00000000000E+00 0. -1.
        -11    1    5    5    0    0  0.49438030022E+02  0.23960449933E+02  0.83556247183E+01  0.55570121810E+02  0.00000000000E+00 0.  1.
          4    1    6    6  503    0 -0.31251018817E+03 -0.23970037347E+03 -0.80551561606E+02  0.40200427961E+03  0.00000000000E+00 0. -1.
         -4    1    6    6    0  503 -0.12517040124E+03 -0.12906868039E+03 -0.95972041430E+02  0.20380624706E+03  0.00000000000E+00 0.  1.
<mgrwt>
<rscale>  0 0.16294221E+04</rscale>
<asrwt>0</asrwt>
<pdfrwt beam="1">  1        2 0.14546215E+00 0.16294221E+04</pdfrwt>
<pdfrwt beam="2">  1       -1 0.10800168E+00 0.16294221E+04</pdfrwt>
<totfact> 0.23790350E+01</totfact>
</mgrwt>
</event>
<event>
12    6  0.1510140E-007  0.1787149E+04  0.7818608E-02  0.8713164E-01
         -1   -1    0    0    0  501 -0.00000000000E+00  0.00000000000E+00  0.39053955933E+03  0.39053955933E+03  0.00000000000E+00 0.  1.
          2   -1    0    0  501    0  0.00000000000E+00 -0.00000000000E+00 -0.20445437129E+04  0.20445437129E+04  0.00000000000E+00 0. -1.
         24    2    1    2    0    0 -0.44723191293E+03 -0.27886831293E+03 -0.12083432027E+04  0.13203950529E+04  0.74604827354E+02 0.  0.
        254    2    1    2    0    0  0.44723191293E+03  0.27886831293E+03 -0.44566095089E+03  0.11146882194E+04  0.87528979393E+03 0.  0.
         23    2    4    4    0    0  0.55571877341E+03  0.38452449775E+03 -0.57814100578E+03  0.89428938732E+03  0.93936367934E+02 0.  0.
         23    2    4    4    0    0 -0.10848686048E+03 -0.10565618482E+03  0.13248005489E+03  0.22039883205E+03  0.89955833251E+02 0.  0.
          4    1    3    3  502    0 -0.38628604570E+03 -0.25488291665E+03 -0.11055578735E+04  0.11985159248E+04  0.00000000000E+00 0. -1.
         -3    1    3    3    0  502 -0.60945867235E+02 -0.23985396278E+02 -0.10278532921E+03  0.12187912811E+03  0.00000000000E+00 0.  1.
         11    1    5    5    0    0  0.32696154048E+03  0.18590737094E+03 -0.27684070233E+03  0.46701838720E+03  0.00000000000E+00 0.  1.
        -11    1    5    5    0    0  0.22875723294E+03  0.19861712681E+03 -0.30130030345E+03  0.42727100012E+03  0.00000000000E+00 0. -1.
          4    1    6    6  503    0 -0.91157154542E+02 -0.29753496629E+02  0.54924244272E+02  0.11050597267E+03  0.00000000000E+00 0.  1.
         -4    1    6    6    0  503 -0.17329705942E+02 -0.75902688188E+02  0.77555810622E+02  0.10989285938E+03  0.00000000000E+00 0. -1.
<mgrwt>
<rscale>  0 0.17871488E+04</rscale>
<asrwt>0</asrwt>
<pdfrwt beam="1">  1        2 0.31454519E+00 0.17871488E+04</pdfrwt>
<pdfrwt beam="2">  1       -1 0.60083009E-01 0.17871488E+04</pdfrwt>
<totfact> 0.19076548E+01</totfact>
</mgrwt>
</event>
<event>
12    6  0.1510140E-007  0.3411517E+04  0.7818608E-02  0.8135085E-01
         -1   -1    0    0    0  501 -0.00000000000E+00  0.00000000000E+00  0.88862768156E+03  0.88862768156E+03  0.00000000000E+00 0.  1.
          2   -1    0    0  501    0  0.00000000000E+00 -0.00000000000E+00 -0.32742759416E+04  0.32742759416E+04  0.00000000000E+00 0. -1.
         24    2    1    2    0    0 -0.14415731059E+04 -0.66529312765E+03 -0.11118137811E+04  0.19400194397E+04  0.82447421876E+02 0.  0.
        254    2    1    2    0    0  0.14415731059E+04  0.66529312765E+03 -0.12738344790E+04  0.22228841835E+04  0.89320313920E+03 0.  0.
         23    2    4    4    0    0  0.79138205061E+03  0.71488031627E+03 -0.11150381321E+04  0.15456585881E+04  0.91711604483E+02 0.  0.
         23    2    4    4    0    0  0.65019105530E+03 -0.49587188627E+02 -0.15879634693E+03  0.67722559537E+03  0.90614179686E+02 0.  0.
          4    1    3    3  502    0 -0.11772703530E+04 -0.57745863760E+03 -0.92238407620E+03  0.16031894293E+04  0.00000000000E+00 0. -1.
         -1    1    3    3    0  502 -0.26430275295E+03 -0.87834490045E+02 -0.18942970490E+03  0.33683001047E+03  0.00000000000E+00 0.  1.
         11    1    5    5    0    0  0.33008655415E+03  0.23959826247E+03 -0.43896949239E+03  0.59921504976E+03  0.00000000000E+00 0. -1.
        -11    1    5    5    0    0  0.46129549646E+03  0.47528205380E+03 -0.67606863967E+03  0.94644353834E+03  0.00000000000E+00 0.  1.
          4    1    6    6  503    0  0.52941604101E+02  0.20753701051E+02 -0.17114377101E+02  0.59383764243E+02  0.00000000000E+00 0. -1.
         -4    1    6    6    0  503  0.59724945119E+03 -0.70340889677E+02 -0.14168196983E+03  0.61784183112E+03  0.00000000000E+00 0.  1.
<mgrwt>
<rscale>  0 0.34115171E+04</rscale>
<asrwt>0</asrwt>
<pdfrwt beam="1">  1        2 0.50373476E+00 0.34115171E+04</pdfrwt>
<pdfrwt beam="2">  1       -1 0.13671195E+00 0.34115171E+04</pdfrwt>
<totfact> 0.48500010E-01</totfact>
</mgrwt>
</event>
<event>
12    6  0.1510140E-007  0.2107930E+04  0.7818608E-02  0.8557758E-01
          2   -1    0    0  501    0  0.00000000000E+00  0.00000000000E+00  0.10065083800E+04  0.10065083800E+04  0.00000000000E+00 0. -1.
         -1   -1    0    0    0  501 -0.00000000000E+00 -0.00000000000E+00 -0.11036595030E+04  0.11036595030E+04  0.00000000000E+00 0.  1.
         24    2    1    2    0    0  0.41448544157E+03 -0.34944169211E+03 -0.71225919597E+03  0.89930899495E+03  0.86809150977E+02 0.  0.
        254    2    1    2    0    0 -0.41448544157E+03  0.34944169211E+03  0.61510807297E+03  0.12108588881E+04  0.89101830958E+03 0.  0.
         23    2    4    4    0    0 -0.44905878574E+03  0.38504932227E+03  0.11463531488E+02  0.59867921736E+03  0.91480156931E+02 0.  0.
         23    2    4    4    0    0  0.34573344170E+02 -0.35607630153E+02  0.60364454148E+03  0.61217967075E+03  0.88960650675E+02 0.  0.
          2    1    3    3  502    0  0.11379992443E+02  0.22813421050E+01 -0.53354943760E+01  0.12774045954E+02  0.00000000000E+00 0. -1.
         -1    1    3    3    0  502  0.40310544913E+03 -0.35172303422E+03 -0.70692370160E+03  0.88653494900E+03  0.00000000000E+00 0.  1.
         11    1    5    5    0    0 -0.23785118004E+03  0.24605291240E+03 -0.25411731970E+02  0.34316319102E+03  0.00000000000E+00 0.  1.
        -11    1    5    5    0    0 -0.21120760570E+03  0.13899640986E+03  0.36875263458E+02  0.25551602633E+03  0.00000000000E+00 0. -1.
          1    1    6    6  503    0  0.27580627735E+01  0.26929681330E+02  0.97254404218E+02  0.10095164083E+03  0.00000000000E+00 0. -1.
         -1    1    6    6    0  503  0.31815281397E+02 -0.62537311483E+02  0.50639013726E+03  0.51122802992E+03  0.00000000000E+00 0.  1.
<mgrwt>
<rscale>  0 0.21079303E+04</rscale>
<asrwt>0</asrwt>
<pdfrwt beam="1">  1        2 0.15484744E+00 0.21079303E+04</pdfrwt>
<pdfrwt beam="2">  1       -1 0.16979377E+00 0.21079303E+04</pdfrwt>
<totfact> 0.64706491E+00</totfact>
</mgrwt>
</event>
<event>
12    6  0.1510140E-007  0.1212673E+04  0.7818608E-02  0.9101835E-01
          2   -1    0    0  501    0  0.00000000000E+00  0.00000000000E+00  0.24487904731E+04  0.24487904731E+04  0.00000000000E+00 0. -1.
         -1   -1    0    0    0  501 -0.00000000000E+00 -0.00000000000E+00 -0.15013295964E+03  0.15013295964E+03  0.00000000000E+00 0.  1.
         24    2    1    2    0    0 -0.23749550147E+03  0.80895376259E+02  0.31779694085E+03  0.41927010163E+03  0.10883173886E+03 0.  0.
        254    2    1    2    0    0  0.23749550147E+03 -0.80895376259E+02  0.19808605726E+04  0.21796533311E+04  0.87414636107E+03 0.  0.
         23    2    4    4    0    0  0.17609137887E+03  0.38100316377E+03  0.82621452720E+03  0.93120405214E+03  0.91317891207E+02 0.  0.
         23    2    4    4    0    0  0.61404122599E+02 -0.46189854003E+03  0.11546460454E+04  0.12484492790E+04  0.91089979811E+02 0.  0.
          2    1    3    3  502    0 -0.15248606310E+03  0.19508896249E+01  0.21914657656E+03  0.26698506968E+03  0.00000000000E+00 0. -1.
         -1    1    3    3    0  502 -0.85009438368E+02  0.78944486634E+02  0.98650364290E+02  0.15228503195E+03  0.00000000000E+00 0.  1.
         11    1    5    5    0    0  0.98846245167E+02  0.17005882038E+03  0.29636925951E+03  0.35570397883E+03  0.00000000000E+00 0. -1.
        -11    1    5    5    0    0  0.77245133702E+02  0.21094434339E+03  0.52984526769E+03  0.57550007331E+03  0.00000000000E+00 0.  1.
          1    1    6    6  503    0 -0.19385182086E+02 -0.36765711674E+02  0.11800744316E+03  0.12511298686E+03  0.00000000000E+00 0. -1.
         -1    1    6    6    0  503  0.80789304685E+02 -0.42513282835E+03  0.10366386022E+04  0.11233362921E+04  0.00000000000E+00 0.  1.
<mgrwt>
<rscale>  0 0.12126733E+04</rscale>
<asrwt>0</asrwt>
<pdfrwt beam="1">  1        2 0.37673697E+00 0.12126733E+04</pdfrwt>
<pdfrwt beam="2">  1       -1 0.23097380E-01 0.12126733E+04</pdfrwt>
<totfact> 0.67492806E+01</totfact>
</mgrwt>
</event>
<event>
12    6  0.1510140E-007  0.1468003E+04  0.7818608E-02  0.8906014E-01
          2   -1    0    0  501    0  0.00000000000E+00  0.00000000000E+00  0.47918156758E+03  0.47918156758E+03  0.00000000000E+00 0. -1.
         -1   -1    0    0    0  501 -0.00000000000E+00 -0.00000000000E+00 -0.11243298050E+04  0.11243298050E+04  0.00000000000E+00 0.  1.
         24    2    1    2    0    0 -0.25126875381E+03 -0.37443191144E+03 -0.38115713582E+03  0.59580191077E+03  0.79774129584E+02 0.  0.
        254    2    1    2    0    0  0.25126875381E+03  0.37443191144E+03 -0.26399110161E+03  0.10077094618E+04  0.86165643662E+03 0.  0.
         23    2    4    4    0    0  0.32665694347E+03 -0.13913149433E+03 -0.30724054326E+03  0.47842851034E+03  0.91840931209E+02 0.  0.
         23    2    4    4    0    0 -0.75388189661E+02  0.51356340577E+03  0.43249441655E+02  0.52928095148E+03  0.94005640853E+02 0.  0.
          4    1    3    3  502    0 -0.41614696146E+02 -0.74123132641E+02 -0.35252182487E+02  0.92025746930E+02  0.00000000000E+00 0. -1.
         -3    1    3    3    0  502 -0.20965405767E+03 -0.30030877880E+03 -0.34590495333E+03  0.50377616384E+03  0.00000000000E+00 0.  1.
         11    1    5    5    0    0  0.36910755435E+02 -0.52572658146E+02 -0.49574189726E+02  0.81141164265E+02  0.00000000000E+00 0.  1.
        -11    1    5    5    0    0  0.28974618804E+03 -0.86558836185E+02 -0.25766635354E+03  0.39728734607E+03  0.00000000000E+00 0. -1.
          4    1    6    6  503    0 -0.60491706589E+02  0.14455566003E+03  0.31188209910E+02  0.15977574863E+03  0.00000000000E+00 0.  1.
         -4    1    6    6    0  503 -0.14896483073E+02  0.36900774574E+03  0.12061231746E+02  0.36950520285E+03  0.00000000000E+00 0. -1.
<mgrwt>
<rscale>  0 0.14680029E+04</rscale>
<asrwt>0</asrwt>
<pdfrwt beam="1">  1        2 0.73720241E-01 0.14680029E+04</pdfrwt>
<pdfrwt beam="2">  1       -1 0.17297382E+00 0.14680029E+04</pdfrwt>
<totfact> 0.16765105E+01</totfact>
</mgrwt>
</event>
<event>
12    6  0.1510140E-007  0.1358378E+04  0.7818608E-02  0.8984510E-01
          2   -1    0    0  501    0  0.00000000000E+00  0.00000000000E+00  0.21322874256E+04  0.21322874256E+04  0.00000000000E+00 0. -1.
         -1   -1    0    0    0  501 -0.00000000000E+00 -0.00000000000E+00 -0.21633936489E+03  0.21633936489E+03  0.00000000000E+00 0.  1.
         24    2    1    2    0    0 -0.26700894478E+03  0.22076410330E+03  0.78276829258E+03  0.85925460777E+03  0.74576908016E+02 0.  0.
        254    2    1    2    0    0  0.26700894478E+03 -0.22076410330E+03  0.11331797682E+04  0.14893721828E+04  0.90227631348E+03 0.  0.
         23    2    4    4    0    0  0.39222481863E+03 -0.49634292987E+03  0.64457281994E+03  0.90751469530E+03  0.88950489567E+02 0.  0.
         23    2    4    4    0    0 -0.12521587385E+03  0.27557882658E+03  0.48860694823E+03  0.58185748745E+03  0.90546568806E+02 0.  0.
          2    1    3    3  502    0 -0.61611210082E+02  0.64932163471E+02  0.28428757461E+03  0.29804622483E+03  0.00000000000E+00 0. -1.
         -1    1    3    3    0  502 -0.20539773470E+03  0.15583193983E+03  0.49848071797E+03  0.56120838294E+03  0.00000000000E+00 0.  1.
         11    1    5    5    0    0  0.16846679498E+03 -0.17421482660E+03  0.29809982897E+03  0.38418143481E+03  0.00000000000E+00 0. -1.
        -11    1    5    5    0    0  0.22375802365E+03 -0.32212810327E+03  0.34647299097E+03  0.52333326049E+03  0.00000000000E+00 0.  1.
          4    1    6    6  503    0 -0.11291951851E+03  0.15209553869E+03  0.25926896628E+03  0.32109853227E+03  0.00000000000E+00 0. -1.
         -4    1    6    6    0  503 -0.12296355337E+02  0.12348328788E+03  0.22933798194E+03  0.26075895517E+03  0.00000000000E+00 0.  1.
<mgrwt>
<rscale>  0 0.13583780E+04</rscale>
<asrwt>0</asrwt>
<pdfrwt beam="1">  1        2 0.32804420E+00 0.13583780E+04</pdfrwt>
<pdfrwt beam="2">  1       -1 0.33282981E-01 0.13583780E+04</pdfrwt>
<totfact> 0.53285178E+01</totfact>
</mgrwt>
</event>
<event>
12    6  0.1510140E-007  0.3453403E+04  0.7818608E-02  0.8124922E-01
          2   -1    0    0  501    0  0.00000000000E+00  0.00000000000E+00  0.25097564874E+04  0.25097564874E+04  0.00000000000E+00 0. -1.
         -1   -1    0    0    0  501 -0.00000000000E+00 -0.00000000000E+00 -0.11879630520E+04  0.11879630520E+04  0.00000000000E+00 0.  1.
         24    2    1    2    0    0 -0.80777108150E+03 -0.13857614198E+04  0.69106093679E+03  0.17482284615E+04  0.76868084078E+02 0.  0.
        254    2    1    2    0    0  0.80777108150E+03  0.13857614198E+04  0.63073249863E+03  0.19494910779E+04  0.91096824610E+03 0.  0.
         23    2    4    4    0    0  0.33044072055E+02  0.94184116016E+03  0.28760125600E+03  0.98953375658E+03  0.91136662735E+02 0.  0.
         23    2    4    4    0    0  0.77472700945E+03  0.44392025964E+03  0.34313124263E+03  0.95995732135E+03  0.80696177501E+02 0.  0.
          2    1    3    3  502    0 -0.51594191521E+02 -0.70047233999E+02  0.21910889374E+02  0.89714339226E+02  0.00000000000E+00 0. -1.
         -1    1    3    3    0  502 -0.75617688998E+03 -0.13157141858E+04  0.66915004742E+03  0.16585141222E+04  0.00000000000E+00 0.  1.
         11    1    5    5    0    0 -0.18083663190E+02  0.60627315189E+03  0.16441704287E+03  0.62843226967E+03  0.00000000000E+00 0. -1.
        -11    1    5    5    0    0  0.51127735245E+02  0.33556800827E+03  0.12318421313E+03  0.36110148691E+03  0.00000000000E+00 0.  1.
          1    1    6    6  503    0  0.48736442182E+02  0.52724516256E+02  0.24522761984E+02  0.75871478609E+02  0.00000000000E+00 0. -1.
         -1    1    6    6    0  503  0.72599056726E+03  0.39119574339E+03  0.31860848065E+03  0.88408584274E+03  0.00000000000E+00 0.  1.
<mgrwt>
<rscale>  0 0.34534029E+04</rscale>
<asrwt>0</asrwt>
<pdfrwt beam="1">  1        2 0.38611638E+00 0.34534029E+04</pdfrwt>
<pdfrwt beam="2">  1       -1 0.18276355E+00 0.34534029E+04</pdfrwt>
<totfact> 0.64029364E-01</totfact>
</mgrwt>
</event>
<event>
12    6  0.1510140E-007  0.1611665E+04  0.7818608E-02  0.8813414E-01
         -1   -1    0    0    0  501 -0.00000000000E+00  0.00000000000E+00  0.26719817134E+03  0.26719817134E+03  0.00000000000E+00 0.  1.
          2   -1    0    0  501    0  0.00000000000E+00 -0.00000000000E+00 -0.24302777258E+04  0.24302777258E+04  0.00000000000E+00 0. -1.
         24    2    1    2    0    0  0.40285533297E+03  0.24344850850E+03 -0.12508400410E+04  0.13388404400E+04  0.79582157677E+02 0.  0.
        254    2    1    2    0    0 -0.40285533297E+03 -0.24344850850E+03 -0.91223951339E+03  0.13586354572E+04  0.89002796589E+03 0.  0.
         23    2    4    4    0    0  0.24500594745E+03 -0.92161574150E+01 -0.45978133510E+03  0.52932627872E+03  0.93137432808E+02 0.  0.
         23    2    4    4    0    0 -0.64786128041E+03 -0.23423235108E+03 -0.45245817829E+03  0.82930917844E+03  0.91903631003E+02 0.  0.
          2    1    3    3  502    0  0.12176984627E+03  0.96750522690E+02 -0.50493473006E+03  0.52834424453E+03  0.00000000000E+00 0. -1.
         -1    1    3    3    0  502  0.28108548669E+03  0.14669798581E+03 -0.74590531098E+03  0.81049619543E+03  0.00000000000E+00 0.  1.
         11    1    5    5    0    0  0.14462413825E+03 -0.49744075856E+02 -0.24526296665E+03  0.28904071903E+03  0.00000000000E+00 0.  1.
        -11    1    5    5    0    0  0.10038180919E+03  0.40527918441E+02 -0.21451836845E+03  0.24028555968E+03  0.00000000000E+00 0. -1.
          3    1    6    6  503    0 -0.65202347032E+02  0.40938656798E+01 -0.37424519325E+02  0.75290772618E+02  0.00000000000E+00 0. -1.
         -3    1    6    6    0  503 -0.58265893338E+03 -0.23832621676E+03 -0.41503365896E+03  0.75401840582E+03  0.00000000000E+00 0.  1.
<mgrwt>
<rscale>  0 0.16116647E+04</rscale>
<asrwt>0</asrwt>
<pdfrwt beam="1">  1        2 0.37388888E+00 0.16116647E+04</pdfrwt>
<pdfrwt beam="2">  1       -1 0.41107411E-01 0.16116647E+04</pdfrwt>
<totfact> 0.24181504E+01</totfact>
</mgrwt>
</event>
<event>
12    6  0.1510140E-007  0.1872299E+04  0.7818608E-02  0.8668769E-01
         -1   -1    0    0    0  501 -0.00000000000E+00  0.00000000000E+00  0.92656014338E+03  0.92656014338E+03  0.00000000000E+00 0.  1.
          2   -1    0    0  501    0  0.00000000000E+00 -0.00000000000E+00 -0.94583797534E+03  0.94583797534E+03  0.00000000000E+00 0. -1.
         24    2    1    2    0    0 -0.62952528306E+01  0.41421919678E+03  0.57953132911E+03  0.71699354633E+03  0.81277369990E+02 0.  0.
        254    2    1    2    0    0  0.62952528306E+01 -0.41421919678E+03 -0.59880916107E+03  0.11554045724E+04  0.89708981789E+03 0.  0.
         23    2    4    4    0    0  0.32439868493E+03 -0.34115319231E+03 -0.65790146964E+03  0.81385796897E+03  0.88940668344E+02 0.  0.
         23    2    4    4    0    0 -0.31810343210E+03 -0.73066004462E+02  0.59092308574E+02  0.34154660343E+03  0.81447816806E+02 0.  0.
          4    1    3    3  502    0  0.79803009035E+01  0.11502700017E+03  0.22535192771E+03  0.25313709190E+03  0.00000000000E+00 0. -1.
         -3    1    3    3    0  502 -0.14275553734E+02  0.29919219661E+03  0.35417940140E+03  0.46385645443E+03  0.00000000000E+00 0.  1.
         11    1    5    5    0    0  0.30514774325E+03 -0.31476372862E+03 -0.64231945109E+03  0.77766678424E+03  0.00000000000E+00 0. -1.
        -11    1    5    5    0    0  0.19250941680E+02 -0.26389463698E+02 -0.15582018553E+02  0.36191184728E+02  0.00000000000E+00 0.  1.
          2    1    6    6  503    0 -0.14315262210E+03 -0.74534361596E+02  0.25569319806E+02  0.16340695943E+03  0.00000000000E+00 0. -1.
         -2    1    6    6    0  503 -0.17495081000E+03  0.14683571336E+01  0.33522988768E+02  0.17813964401E+03  0.00000000000E+00 0.  1.
<mgrwt>
<rscale>  0 0.18722989E+04</rscale>
<asrwt>0</asrwt>
<pdfrwt beam="1">  1        2 0.14551354E+00 0.18722989E+04</pdfrwt>
<pdfrwt beam="2">  1       -1 0.14254771E+00 0.18722989E+04</pdfrwt>
<totfact> 0.11697918E+01</totfact>
</mgrwt>
</event>
<event>
12    6  0.1510140E-007  0.1492054E+04  0.7818608E-02  0.8889754E-01
          2   -1    0    0  501    0  0.00000000000E+00  0.00000000000E+00  0.50013212435E+04  0.50013212435E+04  0.00000000000E+00 0. -1.
         -1   -1    0    0    0  501 -0.00000000000E+00 -0.00000000000E+00 -0.11128179233E+03  0.11128179233E+03  0.00000000000E+00 0.  1.
         24    2    1    2    0    0 -0.35331280793E+03 -0.37536585276E+00  0.25803654058E+04  0.26057220026E+04  0.81678924516E+02 0.  0.
        254    2    1    2    0    0  0.35331280793E+03  0.37536585276E+00  0.23096740454E+04  0.25068810331E+04  0.90831065025E+03 0.  0.
         23    2    4    4    0    0  0.35053801622E+02  0.86545839955E+02 -0.36906405822E+02  0.13566835037E+03  0.91240709554E+02 0.  0.
         23    2    4    4    0    0  0.31825900631E+03 -0.86170474102E+02  0.23465804512E+04  0.23712126828E+04  0.86577291192E+02 0.  0.
          2    1    3    3  502    0 -0.28953882758E+03  0.30884440444E+02  0.20223316242E+04  0.20431866727E+04  0.00000000000E+00 0. -1.
         -1    1    3    3    0  502 -0.63773980350E+02 -0.31259806296E+02  0.55803378157E+03  0.56253532994E+03  0.00000000000E+00 0.  1.
         11    1    5    5    0    0  0.57014677590E+00  0.17612150181E+02  0.29213312953E+02  0.34116426469E+02  0.00000000000E+00 0. -1.
        -11    1    5    5    0    0  0.34483654846E+02  0.68933689773E+02 -0.66119718774E+02  0.10155192390E+03  0.00000000000E+00 0.  1.
          4    1    6    6  503    0  0.11527706551E+02 -0.36969484944E+01  0.22700432312E+02  0.25726738496E+02  0.00000000000E+00 0. -1.
         -4    1    6    6    0  503  0.30673129976E+03 -0.82473525607E+02  0.23238800189E+04  0.23454859443E+04  0.00000000000E+00 0.  1.
<mgrwt>
<rscale>  0 0.14920536E+04</rscale>
<asrwt>0</asrwt>
<pdfrwt beam="1">  1        2 0.76943387E+00 0.14920536E+04</pdfrwt>
<pdfrwt beam="2">  1       -1 0.17120280E-01 0.14920536E+04</pdfrwt>
<totfact> 0.10510515E+00</totfact>
</mgrwt>
</event>
<event>
12    6  0.1510140E-007  0.2223780E+04  0.7818608E-02  0.8508595E-01
          2   -1    0    0  501    0  0.00000000000E+00  0.00000000000E+00  0.15665335274E+04  0.15665335274E+04  0.00000000000E+00 0. -1.
         -1   -1    0    0    0  501 -0.00000000000E+00 -0.00000000000E+00 -0.78919435227E+03  0.78919435227E+03  0.00000000000E+00 0.  1.
         24    2    1    2    0    0  0.68850176121E+03 -0.38010437005E+03  0.86422613911E+03  0.11718028201E+04  0.87869348046E+02 0.  0.
        254    2    1    2    0    0 -0.68850176121E+03  0.38010437005E+03 -0.86886964031E+02  0.11839250595E+04  0.88069018091E+03 0.  0.
         23    2    4    4    0    0 -0.56953403301E+03  0.59601883928E+03  0.13284566531E+03  0.84060807311E+03  0.96780629530E+02 0.  0.
         23    2    4    4    0    0 -0.11896772819E+03 -0.21591446923E+03 -0.21973262934E+03  0.34331698642E+03  0.93870902812E+02 0.  0.
          2    1    3    3  502    0  0.52374915959E+03 -0.27188011840E+03  0.59376691764E+03  0.83713268569E+03  0.00000000000E+00 0. -1.
         -1    1    3    3    0  502  0.16475260162E+03 -0.10822425165E+03  0.27045922147E+03  0.33467013440E+03  0.00000000000E+00 0.  1.
         11    1    5    5    0    0 -0.43886936486E+03  0.39599415297E+03  0.92918582585E+02  0.59837409001E+03  0.00000000000E+00 0. -1.
        -11    1    5    5    0    0 -0.13066466815E+03  0.20002468631E+03  0.39927082724E+02  0.24223398311E+03  0.00000000000E+00 0.  1.
          1    1    6    6  503    0 -0.63267972979E+02 -0.19373658971E+03 -0.16760995867E+03  0.26387459303E+03  0.00000000000E+00 0. -1.
         -1    1    6    6    0  503 -0.55699755215E+02 -0.22177879516E+02 -0.52122670670E+02  0.79442393398E+02  0.00000000000E+00 0.  1.
<mgrwt>
<rscale>  0 0.22237800E+04</rscale>
<asrwt>0</asrwt>
<pdfrwt beam="1">  1        2 0.24100516E+00 0.22237800E+04</pdfrwt>
<pdfrwt beam="2">  1       -1 0.12141452E+00 0.22237800E+04</pdfrwt>
<totfact> 0.72779712E+00</totfact>
</mgrwt>
</event>
<event>
12    6  0.1510140E-007  0.3273616E+04  0.7818608E-02  0.8169642E-01
          2   -1    0    0  501    0  0.00000000000E+00  0.00000000000E+00  0.27647488893E+04  0.27647488893E+04  0.00000000000E+00 0. -1.
         -1   -1    0    0    0  501 -0.00000000000E+00 -0.00000000000E+00 -0.96903543399E+03  0.96903543399E+03  0.00000000000E+00 0.  1.
         24    2    1    2    0    0 -0.42780838679E+03  0.14129018063E+04  0.12359145613E+04  0.19269366473E+04  0.79300125748E+02 0.  0.
        254    2    1    2    0    0  0.42780838679E+03 -0.14129018063E+04  0.55979889401E+03  0.18068476760E+04  0.87864224381E+03 0.  0.
         23    2    4    4    0    0  0.36561506578E+03 -0.81360535912E+03 -0.10753379172E+03  0.90305050745E+03  0.91151774118E+02 0.  0.
         23    2    4    4    0    0  0.62193321011E+02 -0.59929644713E+03  0.66733268573E+03  0.90379716855E+03  0.92152958262E+02 0.  0.
          4    1    3    3  502    0 -0.12176786907E+03  0.32582184356E+03  0.32460592462E+03  0.47576916038E+03  0.00000000000E+00 0. -1.
         -3    1    3    3    0  502 -0.30604051773E+03  0.10870799627E+04  0.91130863672E+03  0.14511674869E+04  0.00000000000E+00 0.  1.
         11    1    5    5    0    0  0.26055993138E+03 -0.60882039807E+03 -0.41161421380E+02  0.66351188200E+03  0.00000000000E+00 0. -1.
        -11    1    5    5    0    0  0.10505513441E+03 -0.20478496106E+03 -0.66372370340E+02  0.23953862545E+03  0.00000000000E+00 0.  1.
          1    1    6    6  503    0 -0.33468625066E+01 -0.35608401693E+03  0.42213158319E+03  0.55226995403E+03  0.00000000000E+00 0. -1.
         -1    1    6    6    0  503  0.65540183518E+02 -0.24321243020E+03  0.24520110253E+03  0.35152721452E+03  0.00000000000E+00 0.  1.
<mgrwt>
<rscale>  0 0.32736155E+04</rscale>
<asrwt>0</asrwt>
<pdfrwt beam="1">  1        2 0.42534598E+00 0.32736155E+04</pdfrwt>
<pdfrwt beam="2">  1       -1 0.14908238E+00 0.32736155E+04</pdfrwt>
<totfact> 0.81878648E-01</totfact>
</mgrwt>
</event>
<event>
12    6  0.1510140E-007  0.1545041E+04  0.7818608E-02  0.8855041E-01
         -1   -1    0    0    0  501 -0.00000000000E+00  0.00000000000E+00  0.77182062295E+03  0.77182062295E+03  0.00000000000E+00 0.  1.
          2   -1    0    0  501    0  0.00000000000E+00 -0.00000000000E+00 -0.77322138369E+03  0.77322138369E+03  0.00000000000E+00 0. -1.
         24    2    1    2    0    0 -0.28301125653E+03  0.21967558136E+03  0.35338011516E+03  0.51004748413E+03  0.83175704988E+02 0.  0.
        254    2    1    2    0    0  0.28301125653E+03 -0.21967558136E+03 -0.35478087591E+03  0.10349945225E+04  0.90387579863E+03 0.  0.
         23    2    4    4    0    0  0.19045067230E+03 -0.11198276641E+02  0.28219810274E+03  0.35231314076E+03  0.89955099841E+02 0.  0.
         23    2    4    4    0    0  0.92560584231E+02 -0.20847730472E+03 -0.63697897864E+03  0.68268138175E+03  0.91002205543E+02 0.  0.
          2    1    3    3  502    0 -0.86559142378E+01  0.25315259042E+02  0.52186296342E+02  0.58644664869E+02  0.00000000000E+00 0. -1.
         -1    1    3    3    0  502 -0.27435534229E+03  0.19436032232E+03  0.30119381882E+03  0.45140281926E+03  0.00000000000E+00 0.  1.
         11    1    5    5    0    0  0.27053307418E+02 -0.32717828015E+02  0.87289296168E+02  0.97065745440E+02  0.00000000000E+00 0. -1.
        -11    1    5    5    0    0  0.16339736488E+03  0.21519551374E+02  0.19490880657E+03  0.25524739532E+03  0.00000000000E+00 0.  1.
          3    1    6    6  503    0 -0.87912419206E+01 -0.71685064796E+02 -0.14329093483E+03  0.16046285070E+03  0.00000000000E+00 0. -1.
         -3    1    6    6    0  503  0.10135182615E+03 -0.13679223993E+03 -0.49368804382E+03  0.52221853105E+03  0.00000000000E+00 0.  1.
<mgrwt>
<rscale>  0 0.15450414E+04</rscale>
<asrwt>0</asrwt>
<pdfrwt beam="1">  1        2 0.11895714E+00 0.15450414E+04</pdfrwt>
<pdfrwt beam="2">  1       -1 0.11874163E+00 0.15450414E+04</pdfrwt>
<totfact> 0.25176282E+01</totfact>
</mgrwt>
</event>
