<event>
12    6  0.1542110E-007  0.1562453E+04  0.7818608E-02  0.8843952E-01
          2   -1    0    0  501    0  0.00000000000E+00  0.00000000000E+00  0.18513414896E+04  0.18513414896E+04  0.00000000000E+00 0. -1.
         -1   -1    0    0    0  501 -0.00000000000E+00 -0.00000000000E+00 -0.32966093957E+03  0.32966093957E+03  0.00000000000E+00 0.  1.
         24    2    1    2    0    0 -0.48261624193E+03 -0.18726890925E+03  0.52615913317E+03  0.74241773491E+03  0.79703063623E+02 0.  0.
        254    2    1    2    0    0  0.48261624193E+03  0.18726890925E+03  0.99552141685E+03  0.14385846942E+04  0.90026382230E+03 0.  0.
         23    2    4    4    0    0  0.68690312108E+03  0.10448801537E+03  0.42444053249E+03  0.81930978443E+03  0.91460997865E+02 0.  0.
         23    2    4    4    0    0 -0.20428687915E+03  0.82780893881E+02  0.57108088435E+03  0.61927490981E+03  0.93713563913E+02 0.  0.
          4    1    3    3  502    0 -0.89212594604E+02 -0.34534693007E+02  0.14525374181E+03  0.17392579327E+03  0.00000000000E+00 0. -1.
         -3    1    3    3    0  502 -0.39340364732E+03 -0.15273421625E+03  0.38090539136E+03  0.56849194164E+03  0.00000000000E+00 0.  1.
         11    1    5    5    0    0  0.14943085439E+03 -0.61248495976E+01  0.12021883370E+03  0.19188450172E+03  0.00000000000E+00 0. -1.
        -11    1    5    5    0    0  0.53747226669E+03  0.11061286497E+03  0.30422169880E+03  0.62742528270E+03  0.00000000000E+00 0.  1.
          4    1    6    6  503    0 -0.13926251763E+03  0.80342959428E+02  0.29860572104E+03  0.33913775459E+03  0.00000000000E+00 0. -1.
         -4    1    6    6    0  503 -0.65024361518E+02  0.24379344530E+01  0.27247516331E+03  0.28013715522E+03  0.00000000000E+00 0.  1.
<mgrwt>
<rscale>  0 0.15624532E+04</rscale>
<asrwt>0</asrwt>
<pdfrwt beam="1">  1        2 0.28482176E+00 0.15624532E+04</pdfrwt>
<pdfrwt beam="2">  1       -1 0.50717069E-01 0.15624532E+04</pdfrwt>
<totfact> 0.34579969E+01</totfact>
</mgrwt>
</event>
<event>
12    6  0.1542110E-007  0.2244371E+04  0.7818608E-02  0.8500184E-01
         -1   -1    0    0    0  501 -0.00000000000E+00  0.00000000000E+00  0.10142713245E+04  0.10142713245E+04  0.00000000000E+00 0.  1.
          2   -1    0    0  501    0  0.00000000000E+00 -0.00000000000E+00 -0.12415809334E+04  0.12415809334E+04  0.00000000000E+00 0. -1.
         24    2    1    2    0    0  0.37109076020E+03 -0.38189637403E+03  0.68079988220E+03  0.87012875441E+03  0.10041103936E+03 0.  0.
        254    2    1    2    0    0 -0.37109076020E+03  0.38189637403E+03 -0.90810949113E+03  0.13857235035E+04  0.90111796541E+03 0.  0.
         23    2    4    4    0    0 -0.64615772234E+03  0.17227470520E+03 -0.48247704205E+03  0.82969523469E+03  0.91715375866E+02 0.  0.
         23    2    4    4    0    0  0.27506696214E+03  0.20962166884E+03 -0.42563244908E+03  0.55602826886E+03  0.91659022200E+02 0.  0.
          2    1    3    3  502    0  0.14365251014E+03 -0.19927111125E+03  0.25570291559E+03  0.35458285419E+03  0.00000000000E+00 0. -1.
         -1    1    3    3    0  502  0.22743825006E+03 -0.18262526278E+03  0.42509696662E+03  0.51554590021E+03  0.00000000000E+00 0.  1.
         11    1    5    5    0    0 -0.34306646402E+03  0.87899135505E+02 -0.19912496928E+03  0.40629005667E+03  0.00000000000E+00 0.  1.
        -11    1    5    5    0    0 -0.30309125832E+03  0.84375569691E+02 -0.28335207277E+03  0.42340517802E+03  0.00000000000E+00 0. -1.
          4    1    6    6  503    0  0.11211168681E+03  0.72065946948E+02 -0.99322212587E+02  0.16621502021E+03  0.00000000000E+00 0. -1.
         -4    1    6    6    0  503  0.16295527532E+03  0.13755572189E+03 -0.32631023649E+03  0.38981324865E+03  0.00000000000E+00 0.  1.
<mgrwt>
<rscale>  0 0.22443707E+04</rscale>
<asrwt>0</asrwt>
<pdfrwt beam="1">  1        2 0.19101245E+00 0.22443707E+04</pdfrwt>
<pdfrwt beam="2">  1       -1 0.15604174E+00 0.22443707E+04</pdfrwt>
<totfact> 0.58191366E+00</totfact>
</mgrwt>
</event>
<event>
12    6  0.1542110E-007  0.2239522E+04  0.7818608E-02  0.8502156E-01
         -1   -1    0    0    0  501 -0.00000000000E+00  0.00000000000E+00  0.77260390180E+03  0.77260390180E+03  0.00000000000E+00 0.  1.
          2   -1    0    0  501    0  0.00000000000E+00 -0.00000000000E+00 -0.16229073018E+04  0.16229073018E+04  0.00000000000E+00 0. -1.
         24    2    1    2    0    0 -0.81672300036E+03 -0.14053424719E+02 -0.84942363886E+03  0.11810118084E+04  0.77681498107E+02 0.  0.
        254    2    1    2    0    0  0.81672300036E+03  0.14053424719E+02 -0.87976117172E+00  0.12144993953E+04  0.89876250984E+03 0.  0.
         23    2    4    4    0    0  0.44442952507E+03 -0.42650748220E+03 -0.73398743673E+02  0.62605534496E+03  0.84449299891E+02 0.  0.
         23    2    4    4    0    0  0.37229347529E+03  0.44056090692E+03  0.72518982501E+02  0.58844405032E+03  0.91164977289E+02 0.  0.
          4    1    3    3  502    0 -0.68757232430E+03 -0.41345238137E+01 -0.75180944081E+03  0.10188180558E+04  0.00000000000E+00 0. -1.
         -3    1    3    3    0  502 -0.12915067606E+03 -0.99189009057E+01 -0.97614198049E+02  0.16219375260E+03  0.00000000000E+00 0.  1.
         11    1    5    5    0    0  0.38697036571E+03 -0.40491476284E+03 -0.60674068955E+02  0.56336788313E+03  0.00000000000E+00 0. -1.
        -11    1    5    5    0    0  0.57459159358E+02 -0.21592719368E+02 -0.12724674718E+02  0.62687461829E+02  0.00000000000E+00 0.  1.
          2    1    6    6  503    0  0.17283995137E+03  0.18000523565E+03 -0.11193392172E+02  0.24980157261E+03  0.00000000000E+00 0. -1.
         -2    1    6    6    0  503  0.19945352393E+03  0.26055567127E+03  0.83712374674E+02  0.33864247772E+03  0.00000000000E+00 0.  1.
<mgrwt>
<rscale>  0 0.22395218E+04</rscale>
<asrwt>0</asrwt>
<pdfrwt beam="1">  1        2 0.24967804E+00 0.22395218E+04</pdfrwt>
<pdfrwt beam="2">  1       -1 0.11886214E+00 0.22395218E+04</pdfrwt>
<totfact> 0.71198061E+00</totfact>
</mgrwt>
</event>
<event>
12    6  0.1542110E-007  0.1432419E+04  0.7818608E-02  0.8930681E-01
         -1   -1    0    0    0  501 -0.00000000000E+00  0.00000000000E+00  0.77077305614E+03  0.77077305614E+03  0.00000000000E+00 0.  1.
          2   -1    0    0  501    0  0.00000000000E+00 -0.00000000000E+00 -0.66550856942E+03  0.66550856942E+03  0.00000000000E+00 0. -1.
         24    2    1    2    0    0  0.28665966407E+03 -0.60853421406E+00 -0.28311543214E+03  0.41183679514E+03  0.85329154419E+02 0.  0.
        254    2    1    2    0    0 -0.28665966407E+03  0.60853421406E+00  0.38837991886E+03  0.10244448304E+04  0.90358957271E+03 0.  0.
         23    2    4    4    0    0 -0.57360041330E+03  0.16789884335E+03  0.23954450918E+03  0.64942876340E+03  0.84668123381E+02 0.  0.
         23    2    4    4    0    0  0.28694074922E+03 -0.16729030914E+03  0.14883540968E+03  0.37501606703E+03  0.90355023450E+02 0.  0.
          2    1    3    3  502    0  0.14249470065E+03 -0.42613608685E+02 -0.14842329486E+03  0.21011933232E+03  0.00000000000E+00 0. -1.
         -1    1    3    3    0  502  0.14416496342E+03  0.42005074471E+02 -0.13469213728E+03  0.20171746282E+03  0.00000000000E+00 0.  1.
         11    1    5    5    0    0 -0.49250555631E+03  0.16766377746E+03  0.18724505818E+03  0.55293180147E+03  0.00000000000E+00 0.  1.
        -11    1    5    5    0    0 -0.81094856988E+02  0.23506589503E+00  0.52299451003E+02  0.96496961926E+02  0.00000000000E+00 0. -1.
          2    1    6    6  503    0  0.16455837014E+03 -0.91154096553E+02  0.34988797020E+02  0.19134456464E+03  0.00000000000E+00 0. -1.
         -2    1    6    6    0  503  0.12238237909E+03 -0.76136212586E+02  0.11384661266E+03  0.18367150239E+03  0.00000000000E+00 0.  1.
<mgrwt>
<rscale>  0 0.14324190E+04</rscale>
<asrwt>0</asrwt>
<pdfrwt beam="1">  1        2 0.10238593E+00 0.14324190E+04</pdfrwt>
<pdfrwt beam="2">  1       -1 0.11858047E+00 0.14324190E+04</pdfrwt>
<totfact> 0.30882091E+01</totfact>
</mgrwt>
</event>
<event>
12    6  0.1542110E-007  0.1967066E+04  0.7818608E-02  0.8622175E-01
          4   -1    0    0  501    0  0.00000000000E+00  0.00000000000E+00  0.12198345316E+04  0.12198345316E+04  0.00000000000E+00 0. -1.
         -3   -1    0    0    0  501 -0.00000000000E+00 -0.00000000000E+00 -0.79300679467E+03  0.79300679467E+03  0.00000000000E+00 0.  1.
         24    2    1    2    0    0 -0.51507341971E+03 -0.22144670777E+03 -0.38026588394E+03  0.68236763320E+03  0.81756787308E+02 0.  0.
        254    2    1    2    0    0  0.51507341971E+03  0.22144670777E+03  0.80709362089E+03  0.13304736931E+04  0.89689512379E+03 0.  0.
         23    2    4    4    0    0  0.14224981912E+03  0.92047138461E+02  0.89668150182E+03  0.91693753826E+03  0.89604947513E+02 0.  0.
         23    2    4    4    0    0  0.37282360059E+03  0.12939956931E+03 -0.89587880935E+02  0.41353615484E+03  0.85114494995E+02 0.  0.
          4    1    3    3  502    0 -0.13880249900E+02 -0.85077455611E+00  0.26739209279E+01  0.14161038371E+02  0.00000000000E+00 0. -1.
         -3    1    3    3    0  502 -0.50119316981E+03 -0.22059593322E+03 -0.38293980487E+03  0.66820659482E+03  0.00000000000E+00 0.  1.
         11    1    5    5    0    0  0.47844698547E+02  0.44053222793E+02  0.16048139402E+03  0.17315911597E+03  0.00000000000E+00 0.  1.
        -11    1    5    5    0    0  0.94405120574E+02  0.47993915667E+02  0.73620010780E+03  0.74377842228E+03  0.00000000000E+00 0. -1.
          2    1    6    6  503    0  0.32582064740E+03  0.14047278461E+03 -0.71336237024E+02  0.36191235983E+03  0.00000000000E+00 0. -1.
         -2    1    6    6    0  503  0.47002953193E+02 -0.11073215301E+02 -0.18251643911E+02  0.51623795012E+02  0.00000000000E+00 0.  1.
<mgrwt>
<rscale>  0 0.19670659E+04</rscale>
<asrwt>0</asrwt>
<pdfrwt beam="1">  1        4 0.18766685E+00 0.19670659E+04</pdfrwt>
<pdfrwt beam="2">  1       -3 0.12200105E+00 0.19670659E+04</pdfrwt>
<totfact> 0.18387821E-01</totfact>
</mgrwt>
</event>
<event>
12    6  0.1542110E-007  0.2413816E+04  0.7818608E-02  0.8434349E-01
          2   -1    0    0  501    0  0.00000000000E+00  0.00000000000E+00  0.22701709032E+04  0.22701709032E+04  0.00000000000E+00 0. -1.
         -1   -1    0    0    0  501 -0.00000000000E+00 -0.00000000000E+00 -0.64163763914E+03  0.64163763914E+03  0.00000000000E+00 0.  1.
         24    2    1    2    0    0 -0.53916641478E+03  0.55290646293E+03 -0.12960646451E+03  0.78724860590E+03  0.80972540212E+02 0.  0.
        254    2    1    2    0    0  0.53916641478E+03 -0.55290646293E+03  0.17581397286E+04  0.21245599364E+04  0.90900695200E+03 0.  0.
         23    2    4    4    0    0  0.63166385818E+03 -0.62335535184E+03  0.95080636140E+03  0.13039146274E+04  0.92679524949E+02 0.  0.
         23    2    4    4    0    0 -0.92497443400E+02  0.70448888904E+02  0.80733336716E+03  0.82064530901E+03  0.90292494050E+02 0.  0.
          2    1    3    3  502    0 -0.49207912284E+02  0.41483040242E+02  0.10684163077E+02  0.65241187908E+02  0.00000000000E+00 0. -1.
         -1    1    3    3    0  502 -0.48995850249E+03  0.51142342269E+03 -0.14029062759E+03  0.72200741799E+03  0.00000000000E+00 0.  1.
         11    1    5    5    0    0  0.41212982686E+02 -0.32460626324E+02  0.29080138757E+02  0.59982136285E+02  0.00000000000E+00 0. -1.
        -11    1    5    5    0    0  0.59045087549E+03 -0.59089472551E+03  0.92172622264E+03  0.12439324911E+04  0.00000000000E+00 0.  1.
          2    1    6    6  503    0 -0.10952856337E+03  0.68485055765E+02  0.67975628396E+03  0.69192146566E+03  0.00000000000E+00 0.  1.
         -2    1    6    6    0  503  0.17031119974E+02  0.19638331391E+01  0.12757708320E+03  0.12872384335E+03  0.00000000000E+00 0. -1.
<mgrwt>
<rscale>  0 0.24138161E+04</rscale>
<asrwt>0</asrwt>
<pdfrwt beam="1">  1        2 0.34925706E+00 0.24138161E+04</pdfrwt>
<pdfrwt beam="2">  1       -1 0.98713484E-01 0.24138161E+04</pdfrwt>
<totfact> 0.47280747E+00</totfact>
</mgrwt>
</event>
<event>
12    6  0.1542110E-007  0.1660946E+04  0.7818608E-02  0.8783957E-01
         -1   -1    0    0    0  501 -0.00000000000E+00  0.00000000000E+00  0.16844129640E+04  0.16844129640E+04  0.00000000000E+00 0.  1.
          2   -1    0    0  501    0  0.00000000000E+00 -0.00000000000E+00 -0.40945148344E+03  0.40945148344E+03  0.00000000000E+00 0. -1.
         24    2    1    2    0    0 -0.47223665240E+03  0.28206242248E+03  0.20969490283E+03  0.59409395666E+03  0.80056299048E+02 0.  0.
        254    2    1    2    0    0  0.47223665240E+03 -0.28206242248E+03  0.10652665777E+04  0.14997704907E+04  0.90108377929E+03 0.  0.
         23    2    4    4    0    0  0.29123626153E+01 -0.50578785428E+03  0.65042806510E+03  0.82875067411E+03  0.89113279475E+02 0.  0.
         23    2    4    4    0    0  0.46932428979E+03  0.22372543180E+03  0.41483851259E+03  0.67101981663E+03  0.88646742554E+02 0.  0.
          2    1    3    3  502    0 -0.43072037220E+02  0.18745909998E+02 -0.39427865592E+01  0.47139740112E+02  0.00000000000E+00 0. -1.
         -1    1    3    3    0  502 -0.42916461518E+03  0.26331651248E+03  0.21363768939E+03  0.54695421655E+03  0.00000000000E+00 0.  1.
         11    1    5    5    0    0  0.11287952809E+02 -0.93517213802E+02  0.72853375304E+02  0.11908191067E+03  0.00000000000E+00 0.  1.
        -11    1    5    5    0    0 -0.83755901938E+01 -0.41227064047E+03  0.57757468979E+03  0.70966876344E+03  0.00000000000E+00 0. -1.
          1    1    6    6  503    0  0.36206833876E+03  0.14352327168E+03  0.34332619366E+03  0.51919677069E+03  0.00000000000E+00 0. -1.
         -1    1    6    6    0  503  0.10725595103E+03  0.80202160121E+02  0.71512318928E+02  0.15182304593E+03  0.00000000000E+00 0.  1.
<mgrwt>
<rscale>  0 0.16609460E+04</rscale>
<asrwt>0</asrwt>
<pdfrwt beam="1">  1        2 0.62992537E-01 0.16609460E+04</pdfrwt>
<pdfrwt beam="2">  1       -1 0.25914045E+00 0.16609460E+04</pdfrwt>
<totfact> 0.51404112E+00</totfact>
</mgrwt>
</event>
<event>
12    6  0.1542110E-007  0.2236168E+04  0.7818608E-02  0.8503523E-01
         -1   -1    0    0    0  501 -0.00000000000E+00  0.00000000000E+00  0.11657338896E+04  0.11657338896E+04  0.00000000000E+00 0.  1.
          2   -1    0    0  501    0  0.00000000000E+00 -0.00000000000E+00 -0.10723820859E+04  0.10723820859E+04  0.00000000000E+00 0. -1.
         24    2    1    2    0    0 -0.66623721894E+03  0.25808596385E+03 -0.58163023758E+03  0.92494617384E+03  0.82166261849E+02 0.  0.
        254    2    1    2    0    0  0.66623721894E+03 -0.25808596385E+03  0.67498204130E+03  0.13131698016E+04  0.87082361889E+03 0.  0.
         23    2    4    4    0    0 -0.10372237174E+03  0.17755295257E+03  0.21234343587E+03  0.31045793434E+03  0.94926354984E+02 0.  0.
         23    2    4    4    0    0  0.76995959068E+03 -0.43563891642E+03  0.46263860543E+03  0.10027118673E+04  0.93688701612E+02 0.  0.
          4    1    3    3  502    0 -0.66137900882E+03  0.25444155297E+03 -0.56211776600E+03  0.90451040903E+03  0.00000000000E+00 0. -1.
         -3    1    3    3    0  502 -0.48582101258E+01  0.36444108737E+01 -0.19512471577E+02  0.20435764808E+02  0.00000000000E+00 0.  1.
         11    1    5    5    0    0 -0.17978830608E+02  0.17748573385E+02  0.85480205222E+02  0.89135378453E+02  0.00000000000E+00 0. -1.
        -11    1    5    5    0    0 -0.85743541129E+02  0.15980437919E+03  0.12686323064E+03  0.22132255588E+03  0.00000000000E+00 0.  1.
          3    1    6    6  503    0  0.42894909522E+02 -0.62108788930E+01  0.93978960753E+01  0.44349393797E+02  0.00000000000E+00 0. -1.
         -3    1    6    6    0  503  0.72706468116E+03 -0.42942803753E+03  0.45324070936E+03  0.95836247350E+03  0.00000000000E+00 0.  1.
<mgrwt>
<rscale>  0 0.22361683E+04</rscale>
<asrwt>0</asrwt>
<pdfrwt beam="1">  1        2 0.16498186E+00 0.22361683E+04</pdfrwt>
<pdfrwt beam="2">  1       -1 0.17934367E+00 0.22361683E+04</pdfrwt>
<totfact> 0.49549287E+00</totfact>
</mgrwt>
</event>
<event>
12    6  0.1542110E-007  0.1862130E+04  0.7818608E-02  0.8673940E-01
          2   -1    0    0  501    0  0.00000000000E+00  0.00000000000E+00  0.24215374634E+04  0.24215374634E+04  0.00000000000E+00 0. -1.
         -1   -1    0    0    0  501 -0.00000000000E+00 -0.00000000000E+00 -0.35798838855E+03  0.35798838855E+03  0.00000000000E+00 0.  1.
         24    2    1    2    0    0 -0.49364710238E+03  0.18803894591E+03  0.15060055718E+04  0.15978074335E+04  0.76744416525E+02 0.  0.
        254    2    1    2    0    0  0.49364710238E+03 -0.18803894591E+03  0.55754350304E+03  0.11817184184E+04  0.89808549470E+03 0.  0.
         23    2    4    4    0    0  0.69856189270E+03 -0.31870684942E+03  0.35036024744E+03  0.84924953212E+03  0.94391159641E+02 0.  0.
         23    2    4    4    0    0 -0.20491479032E+03  0.13066790352E+03  0.20718325560E+03  0.33246888630E+03  0.92447210113E+02 0.  0.
          4    1    3    3  502    0 -0.30020750025E+03  0.14991417396E+03  0.89888408985E+03  0.95947454877E+03  0.00000000000E+00 0. -1.
         -3    1    3    3    0  502 -0.19343960212E+03  0.38124771949E+02  0.60712148198E+03  0.63833288477E+03  0.00000000000E+00 0.  1.
         11    1    5    5    0    0  0.62619915576E+03 -0.25308111552E+03  0.29562587996E+03  0.73727206282E+03  0.00000000000E+00 0. -1.
        -11    1    5    5    0    0  0.72362736932E+02 -0.65625733904E+02  0.54734367487E+02  0.11197746930E+03  0.00000000000E+00 0.  1.
          3    1    6    6  503    0 -0.14852620602E+03  0.41689524422E+02  0.13224897165E+03  0.20319409643E+03  0.00000000000E+00 0. -1.
         -3    1    6    6    0  503 -0.56388584297E+02  0.88978379095E+02  0.74934283947E+02  0.12927478987E+03  0.00000000000E+00 0.  1.
<mgrwt>
<rscale>  0 0.18621303E+04</rscale>
<asrwt>0</asrwt>
<pdfrwt beam="1">  1        2 0.37254422E+00 0.18621303E+04</pdfrwt>
<pdfrwt beam="2">  1       -1 0.55075138E-01 0.18621303E+04</pdfrwt>
<totfact> 0.13780483E+01</totfact>
</mgrwt>
</event>
<event>
12    6  0.1542110E-007  0.1248008E+04  0.7818608E-02  0.9071843E-01
          2   -1    0    0  501    0  0.00000000000E+00  0.00000000000E+00  0.43228693959E+04  0.43228693959E+04  0.00000000000E+00 0. -1.
         -1   -1    0    0    0  501 -0.00000000000E+00 -0.00000000000E+00 -0.90074613995E+02  0.90074613995E+02  0.00000000000E+00 0.  1.
         24    2    1    2    0    0 -0.11536436332E+03 -0.27047294131E+03  0.94498836591E+03  0.99292376657E+03  0.80187568880E+02 0.  0.
        254    2    1    2    0    0  0.11536436332E+03  0.27047294131E+03  0.32878064160E+04  0.34200202433E+04  0.89465238356E+03 0.  0.
         23    2    4    4    0    0  0.43645666106E+03  0.37344985859E+03  0.18154355391E+04  0.19064932879E+04  0.94611024830E+02 0.  0.
         23    2    4    4    0    0 -0.32109229773E+03 -0.10297691727E+03  0.14723708769E+04  0.15135269555E+04  0.95829727994E+02 0.  0.
          2    1    3    3  502    0 -0.60576377897E+02 -0.79820945134E+02  0.41784119306E+03  0.42968842602E+03  0.00000000000E+00 0. -1.
         -1    1    3    3    0  502 -0.54787985427E+02 -0.19065199618E+03  0.52714717285E+03  0.56323534054E+03  0.00000000000E+00 0.  1.
         11    1    5    5    0    0  0.36545577235E+03  0.32858378167E+03  0.16388548096E+04  0.17109559638E+04  0.00000000000E+00 0. -1.
        -11    1    5    5    0    0  0.71000888704E+02  0.44866076914E+02  0.17658072956E+03  0.19553732407E+03  0.00000000000E+00 0.  1.
          1    1    6    6  503    0 -0.32393452284E+03 -0.10912547692E+03  0.14123819640E+04  0.14531568247E+04  0.00000000000E+00 0. -1.
         -1    1    6    6    0  503  0.28422251110E+01  0.61485596456E+01  0.59988912851E+02  0.60370130812E+02  0.00000000000E+00 0.  1.
<mgrwt>
<rscale>  0 0.12480077E+04</rscale>
<asrwt>0</asrwt>
<pdfrwt beam="1">  1        2 0.66505667E+00 0.12480077E+04</pdfrwt>
<pdfrwt beam="2">  1       -1 0.13857636E-01 0.12480077E+04</pdfrwt>
<totfact> 0.79466807E+00</totfact>
</mgrwt>
</event>
<event>
12    6  0.1542110E-007  0.1939516E+04  0.7818608E-02  0.8635433E-01
         -1   -1    0    0    0  501 -0.00000000000E+00  0.00000000000E+00  0.44855829690E+03  0.44855829690E+03  0.00000000000E+00 0.  1.
          2   -1    0    0  501    0  0.00000000000E+00 -0.00000000000E+00 -0.20965621756E+04  0.20965621756E+04  0.00000000000E+00 0. -1.
         24    2    1    2    0    0  0.61471536829E+03 -0.39977513968E+03 -0.10729699713E+04  0.13021565393E+04  0.81559470094E+02 0.  0.
        254    2    1    2    0    0 -0.61471536829E+03  0.39977513968E+03 -0.57503390741E+03  0.12429639332E+04  0.82255710944E+03 0.  0.
         23    2    4    4    0    0 -0.35329579048E+03 -0.21390391574E+03 -0.28519460959E+03  0.51017857354E+03  0.91506343070E+02 0.  0.
         23    2    4    4    0    0 -0.26141957781E+03  0.61367905542E+03 -0.28983929782E+03  0.73278535968E+03  0.89584519178E+02 0.  0.
          2    1    3    3  502    0  0.61147427151E+03 -0.39403042350E+03 -0.10719708724E+04  0.12954853572E+04  0.00000000000E+00 0. -1.
         -1    1    3    3    0  502  0.32410967854E+01 -0.57447161838E+01 -0.99909892039E+00  0.66711821334E+01  0.00000000000E+00 0.  1.
         11    1    5    5    0    0 -0.35572468620E+03 -0.21163451120E+03 -0.26900820429E+03  0.49365436560E+03  0.00000000000E+00 0.  1.
        -11    1    5    5    0    0  0.24288957248E+01 -0.22694045381E+01 -0.16186405296E+02  0.16524207933E+02  0.00000000000E+00 0. -1.
          1    1    6    6  503    0 -0.24743465295E+03  0.54440622936E+03 -0.23185872395E+03  0.64137392987E+03  0.00000000000E+00 0.  1.
         -1    1    6    6    0  503 -0.13984924862E+02  0.69272826064E+02 -0.57980573866E+02  0.91411429811E+02  0.00000000000E+00 0. -1.
<mgrwt>
<rscale>  0 0.19395158E+04</rscale>
<asrwt>0</asrwt>
<pdfrwt beam="1">  1        2 0.32254802E+00 0.19395158E+04</pdfrwt>
<pdfrwt beam="2">  1       -1 0.69008970E-01 0.19395158E+04</pdfrwt>
<totfact> 0.13328797E+01</totfact>
</mgrwt>
</event>
<event>
12    6  0.1542110E-007  0.1822987E+04  0.7818608E-02  0.8694170E-01
         -1   -1    0    0    0  501 -0.00000000000E+00  0.00000000000E+00  0.50651854061E+03  0.50651854061E+03  0.00000000000E+00 0.  1.
          2   -1    0    0  501    0  0.00000000000E+00 -0.00000000000E+00 -0.16402564959E+04  0.16402564959E+04  0.00000000000E+00 0. -1.
         24    2    1    2    0    0 -0.50863292503E+03  0.36980143723E+03 -0.11439306417E+03  0.64416306717E+03  0.79998303550E+02 0.  0.
        254    2    1    2    0    0  0.50863292503E+03 -0.36980143723E+03 -0.10193448912E+04  0.15026119694E+04  0.90736881586E+03 0.  0.
         23    2    4    4    0    0  0.56753411661E+03 -0.31257757933E+03 -0.11503957035E+04  0.13234877575E+04  0.91705249947E+02 0.  0.
         23    2    4    4    0    0 -0.58901191580E+02 -0.57223857899E+02  0.13105081238E+03  0.17912421190E+03  0.90372825462E+02 0.  0.
          4    1    3    3  502    0 -0.38892873737E+03  0.26401368214E+03 -0.11690934297E+03  0.48439300323E+03  0.00000000000E+00 0. -1.
         -3    1    3    3    0  502 -0.11970418766E+03  0.10578775509E+03  0.25162787944E+01  0.15977006394E+03  0.00000000000E+00 0.  1.
         11    1    5    5    0    0  0.34920426256E+03 -0.23230765677E+03 -0.68519366753E+03  0.80336842508E+03  0.00000000000E+00 0. -1.
        -11    1    5    5    0    0  0.21832985405E+03 -0.80269922563E+02 -0.46520203601E+03  0.52011933241E+03  0.00000000000E+00 0.  1.
          4    1    6    6  503    0 -0.46539077015E+02  0.39582716862E+01  0.97848076905E+02  0.10842416593E+03  0.00000000000E+00 0. -1.
         -4    1    6    6    0  503 -0.12362114565E+02 -0.61182129585E+02  0.33202735472E+02  0.70700045968E+02  0.00000000000E+00 0.  1.
<mgrwt>
<rscale>  0 0.18229869E+04</rscale>
<asrwt>0</asrwt>
<pdfrwt beam="1">  1        2 0.25234716E+00 0.18229869E+04</pdfrwt>
<pdfrwt beam="2">  1       -1 0.77925928E-01 0.18229869E+04</pdfrwt>
<totfact> 0.18748282E+01</totfact>
</mgrwt>
</event>
<event>
12    6  0.1542110E-007  0.2127977E+04  0.7818608E-02  0.8549018E-01
          2   -1    0    0  501    0  0.00000000000E+00  0.00000000000E+00  0.45687098376E+04  0.45687098376E+04  0.00000000000E+00 0. -1.
         -1   -1    0    0    0  501 -0.00000000000E+00 -0.00000000000E+00 -0.24778807348E+03  0.24778807348E+03  0.00000000000E+00 0.  1.
         24    2    1    2    0    0  0.17929473889E+03 -0.74527651894E+03  0.26385791257E+04  0.27488002190E+04  0.78861577658E+02 0.  0.
        254    2    1    2    0    0 -0.17929473889E+03  0.74527651894E+03  0.16823426384E+04  0.20676976920E+04  0.92602013998E+03 0.  0.
         23    2    4    4    0    0 -0.50693205375E+03  0.66994582710E+03  0.12794923166E+04  0.15334739747E+04  0.92921064730E+02 0.  0.
         23    2    4    4    0    0  0.32763731487E+03  0.75330691837E+02  0.40285032175E+03  0.53422371737E+03  0.10042746260E+03 0.  0.
          2    1    3    3  502    0  0.30846214744E+02 -0.28799422949E+03  0.10201098996E+04  0.10604321631E+04  0.00000000000E+00 0. -1.
         -1    1    3    3    0  502  0.14844852414E+03 -0.45728228945E+03  0.16184692261E+04  0.16883680559E+04  0.00000000000E+00 0.  1.
         11    1    5    5    0    0 -0.45102506338E+02  0.24178348152E+02  0.84728095556E+02  0.98983224709E+02  0.00000000000E+00 0. -1.
        -11    1    5    5    0    0 -0.46182954741E+03  0.64576747895E+03  0.11947642211E+04  0.14344907500E+04  0.00000000000E+00 0.  1.
          1    1    6    6  503    0  0.10612415297E+03  0.11381287055E+02  0.20193128186E+03  0.22840339782E+03  0.00000000000E+00 0. -1.
         -1    1    6    6    0  503  0.22151316189E+03  0.63949404783E+02  0.20091903989E+03  0.30582031955E+03  0.00000000000E+00 0.  1.
<mgrwt>
<rscale>  0 0.21279773E+04</rscale>
<asrwt>0</asrwt>
<pdfrwt beam="1">  1        2 0.70287837E+00 0.21279773E+04</pdfrwt>
<pdfrwt beam="2">  1       -1 0.38121245E-01 0.21279773E+04</pdfrwt>
<totfact> 0.74216911E-01</totfact>
</mgrwt>
</event>
<event>
12    6  0.1542110E-007  0.2523791E+04  0.7818608E-02  0.8394558E-01
          2   -1    0    0  501    0  0.00000000000E+00  0.00000000000E+00  0.28891485636E+04  0.28891485636E+04  0.00000000000E+00 0. -1.
         -1   -1    0    0    0  501 -0.00000000000E+00 -0.00000000000E+00 -0.55115921454E+03  0.55115921454E+03  0.00000000000E+00 0.  1.
         24    2    1    2    0    0  0.69276800164E+03  0.80840337821E+02 -0.13864162316E+03  0.71419392540E+03  0.66248011939E+02 0.  0.
        254    2    1    2    0    0 -0.69276800164E+03 -0.80840337821E+02  0.24766309722E+04  0.27261138527E+04  0.90085132028E+03 0.  0.
         23    2    4    4    0    0 -0.79310709405E+03  0.41271099436E+02  0.23977363759E+04  0.25275907865E+04  0.94091920652E+02 0.  0.
         23    2    4    4    0    0  0.10033909241E+03 -0.12211143726E+03  0.78894596289E+02  0.19852306619E+03  0.90597538107E+02 0.  0.
          2    1    3    3  502    0  0.31904121284E+03  0.12064822895E+02 -0.85285240621E+02  0.33046395826E+03  0.00000000000E+00 0. -1.
         -1    1    3    3    0  502  0.37372678880E+03  0.68775514926E+02 -0.53356382538E+02  0.38372996713E+03  0.00000000000E+00 0.  1.
         11    1    5    5    0    0 -0.55401289468E+03  0.40523203674E+02  0.18015850666E+04  0.18852801303E+04  0.00000000000E+00 0. -1.
        -11    1    5    5    0    0 -0.23909419937E+03  0.74789576202E+00  0.59615130931E+03  0.64231065624E+03  0.00000000000E+00 0.  1.
          1    1    6    6  503    0  0.58382261977E+02 -0.79133486599E+02 -0.12781182279E+01  0.98347500228E+02  0.00000000000E+00 0. -1.
         -1    1    6    6    0  503  0.41956830436E+02 -0.42977950658E+02  0.80172714517E+02  0.10017556596E+03  0.00000000000E+00 0.  1.
<mgrwt>
<rscale>  0 0.25237915E+04</rscale>
<asrwt>0</asrwt>
<pdfrwt beam="1">  1        2 0.44448438E+00 0.25237915E+04</pdfrwt>
<pdfrwt beam="2">  1       -1 0.84793727E-01 0.25237915E+04</pdfrwt>
<totfact> 0.28423512E+00</totfact>
</mgrwt>
</event>
<event>
12    6  0.1542110E-007  0.2311334E+04  0.7818608E-02  0.8473466E-01
         -1   -1    0    0    0  501 -0.00000000000E+00  0.00000000000E+00  0.93180860843E+03  0.93180860843E+03  0.00000000000E+00 0.  1.
          2   -1    0    0  501    0  0.00000000000E+00 -0.00000000000E+00 -0.14333047345E+04  0.14333047345E+04  0.00000000000E+00 0. -1.
         24    2    1    2    0    0 -0.60361465986E+03  0.10862746849E+03 -0.99777290066E+03  0.11739661390E+04  0.80592491757E+02 0.  0.
        254    2    1    2    0    0  0.60361465986E+03 -0.10862746849E+03  0.49627677457E+03  0.11911472039E+04  0.89240710440E+03 0.  0.
         23    2    4    4    0    0  0.15204216692E+03 -0.44222202745E+03  0.74691311549E+02  0.48217404451E+03  0.90751722232E+02 0.  0.
         23    2    4    4    0    0  0.45157249295E+03  0.33359455897E+03  0.42158546302E+03  0.70897315944E+03  0.98516963087E+02 0.  0.
          4    1    3    3  502    0 -0.58023298418E+03  0.87562869920E+02 -0.95471955170E+03  0.11206368700E+04  0.00000000000E+00 0. -1.
         -3    1    3    3    0  502 -0.23381675684E+02  0.21064598568E+02 -0.43053348966E+02  0.53329268960E+02  0.00000000000E+00 0.  1.
         11    1    5    5    0    0  0.73904091803E+02 -0.10027596377E+03  0.33569833332E+02  0.12901169484E+03  0.00000000000E+00 0.  1.
        -11    1    5    5    0    0  0.78138075114E+02 -0.34194606369E+03  0.41121478217E+02  0.35316234967E+03  0.00000000000E+00 0. -1.
          1    1    6    6  503    0  0.74207722107E+02  0.18042311264E+02  0.76456402843E+02  0.10806429823E+03  0.00000000000E+00 0. -1.
         -1    1    6    6    0  503  0.37736477084E+03  0.31555224770E+03  0.34512906018E+03  0.60090886121E+03  0.00000000000E+00 0.  1.
<mgrwt>
<rscale>  0 0.23113335E+04</rscale>
<asrwt>0</asrwt>
<pdfrwt beam="1">  1        2 0.22050842E+00 0.23113335E+04</pdfrwt>
<pdfrwt beam="2">  1       -1 0.14335517E+00 0.23113335E+04</pdfrwt>
<totfact> 0.56290154E+00</totfact>
</mgrwt>
</event>
<event>
12    6  0.1542110E-007  0.1716686E+04  0.7818608E-02  0.8751904E-01
          2   -1    0    0  501    0  0.00000000000E+00  0.00000000000E+00  0.79581945845E+03  0.79581945845E+03  0.00000000000E+00 0. -1.
         -1   -1    0    0    0  501 -0.00000000000E+00 -0.00000000000E+00 -0.92577906445E+03  0.92577906445E+03  0.00000000000E+00 0.  1.
         24    2    1    2    0    0 -0.29532711178E+03 -0.44065827653E+03  0.26500684819E+03  0.59835433480E+03  0.80009129241E+02 0.  0.
        254    2    1    2    0    0  0.29532711178E+03  0.44065827653E+03 -0.39496645419E+03  0.11232441881E+04  0.90789932622E+03 0.  0.
         23    2    4    4    0    0 -0.24756246403E+03 -0.77232880772E+02 -0.13330671636E+02  0.27642327516E+03  0.94763013758E+02 0.  0.
         23    2    4    4    0    0  0.54288957581E+03  0.51789115730E+03 -0.38163578255E+03  0.84682091294E+03  0.92300843677E+02 0.  0.
          2    1    3    3  502    0 -0.32897374832E+02 -0.39714281255E+02  0.54288151275E+02  0.74877665397E+02  0.00000000000E+00 0. -1.
         -1    1    3    3    0  502 -0.26242973695E+03 -0.40094399527E+03  0.21071869692E+03  0.52347666940E+03  0.00000000000E+00 0.  1.
         11    1    5    5    0    0 -0.90297213431E+02 -0.15684138782E+02 -0.48839342625E+02  0.10385018224E+03  0.00000000000E+00 0.  1.
        -11    1    5    5    0    0 -0.15726525060E+03 -0.61548741990E+02  0.35508670988E+02  0.17257309292E+03  0.00000000000E+00 0. -1.
          2    1    6    6  503    0  0.36128420198E+03  0.32316603034E+03 -0.19927748451E+03  0.52409357332E+03  0.00000000000E+00 0.  1.
         -2    1    6    6    0  503  0.18160537383E+03  0.19472512696E+03 -0.18235829805E+03  0.32272733962E+03  0.00000000000E+00 0. -1.
<mgrwt>
<rscale>  0 0.17166863E+04</rscale>
<asrwt>0</asrwt>
<pdfrwt beam="1">  1        2 0.12243376E+00 0.17166863E+04</pdfrwt>
<pdfrwt beam="2">  1       -1 0.14242755E+00 0.17166863E+04</pdfrwt>
<totfact> 0.15078050E+01</totfact>
</mgrwt>
</event>
<event>
12    6  0.1542110E-007  0.1587264E+04  0.7818608E-02  0.8828410E-01
          2   -1    0    0  501    0  0.00000000000E+00  0.00000000000E+00  0.10769791167E+04  0.10769791167E+04  0.00000000000E+00 0. -1.
         -1   -1    0    0    0  501 -0.00000000000E+00 -0.00000000000E+00 -0.58483209149E+03  0.58483209149E+03  0.00000000000E+00 0.  1.
         24    2    1    2    0    0  0.44418811109E+03  0.27955965356E+03  0.27532728771E+03  0.59803185490E+03  0.79876818808E+02 0.  0.
        254    2    1    2    0    0 -0.44418811109E+03 -0.27955965356E+03  0.21681973750E+03  0.10637793533E+04  0.89953267643E+03 0.  0.
         23    2    4    4    0    0  0.10263402348E+03 -0.35827017459E+03  0.31396314925E+03  0.49518699499E+03  0.88011590957E+02 0.  0.
         23    2    4    4    0    0 -0.54682213458E+03  0.78710521029E+02 -0.97143411750E+02  0.56859235830E+03  0.93008787126E+02 0.  0.
          4    1    3    3  502    0  0.60926886254E+02  0.16121291889E+02  0.53953497062E+02  0.82963614712E+02  0.00000000000E+00 0. -1.
         -3    1    3    3    0  502  0.38326122484E+03  0.26343836167E+03  0.22137379065E+03  0.51506824019E+03  0.00000000000E+00 0.  1.
         11    1    5    5    0    0  0.41961425754E+01  0.17203939872E+01 -0.30895100753E+01  0.54874803407E+01  0.00000000000E+00 0. -1.
        -11    1    5    5    0    0  0.98437880909E+02 -0.35999056858E+03  0.31705265932E+03  0.48969951465E+03  0.00000000000E+00 0.  1.
          1    1    6    6  503    0 -0.40224925062E+03  0.38326901686E+02 -0.33198338956E+02  0.40543253536E+03  0.00000000000E+00 0. -1.
         -1    1    6    6    0  503 -0.14457288396E+03  0.40383619343E+02 -0.63945072793E+02  0.16315982294E+03  0.00000000000E+00 0.  1.
<mgrwt>
<rscale>  0 0.15872642E+04</rscale>
<asrwt>0</asrwt>
<pdfrwt beam="1">  1        2 0.16568909E+00 0.15872642E+04</pdfrwt>
<pdfrwt beam="2">  1       -1 0.89974168E-01 0.15872642E+04</pdfrwt>
<totfact> 0.29801523E+01</totfact>
</mgrwt>
</event>
<event>
12    6  0.1542110E-007  0.1640302E+04  0.7818608E-02  0.8796165E-01
          2   -1    0    0  501    0  0.00000000000E+00  0.00000000000E+00  0.13807941007E+04  0.13807941007E+04  0.00000000000E+00 0. -1.
         -1   -1    0    0    0  501 -0.00000000000E+00 -0.00000000000E+00 -0.48714528049E+03  0.48714528049E+03  0.00000000000E+00 0.  1.
         24    2    1    2    0    0  0.50618268178E+03 -0.14218050005E+03  0.53157179232E+02  0.53448291183E+03  0.80063071440E+02 0.  0.
        254    2    1    2    0    0 -0.50618268178E+03  0.14218050005E+03  0.84049164102E+03  0.13334564694E+04  0.89176440568E+03 0.  0.
         23    2    4    4    0    0 -0.20536224515E+03  0.49095318659E+03  0.30042019904E+03  0.61774357986E+03  0.90256031992E+02 0.  0.
         23    2    4    4    0    0 -0.30082043663E+03 -0.34877268653E+03  0.54007144198E+03  0.71571288955E+03  0.91828404407E+02 0.  0.
          4    1    3    3  502    0  0.11415712851E+03 -0.14711755587E+02  0.40637731577E+02  0.12206437224E+03  0.00000000000E+00 0. -1.
         -3    1    3    3    0  502  0.39202555326E+03 -0.12746874447E+03  0.12519447655E+02  0.41241853959E+03  0.00000000000E+00 0.  1.
         11    1    5    5    0    0 -0.48999077516E+02  0.43389531886E+02  0.30616675863E+02  0.72256085665E+02  0.00000000000E+00 0. -1.
        -11    1    5    5    0    0 -0.15636316763E+03  0.44756365470E+03  0.26980352318E+03  0.54548749419E+03  0.00000000000E+00 0.  1.
          4    1    6    6  503    0 -0.20518322541E+03 -0.22955587310E+03  0.29197263598E+03  0.42431600845E+03  0.00000000000E+00 0. -1.
         -4    1    6    6    0  503 -0.95637211222E+02 -0.11921681343E+03  0.24809880601E+03  0.29139688110E+03  0.00000000000E+00 0.  1.
<mgrwt>
<rscale>  0 0.16403016E+04</rscale>
<asrwt>0</asrwt>
<pdfrwt beam="1">  1        2 0.21242986E+00 0.16403016E+04</pdfrwt>
<pdfrwt beam="2">  1       -1 0.74945428E-01 0.16403016E+04</pdfrwt>
<totfact> 0.28959723E+01</totfact>
</mgrwt>
</event>
<event>
12    6  0.1542110E-007  0.2287975E+04  0.7818608E-02  0.8482678E-01
          2   -1    0    0  501    0  0.00000000000E+00  0.00000000000E+00  0.12345223560E+04  0.12345223560E+04  0.00000000000E+00 0. -1.
         -1   -1    0    0    0  501 -0.00000000000E+00 -0.00000000000E+00 -0.10600921580E+04  0.10600921580E+04  0.00000000000E+00 0.  1.
         24    2    1    2    0    0  0.16716366431E+03  0.91740932955E+03 -0.17224423423E+03  0.95165128465E+03  0.79928234943E+02 0.  0.
        254    2    1    2    0    0 -0.16716366431E+03 -0.91740932955E+03  0.34667443221E+03  0.13429632293E+04  0.90209949819E+03 0.  0.
         23    2    4    4    0    0  0.11362902988E+03  0.12454731061E+03 -0.27713789458E+02  0.19714483073E+03  0.98358737002E+02 0.  0.
         23    2    4    4    0    0 -0.28079269419E+03 -0.10419566402E+04  0.37438822167E+03  0.11458183986E+04  0.90637105240E+02 0.  0.
          4    1    3    3  502    0 -0.59128380641E+01  0.16156307613E+02 -0.93645920185E+01  0.19587840957E+02  0.00000000000E+00 0. -1.
         -3    1    3    3    0  502  0.17307650237E+03  0.90125302194E+03 -0.16287964221E+03  0.93206344369E+03  0.00000000000E+00 0.  1.
         11    1    5    5    0    0  0.69298830996E+02  0.12786363974E+03 -0.40351306269E+02  0.15092934195E+03  0.00000000000E+00 0.  1.
        -11    1    5    5    0    0  0.44330198881E+02 -0.33163291234E+01  0.12637516812E+02  0.46215488777E+02  0.00000000000E+00 0. -1.
          4    1    6    6  503    0 -0.22993635539E+03 -0.75781228071E+03  0.30733332559E+03  0.84947275020E+03  0.00000000000E+00 0. -1.
         -4    1    6    6    0  503 -0.50856338797E+02 -0.28414435946E+03  0.67054896079E+02  0.29634564835E+03  0.00000000000E+00 0.  1.
<mgrwt>
<rscale>  0 0.22879751E+04</rscale>
<asrwt>0</asrwt>
<pdfrwt beam="1">  1        2 0.18992652E+00 0.22879751E+04</pdfrwt>
<pdfrwt beam="2">  1       -1 0.16309110E+00 0.22879751E+04</pdfrwt>
<totfact> 0.51754228E+00</totfact>
</mgrwt>
</event>
<event>
12    6  0.1542110E-007  0.1346102E+04  0.7818608E-02  0.8993784E-01
          2   -1    0    0  501    0  0.00000000000E+00  0.00000000000E+00  0.39326325371E+03  0.39326325371E+03  0.00000000000E+00 0. -1.
         -1   -1    0    0    0  501 -0.00000000000E+00 -0.00000000000E+00 -0.11518939090E+04  0.11518939090E+04  0.00000000000E+00 0.  1.
         24    2    1    2    0    0 -0.35613587760E+03 -0.38927028910E+02 -0.13285800799E+03  0.38993076079E+03  0.77760343589E+02 0.  0.
        254    2    1    2    0    0  0.35613587760E+03  0.38927028910E+02 -0.62577264732E+03  0.11552264019E+04  0.90255667784E+03 0.  0.
         23    2    4    4    0    0  0.11866665621E+03  0.27004829529E+02 -0.82079189932E+03  0.83478382936E+03  0.91398378842E+02 0.  0.
         23    2    4    4    0    0  0.23746922139E+03  0.11922199382E+02  0.19501925200E+03  0.32044257258E+03  0.90095303565E+02 0.  0.
          4    1    3    3  502    0 -0.33596377662E+03 -0.36601998442E+02 -0.10203273801E+03  0.35301847702E+03  0.00000000000E+00 0. -1.
         -3    1    3    3    0  502 -0.20172100979E+02 -0.23250304686E+01 -0.30825269974E+02  0.36912283776E+02  0.00000000000E+00 0.  1.
         11    1    5    5    0    0  0.10928674788E+03  0.42642931387E+02 -0.50421325662E+03  0.51768042363E+03  0.00000000000E+00 0.  1.
        -11    1    5    5    0    0  0.93799083284E+01 -0.15638101858E+02 -0.31657864270E+03  0.31710340573E+03  0.00000000000E+00 0. -1.
          2    1    6    6  503    0  0.10610036386E+02  0.95584145670E+01 -0.76755237754E+01  0.16212644028E+02  0.00000000000E+00 0. -1.
         -2    1    6    6    0  503  0.22685918500E+03  0.23637848146E+01  0.20269477578E+03  0.30422992855E+03  0.00000000000E+00 0.  1.
<mgrwt>
<rscale>  0 0.13461018E+04</rscale>
<asrwt>0</asrwt>
<pdfrwt beam="1">  1        2 0.60502039E-01 0.13461018E+04</pdfrwt>
<pdfrwt beam="2">  1       -1 0.17721445E+00 0.13461018E+04</pdfrwt>
<totfact> 0.19753664E+01</totfact>
</mgrwt>
</event>
<event>
12    6  0.1542110E-007  0.1926954E+04  0.7818608E-02  0.8641555E-01
          2   -1    0    0  501    0  0.00000000000E+00  0.00000000000E+00  0.22542917198E+04  0.22542917198E+04  0.00000000000E+00 0. -1.
         -1   -1    0    0    0  501 -0.00000000000E+00 -0.00000000000E+00 -0.41178688899E+03  0.41178688899E+03  0.00000000000E+00 0.  1.
         24    2    1    2    0    0  0.71155115679E+03 -0.18066777183E+03  0.51401073871E+03  0.89986073361E+03  0.81218273088E+02 0.  0.
        254    2    1    2    0    0 -0.71155115679E+03  0.18066777183E+03  0.13284940921E+04  0.17662178752E+04  0.90315177982E+03 0.  0.
         23    2    4    4    0    0 -0.88300817119E+02 -0.32961092996E+03  0.38779158722E+03  0.52436164072E+03  0.90179907360E+02 0.  0.
         23    2    4    4    0    0 -0.62325033967E+03  0.51027870179E+03  0.94070250489E+03  0.12418562345E+04  0.91980242426E+02 0.  0.
          4    1    3    3  502    0  0.34118698913E+02 -0.19234473463E+02  0.47862109212E+02  0.61845226842E+02  0.00000000000E+00 0. -1.
         -3    1    3    3    0  502  0.67743245788E+03 -0.16143329836E+03  0.46614862950E+03  0.83801550677E+03  0.00000000000E+00 0.  1.
         11    1    5    5    0    0 -0.88887901172E+02 -0.29493213147E+03  0.30007160405E+03  0.43003370647E+03  0.00000000000E+00 0. -1.
        -11    1    5    5    0    0  0.58708405343E+00 -0.34678798493E+02  0.87719983169E+02  0.94327934250E+02  0.00000000000E+00 0.  1.
          4    1    6    6  503    0 -0.46856728289E+03  0.40598077764E+03  0.77378680920E+03  0.99152494497E+03  0.00000000000E+00 0. -1.
         -4    1    6    6    0  503 -0.15468305678E+03  0.10429792415E+03  0.16691569569E+03  0.25033128950E+03  0.00000000000E+00 0.  1.
<mgrwt>
<rscale>  0 0.19269538E+04</rscale>
<asrwt>0</asrwt>
<pdfrwt beam="1">  1        2 0.34681410E+00 0.19269538E+04</pdfrwt>
<pdfrwt beam="2">  1       -1 0.63351831E-01 0.19269538E+04</pdfrwt>
<totfact> 0.12941528E+01</totfact>
</mgrwt>
</event>
<event>
12    6  0.1542110E-007  0.1814756E+04  0.7818608E-02  0.8698491E-01
          2   -1    0    0  501    0  0.00000000000E+00  0.00000000000E+00  0.97879231389E+03  0.97879231389E+03  0.00000000000E+00 0. -1.
         -1   -1    0    0    0  501 -0.00000000000E+00 -0.00000000000E+00 -0.84117461343E+03  0.84117461343E+03  0.00000000000E+00 0.  1.
         24    2    1    2    0    0 -0.26508434494E+03  0.52177785020E+01 -0.57857466766E+03  0.64098521941E+03  0.76265787218E+02 0.  0.
        254    2    1    2    0    0  0.26508434494E+03 -0.52177785020E+01  0.71619236812E+03  0.11789817079E+04  0.89820344261E+03 0.  0.
         23    2    4    4    0    0 -0.42989830643E+01  0.31405865943E+03  0.67351005310E+03  0.74859103900E+03  0.90118972602E+02 0.  0.
         23    2    4    4    0    0  0.26938332800E+03 -0.31927643793E+03  0.42682315017E+02  0.43039066892E+03  0.94390289018E+02 0.  0.
          4    1    3    3  502    0 -0.84742903674E+02  0.31925401980E+00 -0.10983934897E+03  0.13873047332E+03  0.00000000000E+00 0. -1.
         -3    1    3    3    0  502 -0.18034144126E+03  0.48985244822E+01 -0.46873531869E+03  0.50225474608E+03  0.00000000000E+00 0.  1.
         11    1    5    5    0    0  0.24001284895E+02  0.28560132954E+03  0.58809564907E+03  0.65421760414E+03  0.00000000000E+00 0. -1.
        -11    1    5    5    0    0 -0.28300267960E+02  0.28457329889E+02  0.85414404032E+02  0.94373434860E+02  0.00000000000E+00 0.  1.
          1    1    6    6  503    0  0.22115451788E+03 -0.26366417250E+03 -0.22644198411E+01  0.34414131434E+03  0.00000000000E+00 0. -1.
         -1    1    6    6    0  503  0.48228810123E+02 -0.55612265427E+02  0.44946734858E+02  0.86249354584E+02  0.00000000000E+00 0.  1.
<mgrwt>
<rscale>  0 0.18147565E+04</rscale>
<asrwt>0</asrwt>
<pdfrwt beam="1">  1        2 0.15058343E+00 0.18147565E+04</pdfrwt>
<pdfrwt beam="2">  1       -1 0.12941148E+00 0.18147565E+04</pdfrwt>
<totfact> 0.14349256E+01</totfact>
</mgrwt>
</event>
<event>
12    6  0.1542110E-007  0.1360813E+04  0.7818608E-02  0.8982683E-01
         -1   -1    0    0    0  501 -0.00000000000E+00  0.00000000000E+00  0.17872178713E+03  0.17872178713E+03  0.00000000000E+00 0.  1.
          2   -1    0    0  501    0  0.00000000000E+00 -0.00000000000E+00 -0.25903561119E+04  0.25903561119E+04  0.00000000000E+00 0. -1.
         24    2    1    2    0    0  0.35240266041E+02  0.37871391496E+03 -0.75881945694E+03  0.85242914257E+03  0.78500758751E+02 0.  0.
        254    2    1    2    0    0 -0.35240266041E+02 -0.37871391496E+03 -0.16528148678E+04  0.19166487565E+04  0.89279301219E+03 0.  0.
         23    2    4    4    0    0 -0.32973356527E+03 -0.30714715646E+02 -0.21373239362E+03  0.40436114469E+03  0.90325973129E+02 0.  0.
         23    2    4    4    0    0  0.29449329923E+03 -0.34799919931E+03 -0.14390824742E+04  0.15122876118E+04  0.90695684450E+02 0.  0.
          2    1    3    3  502    0  0.28003984895E+01  0.11335012838E+03 -0.30920994850E+03  0.32934311301E+03  0.00000000000E+00 0. -1.
         -1    1    3    3    0  502  0.32439867552E+02  0.26536378657E+03 -0.44960950845E+03  0.52308602956E+03  0.00000000000E+00 0.  1.
         11    1    5    5    0    0 -0.31162213469E+03 -0.74839571755E+01 -0.20688239332E+03  0.37411854954E+03  0.00000000000E+00 0. -1.
        -11    1    5    5    0    0 -0.18111430581E+02 -0.23230758470E+02 -0.68500003003E+01  0.30242595142E+02  0.00000000000E+00 0.  1.
          1    1    6    6  503    0  0.23182926894E+03 -0.31707825693E+03 -0.11648376025E+04  0.12292803061E+04  0.00000000000E+00 0. -1.
         -1    1    6    6    0  503  0.62664030295E+02 -0.30920942379E+02 -0.27424487174E+03  0.28300730564E+03  0.00000000000E+00 0.  1.
<mgrwt>
<rscale>  0 0.13608131E+04</rscale>
<asrwt>0</asrwt>
<pdfrwt beam="1">  1        2 0.39851629E+00 0.13608131E+04</pdfrwt>
<pdfrwt beam="2">  1       -1 0.27495662E-01 0.13608131E+04</pdfrwt>
<totfact> 0.40930958E+01</totfact>
</mgrwt>
</event>
<event>
12    6  0.1631322E-007  0.2000731E+04  0.7818608E-02  0.8606279E-01
         -1   -1    0    0    0  501 -0.00000000000E+00  0.00000000000E+00  0.40403176341E+03  0.40403176341E+03  0.00000000000E+00 0.  1.
          2   -1    0    0  501    0  0.00000000000E+00 -0.00000000000E+00 -0.24768615973E+04  0.24768615973E+04  0.00000000000E+00 0. -1.
         24    2    1    2    0    0  0.69229568419E+01 -0.78250585943E+03 -0.70718972386E+03  0.10577979989E+04  0.80348949170E+02 0.  0.
        254    2    1    2    0    0 -0.69229568419E+01  0.78250585943E+03 -0.13656401100E+04  0.18230953618E+04  0.91996763021E+03 0.  0.
         23    2    4    4    0    0 -0.21235039893E+03  0.59693712667E+03 -0.27950060999E+03  0.69855923085E+03  0.91857405226E+02 0.  0.
         23    2    4    4    0    0  0.20542744209E+03  0.18556873275E+03 -0.10861395000E+04  0.11245361309E+04  0.90809182756E+02 0.  0.
          2    1    3    3  502    0 -0.59723581969E+01 -0.10244571869E+03 -0.59777325846E+02  0.11876078067E+03  0.00000000000E+00 0. -1.
         -1    1    3    3    0  502  0.12895315039E+02 -0.68006014074E+03 -0.64741239802E+03  0.93903721826E+03  0.00000000000E+00 0.  1.
         11    1    5    5    0    0 -0.16328299734E+01  0.81249280171E+02 -0.18373606977E+02  0.83316871613E+02  0.00000000000E+00 0. -1.
        -11    1    5    5    0    0 -0.21071756896E+03  0.51568784650E+03 -0.26112700302E+03  0.61524235924E+03  0.00000000000E+00 0.  1.
          1    1    6    6  503    0  0.17089061735E+02  0.47308011906E+02 -0.11210711992E+03  0.12287428681E+03  0.00000000000E+00 0. -1.
         -1    1    6    6    0  503  0.18833838036E+03  0.13826072085E+03 -0.97403238010E+03  0.10016618441E+04  0.00000000000E+00 0.  1.
<mgrwt>
<rscale>  0 0.20007306E+04</rscale>
<asrwt>0</asrwt>
<pdfrwt beam="1">  1        2 0.38105564E+00 0.20007306E+04</pdfrwt>
<pdfrwt beam="2">  1       -1 0.62158732E-01 0.20007306E+04</pdfrwt>
<totfact> 0.99719893E+00</totfact>
</mgrwt>
</event>
<event>
12    6  0.1542110E-007  0.1743564E+04  0.7818608E-02  0.8736901E-01
          2   -1    0    0  501    0  0.00000000000E+00  0.00000000000E+00  0.79373368840E+03  0.79373368840E+03  0.00000000000E+00 0. -1.
         -1   -1    0    0    0  501 -0.00000000000E+00 -0.00000000000E+00 -0.95750493646E+03  0.95750493646E+03  0.00000000000E+00 0.  1.
         24    2    1    2    0    0 -0.70545343567E+02  0.26693618529E+03  0.51550474539E+03  0.59129612254E+03  0.87489367837E+02 0.  0.
        254    2    1    2    0    0  0.70545343567E+02 -0.26693618529E+03 -0.67927599346E+03  0.11599425023E+04  0.89878760610E+03 0.  0.
         23    2    4    4    0    0  0.49003794446E+02  0.32210065528E+03 -0.18198133501E+03  0.38350967769E+03  0.88387004632E+02 0.  0.
         23    2    4    4    0    0  0.21541549122E+02 -0.58903684057E+03 -0.49729465845E+03  0.77643282463E+03  0.90097258286E+02 0.  0.
          2    1    3    3  502    0 -0.67786442674E+02  0.26351349440E+03  0.51878632551E+03  0.58581022105E+03  0.00000000000E+00 0. -1.
         -1    1    3    3    0  502 -0.27589008936E+01  0.34226908905E+01 -0.32815801195E+01  0.54859014896E+01  0.00000000000E+00 0.  1.
         11    1    5    5    0    0  0.61486718977E+02  0.30297629660E+03 -0.18529979335E+03  0.36043205507E+03  0.00000000000E+00 0.  1.
        -11    1    5    5    0    0 -0.12482924531E+02  0.19124358683E+02  0.33184583374E+01  0.23077622616E+02  0.00000000000E+00 0. -1.
          2    1    6    6  503    0  0.29797528590E+02 -0.59381518454E+02 -0.50620992251E+02  0.83525698443E+02  0.00000000000E+00 0. -1.
         -2    1    6    6    0  503 -0.82559794680E+01 -0.52965532212E+03 -0.44667366620E+03  0.69290712619E+03  0.00000000000E+00 0.  1.
<mgrwt>
<rscale>  0 0.17435641E+04</rscale>
<asrwt>0</asrwt>
<pdfrwt beam="1">  1        2 0.12211288E+00 0.17435641E+04</pdfrwt>
<pdfrwt beam="2">  1       -1 0.14730845E+00 0.17435641E+04</pdfrwt>
<totfact> 0.13804476E+01</totfact>
</mgrwt>
</event>
<event>
12    6  0.1542110E-007  0.2157875E+04  0.7818608E-02  0.8536169E-01
         -1   -1    0    0    0  501 -0.00000000000E+00  0.00000000000E+00  0.15901651946E+04  0.15901651946E+04  0.00000000000E+00 0.  1.
          2   -1    0    0  501    0  0.00000000000E+00 -0.00000000000E+00 -0.73206608761E+03  0.73206608761E+03  0.00000000000E+00 0. -1.
         24    2    1    2    0    0  0.64439750498E+03  0.43364111210E+02  0.94376712743E+03  0.11463644351E+04  0.79538900553E+02 0.  0.
        254    2    1    2    0    0 -0.64439750498E+03 -0.43364111210E+02 -0.85668020426E+02  0.11758668471E+04  0.97887447705E+03 0.  0.
         23    2    4    4    0    0 -0.65812936827E+03  0.15617994104E+03 -0.40070345354E+03  0.79162368020E+03  0.92619404174E+02 0.  0.
         23    2    4    4    0    0  0.13731863283E+02 -0.19954405225E+03  0.31503543311E+03  0.38424316690E+03  0.91591999311E+02 0.  0.
          2    1    3    3  502    0  0.29764960462E+03 -0.19574513013E+02  0.43793983570E+03  0.52987710687E+03  0.00000000000E+00 0. -1.
         -1    1    3    3    0  502  0.34674790036E+03  0.62938624223E+02  0.50582729173E+03  0.61648732824E+03  0.00000000000E+00 0.  1.
         11    1    5    5    0    0 -0.99044677852E+02 -0.32495442498E+01 -0.82008744595E+02  0.12863064152E+03  0.00000000000E+00 0. -1.
        -11    1    5    5    0    0 -0.55908469041E+03  0.15942948529E+03 -0.31869470894E+03  0.66299303868E+03  0.00000000000E+00 0.  1.
          1    1    6    6  503    0  0.41532929877E+02 -0.38759114733E+02  0.82972721104E+02  0.10055707676E+03  0.00000000000E+00 0. -1.
         -1    1    6    6    0  503 -0.27801066595E+02 -0.16078493751E+03  0.23206271201E+03  0.28368609014E+03  0.00000000000E+00 0.  1.
<mgrwt>
<rscale>  0 0.21578749E+04</rscale>
<asrwt>0</asrwt>
<pdfrwt beam="1">  1        2 0.11262555E+00 0.21578749E+04</pdfrwt>
<pdfrwt beam="2">  1       -1 0.24464080E+00 0.21578749E+04</pdfrwt>
<totfact> 0.30610344E+00</totfact>
</mgrwt>
</event>
<event>
12    6  0.1542110E-007  0.1604756E+04  0.7818608E-02  0.8817631E-01
          2   -1    0    0  501    0  0.00000000000E+00  0.00000000000E+00  0.14801598342E+04  0.14801598342E+04  0.00000000000E+00 0. -1.
         -1   -1    0    0    0  501 -0.00000000000E+00 -0.00000000000E+00 -0.43496014846E+03  0.43496014846E+03  0.00000000000E+00 0.  1.
         24    2    1    2    0    0  0.34491824242E+03  0.28164451708E+03  0.16049874957E+03  0.48031539406E+03  0.81552444507E+02 0.  0.
        254    2    1    2    0    0 -0.34491824242E+03 -0.28164451708E+03  0.88470093621E+03  0.14348045886E+04  0.10381118596E+04 0.  0.
         23    2    4    4    0    0  0.36081091904E+03 -0.14395429648E+03  0.38386341815E+03  0.55390250664E+03  0.92463529523E+02 0.  0.
         23    2    4    4    0    0 -0.70572916146E+03 -0.13769022060E+03  0.50083751807E+03  0.88090208201E+03  0.90210932822E+02 0.  0.
          2    1    3    3  502    0  0.20878654750E+03  0.14169992782E+03  0.12606051360E+03  0.28206727043E+03  0.00000000000E+00 0. -1.
         -1    1    3    3    0  502  0.13613169492E+03  0.13994458927E+03  0.34438235966E+02  0.19824812363E+03  0.00000000000E+00 0.  1.
         11    1    5    5    0    0  0.12675831107E+03 -0.53100372096E+02  0.20018335822E+03  0.24281823624E+03  0.00000000000E+00 0.  1.
        -11    1    5    5    0    0  0.23405260797E+03 -0.90853924385E+02  0.18368005993E+03  0.31108427040E+03  0.00000000000E+00 0. -1.
          1    1    6    6  503    0 -0.31648760397E+03 -0.55653995316E+02  0.27823944115E+03  0.42506347440E+03  0.00000000000E+00 0. -1.
         -1    1    6    6    0  503 -0.38924155749E+03 -0.82036225284E+02  0.22259807692E+03  0.45583860761E+03  0.00000000000E+00 0.  1.
<mgrwt>
<rscale>  0 0.16047561E+04</rscale>
<asrwt>0</asrwt>
<pdfrwt beam="1">  1        2 0.22771689E+00 0.16047561E+04</pdfrwt>
<pdfrwt beam="2">  1       -1 0.66916947E-01 0.16047561E+04</pdfrwt>
<totfact> 0.32191594E+01</totfact>
</mgrwt>
</event>
<event>
12    6  0.1542110E-007  0.1466552E+04  0.7818608E-02  0.8907005E-01
         -1   -1    0    0    0  501 -0.00000000000E+00  0.00000000000E+00  0.32554276817E+03  0.32554276817E+03  0.00000000000E+00 0.  1.
          2   -1    0    0  501    0  0.00000000000E+00 -0.00000000000E+00 -0.16516835405E+04  0.16516835405E+04  0.00000000000E+00 0. -1.
         24    2    1    2    0    0  0.20332274250E+03 -0.31167463502E+03 -0.63290291501E+02  0.38613634016E+03  0.81328939893E+02 0.  0.
        254    2    1    2    0    0 -0.20332274250E+03  0.31167463502E+03 -0.12628504808E+04  0.15910899685E+04  0.89347341044E+03 0.  0.
         23    2    4    4    0    0  0.19697449253E+02 -0.39608245093E+02 -0.11444862877E+04  0.11490244336E+04  0.91931950636E+02 0.  0.
         23    2    4    4    0    0 -0.22302019175E+03  0.35128288011E+03 -0.11836419305E+03  0.44206553487E+03  0.90962558987E+02 0.  0.
          4    1    3    3  502    0  0.88393617109E+02 -0.75481565978E+02 -0.37816651571E+02  0.12223337304E+03  0.00000000000E+00 0. -1.
         -3    1    3    3    0  502  0.11492912539E+03 -0.23619306904E+03 -0.25473639930E+02  0.26390296713E+03  0.00000000000E+00 0.  1.
         11    1    5    5    0    0 -0.28887019669E+02 -0.33938361866E+02 -0.32002400622E+03  0.32311242141E+03  0.00000000000E+00 0. -1.
        -11    1    5    5    0    0  0.48584468922E+02 -0.56698832272E+01 -0.82446228152E+03  0.82591201216E+03  0.00000000000E+00 0.  1.
          2    1    6    6  503    0 -0.20013209124E+02  0.47776393732E+02 -0.47150423108E+02  0.70044805209E+02  0.00000000000E+00 0. -1.
         -2    1    6    6    0  503 -0.20300698263E+03  0.30350648638E+03 -0.71213769938E+02  0.37202072967E+03  0.00000000000E+00 0.  1.
<mgrwt>
<rscale>  0 0.14665519E+04</rscale>
<asrwt>0</asrwt>
<pdfrwt beam="1">  1        2 0.25410516E+00 0.14665519E+04</pdfrwt>
<pdfrwt beam="2">  1       -1 0.50083503E-01 0.14665519E+04</pdfrwt>
<totfact> 0.46067622E+01</totfact>
</mgrwt>
</event>
<event>
12    6  0.1542110E-007  0.1703810E+04  0.7818608E-02  0.8759195E-01
         -1   -1    0    0    0  501 -0.00000000000E+00  0.00000000000E+00  0.40542245366E+03  0.40542245366E+03  0.00000000000E+00 0.  1.
          2   -1    0    0  501    0  0.00000000000E+00 -0.00000000000E+00 -0.17900880302E+04  0.17900880302E+04  0.00000000000E+00 0. -1.
         24    2    1    2    0    0  0.26245294341E+03 -0.35520457198E+02  0.20446387956E+03  0.34387389265E+03  0.79375850352E+02 0.  0.
        254    2    1    2    0    0 -0.26245294341E+03  0.35520457198E+02 -0.15891294561E+04  0.18516365913E+04  0.91273347003E+03 0.  0.
         23    2    4    4    0    0  0.28658802909E+03 -0.84932568959E+02 -0.92200894871E+03  0.97452215413E+03  0.10122592413E+03 0.  0.
         23    2    4    4    0    0 -0.54904097250E+03  0.12045302616E+03 -0.66712050744E+03  0.87711443713E+03  0.91241675657E+02 0.  0.
          4    1    3    3  502    0  0.20813699613E+01 -0.27293193838E+01  0.26668287607E+02  0.26888266011E+02  0.00000000000E+00 0. -1.
         -3    1    3    3    0  502  0.26037157344E+03 -0.32791137815E+02  0.17779559196E+03  0.31698562664E+03  0.00000000000E+00 0.  1.
         11    1    5    5    0    0  0.24959203329E+03 -0.43340713317E+02 -0.66649036580E+03  0.71301052462E+03  0.00000000000E+00 0. -1.
        -11    1    5    5    0    0  0.36995995796E+02 -0.41591855642E+02 -0.25551858290E+03  0.26151162951E+03  0.00000000000E+00 0.  1.
          1    1    6    6  503    0 -0.48384283108E+03  0.84151791377E+02 -0.61008093367E+03  0.78318845421E+03  0.00000000000E+00 0. -1.
         -1    1    6    6    0  503 -0.65198141421E+02  0.36301234780E+02 -0.57039573768E+02  0.93925982917E+02  0.00000000000E+00 0.  1.
<mgrwt>
<rscale>  0 0.17038097E+04</rscale>
<asrwt>0</asrwt>
<pdfrwt beam="1">  1        2 0.27539816E+00 0.17038097E+04</pdfrwt>
<pdfrwt beam="2">  1       -1 0.62372686E-01 0.17038097E+04</pdfrwt>
<totfact> 0.24686905E+01</totfact>
</mgrwt>
</event>
<event>
12    6  0.1542110E-007  0.1452460E+04  0.7818608E-02  0.8916697E-01
         -1   -1    0    0    0  501 -0.00000000000E+00  0.00000000000E+00  0.22591958507E+03  0.22591958507E+03  0.00000000000E+00 0.  1.
          2   -1    0    0  501    0  0.00000000000E+00 -0.00000000000E+00 -0.23345041338E+04  0.23345041338E+04  0.00000000000E+00 0. -1.
         24    2    1    2    0    0  0.26630588656E+03  0.12402596403E+03 -0.12565920779E+04  0.12929725641E+04  0.80331414876E+02 0.  0.
        254    2    1    2    0    0 -0.26630588656E+03 -0.12402596403E+03 -0.85199247075E+03  0.12674511547E+04  0.89120143313E+03 0.  0.
         23    2    4    4    0    0  0.17026965532E+03 -0.87564018876E+02 -0.78690765819E+03  0.81501611523E+03  0.91478919111E+02 0.  0.
         23    2    4    4    0    0 -0.43657554188E+03 -0.36461945157E+02 -0.65084812561E+02  0.45243503949E+03  0.92378324955E+02 0.  0.
          2    1    3    3  502    0  0.10966692530E+03  0.76937355450E+02 -0.70607718041E+03  0.71867320519E+03  0.00000000000E+00 0. -1.
         -1    1    3    3    0  502  0.15663896126E+03  0.47088608583E+02 -0.55051489753E+03  0.57429935891E+03  0.00000000000E+00 0.  1.
         11    1    5    5    0    0  0.80851918518E+02 -0.71154829338E+01 -0.19872369845E+03  0.21465966354E+03  0.00000000000E+00 0.  1.
        -11    1    5    5    0    0  0.89417736801E+02 -0.80448535942E+02 -0.58818395975E+03  0.60035645170E+03  0.00000000000E+00 0. -1.
          4    1    6    6  503    0 -0.76415880889E+02 -0.17046203054E+02 -0.46959963596E+02  0.91297305938E+02  0.00000000000E+00 0.  1.
         -4    1    6    6    0  503 -0.36015966099E+03 -0.19415742103E+02 -0.18124848965E+02  0.36113773355E+03  0.00000000000E+00 0. -1.
<mgrwt>
<rscale>  0 0.14524603E+04</rscale>
<asrwt>0</asrwt>
<pdfrwt beam="1">  1        2 0.35915448E+00 0.14524603E+04</pdfrwt>
<pdfrwt beam="2">  1       -1 0.34756860E-01 0.14524603E+04</pdfrwt>
<totfact> 0.37677927E+01</totfact>
</mgrwt>
</event>
<event>
12    6  0.1542110E-007  0.1338891E+04  0.7818608E-02  0.8999280E-01
          2   -1    0    0  501    0  0.00000000000E+00  0.00000000000E+00  0.21651253115E+04  0.21651253115E+04  0.00000000000E+00 0. -1.
         -1   -1    0    0    0  501 -0.00000000000E+00 -0.00000000000E+00 -0.20698917770E+03  0.20698917770E+03  0.00000000000E+00 0.  1.
         24    2    1    2    0    0  0.30772649575E+03 -0.88564136288E+02  0.82380164453E+03  0.88658627788E+03  0.69619509946E+02 0.  0.
        254    2    1    2    0    0 -0.30772649575E+03  0.88564136288E+02  0.11343344892E+04  0.14855282113E+04  0.90417925803E+03 0.  0.
         23    2    4    4    0    0 -0.10457296904E+03  0.22838566397E+03 -0.50671696809E+02  0.27198167021E+03  0.91164086740E+02 0.  0.
         23    2    4    4    0    0 -0.20315352671E+03 -0.13982152768E+03  0.11850061860E+04  0.12135465411E+04  0.87373516492E+02 0.  0.
          2    1    3    3  502    0  0.11795352805E+03 -0.33278646485E+02  0.22799874958E+03  0.25885117906E+03  0.00000000000E+00 0. -1.
         -1    1    3    3    0  502  0.18977296770E+03 -0.55285489803E+02  0.59580289496E+03  0.62773509882E+03  0.00000000000E+00 0.  1.
         11    1    5    5    0    0 -0.11199408260E+02  0.12143465615E+03 -0.44687233371E+02  0.12987975703E+03  0.00000000000E+00 0. -1.
        -11    1    5    5    0    0 -0.93373560782E+02  0.10695100782E+03 -0.59844634377E+01  0.14210191318E+03  0.00000000000E+00 0.  1.
          4    1    6    6  503    0 -0.80260625644E+02 -0.68217709735E+01  0.36118042049E+03  0.37005351064E+03  0.00000000000E+00 0. -1.
         -4    1    6    6    0  503 -0.12289290106E+03 -0.13299975671E+03  0.82382576555E+03  0.84349303044E+03  0.00000000000E+00 0.  1.
<mgrwt>
<rscale>  0 0.13388913E+04</rscale>
<asrwt>0</asrwt>
<pdfrwt beam="1">  1        2 0.33309619E+00 0.13388913E+04</pdfrwt>
<pdfrwt beam="2">  1       -1 0.31844490E-01 0.13388913E+04</pdfrwt>
<totfact> 0.55335462E+01</totfact>
</mgrwt>
</event>
<event>
12    6  0.1542110E-007  0.1464570E+04  0.7818608E-02  0.8908361E-01
         -1   -1    0    0    0  501 -0.00000000000E+00  0.00000000000E+00  0.33516514423E+03  0.33516514423E+03  0.00000000000E+00 0.  1.
          2   -1    0    0  501    0  0.00000000000E+00 -0.00000000000E+00 -0.15999321873E+04  0.15999321873E+04  0.00000000000E+00 0. -1.
         24    2    1    2    0    0  0.18640302524E+03  0.39093283808E+03 -0.69851398575E+03  0.82566630191E+03  0.78920733085E+02 0.  0.
        254    2    1    2    0    0 -0.18640302524E+03 -0.39093283808E+03 -0.56625305736E+03  0.11094310297E+04  0.85007065170E+03 0.  0.
         23    2    4    4    0    0 -0.16659401429E+03  0.21921581479E+03 -0.28456962384E+02  0.29093930923E+03  0.89592097283E+02 0.  0.
         23    2    4    4    0    0 -0.19809010950E+02 -0.61014865287E+03 -0.53779609498E+03  0.81849172043E+03  0.89611835849E+02 0.  0.
          2    1    3    3  502    0  0.14703238294E+03  0.28188028628E+03 -0.56933684810E+03  0.65208854002E+03  0.00000000000E+00 0. -1.
         -1    1    3    3    0  502  0.39370642299E+02  0.10905255181E+03 -0.12917713766E+03  0.17357776189E+03  0.00000000000E+00 0.  1.
         11    1    5    5    0    0 -0.35938642125E+02  0.11372975830E+03 -0.30083709331E+02  0.12300842852E+03  0.00000000000E+00 0. -1.
        -11    1    5    5    0    0 -0.13065537216E+03  0.10548605649E+03  0.16267469465E+01  0.16793088071E+03  0.00000000000E+00 0.  1.
          1    1    6    6  503    0 -0.91935243480E+01 -0.32538951168E+01 -0.56808257677E+01  0.11286297213E+02  0.00000000000E+00 0. -1.
         -1    1    6    6    0  503 -0.10615486602E+02 -0.60689475775E+03 -0.53211526921E+03  0.80720542322E+03  0.00000000000E+00 0.  1.
<mgrwt>
<rscale>  0 0.14645702E+04</rscale>
<asrwt>0</asrwt>
<pdfrwt beam="1">  1        2 0.24614341E+00 0.14645702E+04</pdfrwt>
<pdfrwt beam="2">  1       -1 0.51563870E-01 0.14645702E+04</pdfrwt>
<totfact> 0.46580156E+01</totfact>
</mgrwt>
</event>
<event>
12    6  0.1542110E-007  0.1842557E+04  0.7818608E-02  0.8683990E-01
          2   -1    0    0  501    0  0.00000000000E+00  0.00000000000E+00  0.85544861588E+03  0.85544861588E+03  0.00000000000E+00 0. -1.
         -1   -1    0    0    0  501 -0.00000000000E+00 -0.00000000000E+00 -0.99217423830E+03  0.99217423830E+03  0.00000000000E+00 0.  1.
         24    2    1    2    0    0 -0.69989045257E+03  0.69154750933E+01 -0.49994116402E+02  0.70629148119E+03  0.80335392831E+02 0.  0.
        254    2    1    2    0    0  0.69989045257E+03 -0.69154750933E+01 -0.86731506014E+02  0.11413313730E+04  0.89734078223E+03 0.  0.
         23    2    4    4    0    0  0.46995084541E+03  0.41154662313E+03  0.63256339599E+02  0.63458113548E+03  0.92018655169E+02 0.  0.
         23    2    4    4    0    0  0.22993960716E+03 -0.41846209822E+03 -0.14998784561E+03  0.50675023751E+03  0.79477662252E+02 0.  0.
          4    1    3    3  502    0 -0.27349151497E+03 -0.19492287668E+02  0.12807735412E+02  0.27448423657E+03  0.00000000000E+00 0. -1.
         -3    1    3    3    0  502 -0.42639893760E+03  0.26407762761E+02 -0.62801851814E+02  0.43180724462E+03  0.00000000000E+00 0.  1.
         11    1    5    5    0    0  0.49177886820E+02  0.74737621485E+02  0.30852823047E+02  0.94636532625E+02  0.00000000000E+00 0.  1.
        -11    1    5    5    0    0  0.42077295859E+03  0.33680900164E+03  0.32403516552E+02  0.53994460285E+03  0.00000000000E+00 0. -1.
          3    1    6    6  503    0  0.22913889078E+03 -0.42155015886E+03 -0.14575843401E+03  0.50145257880E+03  0.00000000000E+00 0. -1.
         -3    1    6    6    0  503  0.80071638057E+00  0.30880606412E+01 -0.42294116058E+01  0.52976587072E+01  0.00000000000E+00 0.  1.
<mgrwt>
<rscale>  0 0.18425570E+04</rscale>
<asrwt>0</asrwt>
<pdfrwt beam="1">  1        2 0.13160748E+00 0.18425570E+04</pdfrwt>
<pdfrwt beam="2">  1       -1 0.15264219E+00 0.18425570E+04</pdfrwt>
<totfact> 0.11242669E+01</totfact>
</mgrwt>
</event>
<event>
12    6  0.1542110E-007  0.1273439E+04  0.7818608E-02  0.9050898E-01
         -1   -1    0    0    0  501 -0.00000000000E+00  0.00000000000E+00  0.31292616234E+03  0.31292616234E+03  0.00000000000E+00 0.  1.
          2   -1    0    0  501    0  0.00000000000E+00 -0.00000000000E+00 -0.12955504584E+04  0.12955504584E+04  0.00000000000E+00 0. -1.
         24    2    1    2    0    0  0.18306180361E+03 -0.21457688605E+03 -0.86001704010E+02  0.30534775803E+03  0.79284905715E+02 0.  0.
        254    2    1    2    0    0 -0.18306180361E+03  0.21457688605E+03 -0.89662259203E+03  0.13031288627E+04  0.90258401062E+03 0.  0.
         23    2    4    4    0    0  0.19324452169E+03 -0.16093560897E+02 -0.81855217088E+03  0.84585141170E+03  0.88512746879E+02 0.  0.
         23    2    4    4    0    0 -0.37630632531E+03  0.23067044695E+03 -0.78070421156E+02  0.45727745098E+03  0.90511717213E+02 0.  0.
          2    1    3    3  502    0  0.44481165512E+02 -0.54734929307E+02  0.13096902195E+02  0.71735733207E+02  0.00000000000E+00 0. -1.
         -1    1    3    3    0  502  0.13858063810E+03 -0.15984195675E+03 -0.99098606205E+02  0.23361202483E+03  0.00000000000E+00 0.  1.
         11    1    5    5    0    0  0.15221735369E+03 -0.35307927590E+02 -0.72821213416E+03  0.74478834903E+03  0.00000000000E+00 0. -1.
        -11    1    5    5    0    0  0.41027168007E+02  0.19214366693E+02 -0.90340036721E+02  0.10106306267E+03  0.00000000000E+00 0.  1.
          3    1    6    6  503    0 -0.26046645122E+03  0.16049747021E+03 -0.10998224660E+02  0.30614240331E+03  0.00000000000E+00 0. -1.
         -3    1    6    6    0  503 -0.11583987408E+03  0.70172976737E+02 -0.67072196496E+02  0.15113504767E+03  0.00000000000E+00 0.  1.
<mgrwt>
<rscale>  0 0.12734389E+04</rscale>
<asrwt>0</asrwt>
<pdfrwt beam="1">  1        2 0.19931546E+00 0.12734389E+04</pdfrwt>
<pdfrwt beam="2">  1       -1 0.48142486E-01 0.12734389E+04</pdfrwt>
<totfact> 0.80262805E+01</totfact>
</mgrwt>
</event>
<event>
12    6  0.1542110E-007  0.3521888E+04  0.7818608E-02  0.8108622E-01
         -1   -1    0    0    0  501 -0.00000000000E+00  0.00000000000E+00  0.17142920179E+04  0.17142920179E+04  0.00000000000E+00 0.  1.
          2   -1    0    0  501    0  0.00000000000E+00 -0.00000000000E+00 -0.18088659555E+04  0.18088659555E+04  0.00000000000E+00 0. -1.
         24    2    1    2    0    0  0.68022007716E+02 -0.12591141916E+04 -0.10993735546E+04  0.16756665431E+04  0.96128091928E+02 0.  0.
        254    2    1    2    0    0 -0.68022007716E+02  0.12591141916E+04  0.10047996170E+04  0.18474914304E+04  0.90200153760E+03 0.  0.
         23    2    4    4    0    0  0.23314914713E+03  0.11122391127E+04  0.97256615006E+03  0.14985821614E+04  0.91810727524E+02 0.  0.
         23    2    4    4    0    0 -0.30117115485E+03  0.14687507896E+03  0.32233466948E+02  0.34890926895E+03  0.91773243583E+02 0.  0.
          4    1    3    3  502    0  0.74603705645E+02 -0.96303368456E+03 -0.88521776477E+03  0.13101946732E+04  0.00000000000E+00 0. -1.
         -3    1    3    3    0  502 -0.65816979289E+01 -0.29608050707E+03 -0.21415578982E+03  0.36547186996E+03  0.00000000000E+00 0.  1.
         11    1    5    5    0    0  0.21498994651E+03  0.98627807404E+03  0.82471509656E+03  0.13035030138E+04  0.00000000000E+00 0. -1.
        -11    1    5    5    0    0  0.18159200627E+02  0.12596103863E+03  0.14785105350E+03  0.19507914763E+03  0.00000000000E+00 0.  1.
          4    1    6    6  503    0 -0.17994832960E+03  0.77134982685E+02  0.63081746341E+02  0.20569519586E+03  0.00000000000E+00 0. -1.
         -4    1    6    6    0  503 -0.12122282525E+03  0.69740096270E+02 -0.30848279394E+02  0.14321407309E+03  0.00000000000E+00 0.  1.
<mgrwt>
<rscale>  0 0.35218884E+04</rscale>
<asrwt>0</asrwt>
<pdfrwt beam="1">  1        2 0.27828707E+00 0.35218884E+04</pdfrwt>
<pdfrwt beam="2">  1       -1 0.26373723E+00 0.35218884E+04</pdfrwt>
<totfact> 0.45180901E-01</totfact>
</mgrwt>
</event>
<event>
12    6  0.1542110E-007  0.2564466E+04  0.7818608E-02  0.8380373E-01
         -1   -1    0    0    0  501 -0.00000000000E+00  0.00000000000E+00  0.11754288885E+04  0.11754288885E+04  0.00000000000E+00 0.  1.
          2   -1    0    0  501    0  0.00000000000E+00 -0.00000000000E+00 -0.13987414351E+04  0.13987414351E+04  0.00000000000E+00 0. -1.
         24    2    1    2    0    0  0.54382358765E+03  0.97756158498E+03  0.38475615015E+02  0.11221358675E+04  0.79610207912E+02 0.  0.
        254    2    1    2    0    0 -0.54382358765E+03 -0.97756158498E+03 -0.26178816156E+03  0.14520344562E+04  0.88797537884E+03 0.  0.
         23    2    4    4    0    0 -0.73327187618E+02 -0.67685997029E+03  0.20700153977E+03  0.71752654448E+03  0.92078275067E+02 0.  0.
         23    2    4    4    0    0 -0.47049640004E+03 -0.30070161469E+03 -0.46878970133E+03  0.73450791168E+03  0.89161453154E+02 0.  0.
          4    1    3    3  502    0  0.53385335709E+03  0.94614489170E+03  0.49187130838E+02  0.10874782466E+04  0.00000000000E+00 0. -1.
         -3    1    3    3    0  502  0.99702305656E+01  0.31416693279E+02 -0.10711515823E+02  0.34657620884E+02  0.00000000000E+00 0.  1.
         11    1    5    5    0    0  0.85376275162E+01 -0.14740611030E+03  0.14991570576E+02  0.14841226238E+03  0.00000000000E+00 0. -1.
        -11    1    5    5    0    0 -0.81864815134E+02 -0.52945385999E+03  0.19200996920E+03  0.56911428210E+03  0.00000000000E+00 0.  1.
          2    1    6    6  503    0 -0.51624293028E+02 -0.31487591577E+02 -0.18667594086E+02  0.63285188812E+02  0.00000000000E+00 0. -1.
         -2    1    6    6    0  503 -0.41887210701E+03 -0.26921402312E+03 -0.45012210724E+03  0.67122272287E+03  0.00000000000E+00 0.  1.
<mgrwt>
<rscale>  0 0.25644657E+04</rscale>
<asrwt>0</asrwt>
<pdfrwt beam="1">  1        2 0.21519099E+00 0.25644657E+04</pdfrwt>
<pdfrwt beam="2">  1       -1 0.18083521E+00 0.25644657E+04</pdfrwt>
<totfact> 0.30068706E+00</totfact>
</mgrwt>
</event>
<event>
12    6  0.1542110E-007  0.1648822E+04  0.7818608E-02  0.8791104E-01
          2   -1    0    0  501    0  0.00000000000E+00  0.00000000000E+00  0.23431010825E+04  0.23431010825E+04  0.00000000000E+00 0. -1.
         -1   -1    0    0    0  501 -0.00000000000E+00 -0.00000000000E+00 -0.29006567162E+03  0.29006567162E+03  0.00000000000E+00 0.  1.
         24    2    1    2    0    0  0.47607136649E+03  0.31728661502E+03  0.65102282417E+03  0.87030418793E+03  0.79271179376E+02 0.  0.
        254    2    1    2    0    0 -0.47607136649E+03 -0.31728661502E+03  0.14020125867E+04  0.17628625662E+04  0.90262416979E+03 0.  0.
         23    2    4    4    0    0 -0.51444048545E+03 -0.44914668808E+03  0.14362131435E+04  0.15932139165E+04  0.96128194857E+02 0.  0.
         23    2    4    4    0    0  0.38369118964E+02  0.13186007306E+03 -0.34200556774E+02  0.16964864965E+03  0.93550617780E+02 0.  0.
          2    1    3    3  502    0  0.39964881358E+03  0.29025327198E+03  0.58592468860E+03  0.76633796513E+03  0.00000000000E+00 0. -1.
         -1    1    3    3    0  502  0.76422552905E+02  0.27033343046E+02  0.65098135574E+02  0.10396622280E+03  0.00000000000E+00 0.  1.
         11    1    5    5    0    0 -0.17303846190E+03 -0.21091061702E+03  0.53809308170E+03  0.60329906534E+03  0.00000000000E+00 0. -1.
        -11    1    5    5    0    0 -0.34140202355E+03 -0.23823607106E+03  0.89812006177E+03  0.98991485118E+03  0.00000000000E+00 0.  1.
          1    1    6    6  503    0 -0.16519305148E+01  0.57253809815E+02  0.28806489863E+02  0.64113504591E+02  0.00000000000E+00 0. -1.
         -1    1    6    6    0  503  0.40021049479E+02  0.74606263243E+02 -0.63007046636E+02  0.10553514506E+03  0.00000000000E+00 0.  1.
<mgrwt>
<rscale>  0 0.16488216E+04</rscale>
<asrwt>0</asrwt>
<pdfrwt beam="1">  1        2 0.36047708E+00 0.16488216E+04</pdfrwt>
<pdfrwt beam="2">  1       -1 0.44625489E-01 0.16488216E+04</pdfrwt>
<totfact> 0.23216094E+01</totfact>
</mgrwt>
</event>
<event>
12    6  0.1542110E-007  0.1301648E+04  0.7818608E-02  0.9028260E-01
         -1   -1    0    0    0  501 -0.00000000000E+00  0.00000000000E+00  0.48225646982E+03  0.48225646982E+03  0.00000000000E+00 0.  1.
          2   -1    0    0  501    0  0.00000000000E+00 -0.00000000000E+00 -0.87831203993E+03  0.87831203993E+03  0.00000000000E+00 0. -1.
         24    2    1    2    0    0 -0.16912574966E+03 -0.42686037776E+02 -0.38305456355E+03  0.42854626181E+03  0.80594558341E+02 0.  0.
        254    2    1    2    0    0  0.16912574966E+03  0.42686037776E+02 -0.13001006568E+02  0.93202224794E+03  0.91546208412E+03 0.  0.
         23    2    4    4    0    0  0.31244613848E+03 -0.25844500588E+03 -0.27359884596E+03  0.49903659375E+03  0.98816915962E+02 0.  0.
         23    2    4    4    0    0 -0.14332038882E+03  0.30113104366E+03  0.26059783939E+03  0.43298565419E+03  0.91349348835E+02 0.  0.
          2    1    3    3  502    0 -0.17218389013E+03 -0.43230269728E+02 -0.38561716815E+03  0.42451943255E+03  0.00000000000E+00 0. -1.
         -1    1    3    3    0  502  0.30581404691E+01  0.54423195169E+00  0.25626045993E+01  0.40268292586E+01  0.00000000000E+00 0.  1.
         11    1    5    5    0    0  0.27575389797E+03 -0.18980658082E+03 -0.19045686617E+03  0.38515005937E+03  0.00000000000E+00 0. -1.
        -11    1    5    5    0    0  0.36692240509E+02 -0.68638425064E+02 -0.83141979794E+02  0.11388653438E+03  0.00000000000E+00 0.  1.
          2    1    6    6  503    0 -0.10652171403E+03  0.22726080442E+03  0.24143782329E+03  0.34826221630E+03  0.00000000000E+00 0. -1.
         -2    1    6    6    0  503 -0.36798674788E+02  0.73870239238E+02  0.19160016103E+02  0.84723437892E+02  0.00000000000E+00 0.  1.
<mgrwt>
<rscale>  0 0.13016477E+04</rscale>
<asrwt>0</asrwt>
<pdfrwt beam="1">  1        2 0.13512493E+00 0.13016477E+04</pdfrwt>
<pdfrwt beam="2">  1       -1 0.74193304E-01 0.13016477E+04</pdfrwt>
<totfact> 0.62079299E+01</totfact>
</mgrwt>
</event>
<event>
12    6  0.1542110E-007  0.2113742E+04  0.7818608E-02  0.8555214E-01
         -1   -1    0    0    0  501 -0.00000000000E+00  0.00000000000E+00  0.15623015348E+04  0.15623015348E+04  0.00000000000E+00 0.  1.
          2   -1    0    0  501    0  0.00000000000E+00 -0.00000000000E+00 -0.71495576072E+03  0.71495576072E+03  0.00000000000E+00 0. -1.
         24    2    1    2    0    0  0.12956318620E+03 -0.67310681005E+03  0.90796555951E+03  0.11404912183E+04  0.80370174252E+02 0.  0.
        254    2    1    2    0    0 -0.12956318620E+03  0.67310681005E+03 -0.60619785418E+02  0.11367660772E+04  0.90482205925E+03 0.  0.
         23    2    4    4    0    0 -0.65420997527E+02 -0.16505638099E+03  0.16765096204E+03  0.26084764356E+03  0.91712225207E+02 0.  0.
         23    2    4    4    0    0 -0.64142188672E+02  0.83816319104E+03 -0.22827074746E+03  0.87591843363E+03  0.92161884961E+02 0.  0.
          4    1    3    3  502    0 -0.74576719556E+01 -0.11422973249E+03  0.16245745612E+03  0.19873719758E+03  0.00000000000E+00 0. -1.
         -3    1    3    3    0  502  0.13702085816E+03 -0.55887707756E+03  0.74550810339E+03  0.94175402076E+03  0.00000000000E+00 0.  1.
         11    1    5    5    0    0  0.31649894801E+01 -0.10662832463E+02  0.58873514405E+02  0.59914971860E+02  0.00000000000E+00 0. -1.
        -11    1    5    5    0    0 -0.68585987007E+02 -0.15439354853E+03  0.10877744764E+03  0.20093267170E+03  0.00000000000E+00 0.  1.
          1    1    6    6  503    0 -0.24572324451E+02  0.79338518197E+02 -0.44201048913E+02  0.94085771101E+02  0.00000000000E+00 0. -1.
         -1    1    6    6    0  503 -0.39569864222E+02  0.75882467284E+03 -0.18406969855E+03  0.78183266253E+03  0.00000000000E+00 0.  1.
<mgrwt>
<rscale>  0 0.21137422E+04</rscale>
<asrwt>0</asrwt>
<pdfrwt beam="1">  1        2 0.10999319E+00 0.21137422E+04</pdfrwt>
<pdfrwt beam="2">  1       -1 0.24035408E+00 0.21137422E+04</pdfrwt>
<totfact> 0.33789585E+00</totfact>
</mgrwt>
</event>
<event>
12    6  0.1542110E-007  0.2721777E+04  0.7818608E-02  0.8327974E-01
         -1   -1    0    0    0  501 -0.00000000000E+00  0.00000000000E+00  0.19736641443E+04  0.19736641443E+04  0.00000000000E+00 0.  1.
          2   -1    0    0  501    0  0.00000000000E+00 -0.00000000000E+00 -0.93836478450E+03  0.93836478450E+03  0.00000000000E+00 0. -1.
         24    2    1    2    0    0 -0.33178353510E+03  0.75973706948E+03 -0.46929731308E+03  0.95724877507E+03  0.93832405975E+02 0.  0.
        254    2    1    2    0    0  0.33178353510E+03 -0.75973706948E+03  0.15045966729E+04  0.19547801537E+04  0.93277734343E+03 0.  0.
         23    2    4    4    0    0  0.41742331756E+03 -0.37846220798E+03  0.14388698069E+04  0.15480282979E+04  0.92571167706E+02 0.  0.
         23    2    4    4    0    0 -0.85639782463E+02 -0.38127486150E+03  0.65726865968E+02  0.40675185577E+03  0.91773410713E+02 0.  0.
          4    1    3    3  502    0 -0.16966090915E+03  0.42224800251E+03 -0.20591241911E+03  0.49947785142E+03  0.00000000000E+00 0. -1.
         -3    1    3    3    0  502 -0.16212262595E+03  0.33748906697E+03 -0.26338489398E+03  0.45777092366E+03  0.00000000000E+00 0.  1.
         11    1    5    5    0    0  0.39442730253E+02 -0.12327522704E+02  0.67337161179E+02  0.79006265963E+02  0.00000000000E+00 0. -1.
        -11    1    5    5    0    0  0.37798058731E+03 -0.36613468528E+03  0.13715326457E+04  0.14690220320E+04  0.00000000000E+00 0.  1.
          2    1    6    6  503    0  0.18598380045E+02 -0.66049035333E+02  0.18067856656E+01  0.68641381711E+02  0.00000000000E+00 0. -1.
         -2    1    6    6    0  503 -0.10423816251E+03 -0.31522582616E+03  0.63920080303E+02  0.33811047406E+03  0.00000000000E+00 0.  1.
<mgrwt>
<rscale>  0 0.27217766E+04</rscale>
<asrwt>0</asrwt>
<pdfrwt beam="1">  1        2 0.14436381E+00 0.27217766E+04</pdfrwt>
<pdfrwt beam="2">  1       -1 0.30364064E+00 0.27217766E+04</pdfrwt>
<totfact> 0.86287127E-01</totfact>
</mgrwt>
</event>
<event>
12    6  0.1542110E-007  0.2070109E+04  0.7818608E-02  0.8574526E-01
          2   -1    0    0  501    0  0.00000000000E+00  0.00000000000E+00  0.76412966594E+03  0.76412966594E+03  0.00000000000E+00 0. -1.
         -1   -1    0    0    0  501 -0.00000000000E+00 -0.00000000000E+00 -0.14020366552E+04  0.14020366552E+04  0.00000000000E+00 0.  1.
         24    2    1    2    0    0  0.71310114970E+03 -0.63103420979E+02  0.19416052692E+03  0.74578982311E+03  0.77516827817E+02 0.  0.
        254    2    1    2    0    0 -0.71310114970E+03  0.63103420979E+02 -0.83206751620E+03  0.14203764981E+04  0.90146422740E+03 0.  0.
         23    2    4    4    0    0  0.15832196025E+03 -0.13893845998E+03 -0.29330308148E+03  0.37205309295E+03  0.89593903855E+02 0.  0.
         23    2    4    4    0    0 -0.87142310995E+03  0.20204188096E+03 -0.53876443471E+03  0.10483234051E+04  0.92280481983E+02 0.  0.
          2    1    3    3  502    0  0.56262339365E+03 -0.17771861511E+02  0.15010022013E+03  0.58257274072E+03  0.00000000000E+00 0. -1.
         -1    1    3    3    0  502  0.15047775605E+03 -0.45331559469E+02  0.44060306789E+02  0.16321708239E+03  0.00000000000E+00 0.  1.
         11    1    5    5    0    0  0.55958618615E+02 -0.98110376404E+02 -0.10692853545E+03  0.15553367689E+03  0.00000000000E+00 0.  1.
        -11    1    5    5    0    0  0.10236334164E+03 -0.40828083573E+02 -0.18637454604E+03  0.21651941606E+03  0.00000000000E+00 0. -1.
          1    1    6    6  503    0 -0.77055775876E+03  0.15518213421E+03 -0.44774969937E+03  0.90461071608E+03  0.00000000000E+00 0. -1.
         -1    1    6    6    0  503 -0.10086535119E+03  0.46859746743E+02 -0.91014735346E+02  0.14371268902E+03  0.00000000000E+00 0.  1.
<mgrwt>
<rscale>  0 0.20701090E+04</rscale>
<asrwt>0</asrwt>
<pdfrwt beam="1">  1        2 0.11755841E+00 0.20701090E+04</pdfrwt>
<pdfrwt beam="2">  1       -1 0.21569794E+00 0.20701090E+04</pdfrwt>
<totfact> 0.45383058E+00</totfact>
</mgrwt>
</event>
<event>
12    6  0.1542110E-007  0.3095590E+04  0.7818608E-02  0.8216949E-01
          2   -1    0    0  501    0  0.00000000000E+00  0.00000000000E+00  0.15427536279E+04  0.15427536279E+04  0.00000000000E+00 0. -1.
         -1   -1    0    0    0  501 -0.00000000000E+00 -0.00000000000E+00 -0.15528525756E+04  0.15528525756E+04  0.00000000000E+00 0.  1.
         24    2    1    2    0    0  0.43622332971E+03 -0.25443383061E+03 -0.13302169131E+04  0.14250708305E+04  0.79513952138E+02 0.  0.
        254    2    1    2    0    0 -0.43622332971E+03  0.25443383061E+03  0.13201179654E+04  0.16705353729E+04  0.89047718788E+03 0.  0.
         23    2    4    4    0    0 -0.14189533298E+02  0.13291212858E+03 -0.93251504383E+02  0.18772955418E+03  0.93164186582E+02 0.  0.
         23    2    4    4    0    0 -0.42203379641E+03  0.12152170203E+03  0.14133694698E+04  0.14828058188E+04  0.90663050229E+02 0.  0.
          4    1    3    3  502    0  0.43547506302E+02 -0.53755624090E+02 -0.21386159840E+03  0.22477285356E+03  0.00000000000E+00 0. -1.
         -3    1    3    3    0  502  0.39267582341E+03 -0.20067820652E+03 -0.11163553147E+04  0.12002979769E+04  0.00000000000E+00 0.  1.
         11    1    5    5    0    0  0.21807411562E+02  0.28728536688E+02  0.92214418880E+01  0.37228040638E+02  0.00000000000E+00 0.  1.
        -11    1    5    5    0    0 -0.35996944860E+02  0.10418359190E+03 -0.10247294627E+03  0.15050151354E+03  0.00000000000E+00 0. -1.
          3    1    6    6  503    0 -0.37479786720E+03  0.90904920860E+02  0.13034927722E+04  0.13593493124E+04  0.00000000000E+00 0. -1.
         -3    1    6    6    0  503 -0.47235929213E+02  0.30616781169E+02  0.10987669761E+03  0.12345650641E+03  0.00000000000E+00 0.  1.
<mgrwt>
<rscale>  0 0.30955897E+04</rscale>
<asrwt>0</asrwt>
<pdfrwt beam="1">  1        2 0.23734671E+00 0.30955897E+04</pdfrwt>
<pdfrwt beam="2">  1       -1 0.23890040E+00 0.30955897E+04</pdfrwt>
<totfact> 0.95720656E-01</totfact>
</mgrwt>
</event>
<event>
12    6  0.1542110E-007  0.1232746E+04  0.7818608E-02  0.9084667E-01
         -1   -1    0    0    0  501 -0.00000000000E+00  0.00000000000E+00  0.10142526475E+03  0.10142526475E+03  0.00000000000E+00 0.  1.
          2   -1    0    0  501    0  0.00000000000E+00 -0.00000000000E+00 -0.37457726190E+04  0.37457726190E+04  0.00000000000E+00 0. -1.
         24    2    1    2    0    0 -0.16652405500E+03 -0.99467151681E+01 -0.17078134086E+04  0.17178588674E+04  0.81137239310E+02 0.  0.
        254    2    1    2    0    0  0.16652405500E+03  0.99467151681E+01 -0.19365339456E+04  0.21293390163E+04  0.86953535061E+03 0.  0.
         23    2    4    4    0    0  0.10106673046E+03  0.65676206311E+02  0.35636582489E+02  0.15326085195E+03  0.87698772209E+02 0.  0.
         23    2    4    4    0    0  0.65457324541E+02 -0.55729491143E+02 -0.19721705281E+04  0.19760781644E+04  0.89654237790E+02 0.  0.
          2    1    3    3  502    0 -0.11293275521E+03  0.17729263424E+02 -0.13651138769E+04  0.13698919778E+04  0.00000000000E+00 0. -1.
         -1    1    3    3    0  502 -0.53591299797E+02 -0.27675978592E+02 -0.34269953171E+03  0.34796688958E+03  0.00000000000E+00 0.  1.
         11    1    5    5    0    0 -0.71904535996E+01 -0.12245466256E+02 -0.27464673885E+01  0.14463649260E+02  0.00000000000E+00 0.  1.
        -11    1    5    5    0    0  0.10825718406E+03  0.77921672567E+02  0.38383049877E+02  0.13879720269E+03  0.00000000000E+00 0. -1.
          1    1    6    6  503    0  0.81060095785E+01 -0.65022388951E+02 -0.11404343638E+04  0.11423152615E+04  0.00000000000E+00 0. -1.
         -1    1    6    6    0  503  0.57351314962E+02  0.92928978082E+01 -0.83173616427E+03  0.83376290289E+03  0.00000000000E+00 0.  1.
<mgrwt>
<rscale>  0 0.12327465E+04</rscale>
<asrwt>0</asrwt>
<pdfrwt beam="1">  1        2 0.57627261E+00 0.12327465E+04</pdfrwt>
<pdfrwt beam="2">  1       -1 0.15603890E-01 0.12327465E+04</pdfrwt>
<totfact> 0.19246171E+01</totfact>
</mgrwt>
</event>
<event>
12    6  0.1967561E-007  0.1468317E+04  0.7818608E-02  0.8905799E-01
          2   -1    0    0  501    0  0.00000000000E+00  0.00000000000E+00  0.12385917960E+04  0.12385917960E+04  0.00000000000E+00 0. -1.
         -1   -1    0    0    0  501 -0.00000000000E+00 -0.00000000000E+00 -0.43516268593E+03  0.43516268593E+03  0.00000000000E+00 0.  1.
         24    2    1    2    0    0  0.32333170332E+03 -0.17407895590E+03 -0.64477425750E+02  0.38140172135E+03  0.80393167333E+02 0.  0.
        254    2    1    2    0    0 -0.32333170332E+03  0.17407895590E+03  0.86790653583E+03  0.12923527606E+04  0.88434553747E+03 0.  0.
         23    2    4    4    0    0 -0.57110693678E+03  0.31461636970E+03  0.61807228913E+03  0.90294988004E+03  0.90324625350E+02 0.  0.
         23    2    4    4    0    0  0.24777523346E+03 -0.14053741381E+03  0.24983424670E+03  0.38940288057E+03  0.89856115967E+02 0.  0.
          2    1    3    3  502    0  0.39106753672E+02 -0.17781214067E+02  0.18215397303E+02  0.46661659373E+02  0.00000000000E+00 0. -1.
         -1    1    3    3    0  502  0.28422494965E+03 -0.15629774183E+03 -0.82692823053E+02  0.33474006197E+03  0.00000000000E+00 0.  1.
         11    1    5    5    0    0 -0.37848468350E+03  0.19399074241E+03  0.45764704079E+03  0.62475905574E+03  0.00000000000E+00 0. -1.
        -11    1    5    5    0    0 -0.19262225328E+03  0.12062562729E+03  0.16042524835E+03  0.27819082430E+03  0.00000000000E+00 0.  1.
          3    1    6    6  503    0  0.19602039967E+03 -0.11283813209E+03  0.14325792199E+03  0.26772985144E+03  0.00000000000E+00 0. -1.
         -3    1    6    6    0  503  0.51754833785E+02 -0.27699281720E+02  0.10657632471E+03  0.12167302913E+03  0.00000000000E+00 0.  1.
<mgrwt>
<rscale>  0 0.14683173E+04</rscale>
<asrwt>0</asrwt>
<pdfrwt beam="1">  1        2 0.19055258E+00 0.14683173E+04</pdfrwt>
<pdfrwt beam="2">  1       -1 0.66948106E-01 0.14683173E+04</pdfrwt>
<totfact> 0.44836435E+01</totfact>
</mgrwt>
</event>
<event>
12    6  0.1542110E-007  0.2200883E+04  0.7818608E-02  0.8518061E-01
         -1   -1    0    0    0  501 -0.00000000000E+00  0.00000000000E+00  0.19551926550E+04  0.19551926550E+04  0.00000000000E+00 0.  1.
          2   -1    0    0  501    0  0.00000000000E+00 -0.00000000000E+00 -0.61936195617E+03  0.61936195617E+03  0.00000000000E+00 0. -1.
         24    2    1    2    0    0  0.61128239947E+03  0.68260960321E+03  0.54802117395E+03  0.10704916500E+04  0.77479825614E+02 0.  0.
        254    2    1    2    0    0 -0.61128239947E+03 -0.68260960321E+03  0.78780952487E+03  0.15040629611E+04  0.89551074882E+03 0.  0.
         23    2    4    4    0    0 -0.53941019046E+01  0.63009652983E+02 -0.13087893596E+03  0.17192568983E+03  0.91814128751E+02 0.  0.
         23    2    4    4    0    0 -0.60588829757E+03 -0.74561925619E+03  0.91868846084E+03  0.13321372713E+04  0.86905219482E+02 0.  0.
          4    1    3    3  502    0  0.41821141317E+03  0.44117143980E+03  0.40041568901E+03  0.72791877940E+03  0.00000000000E+00 0. -1.
         -3    1    3    3    0  502  0.19307098630E+03  0.24143816341E+03  0.14760548494E+03  0.34257287062E+03  0.00000000000E+00 0.  1.
         11    1    5    5    0    0 -0.25336817846E+02  0.63379605415E+02 -0.13525787569E+03  0.15150452686E+03  0.00000000000E+00 0. -1.
        -11    1    5    5    0    0  0.19942715941E+02 -0.36995243201E+00  0.43789397271E+01  0.20421162970E+02  0.00000000000E+00 0.  1.
          1    1    6    6  503    0 -0.25707970144E+03 -0.27095983364E+03  0.40002815371E+03  0.54729491875E+03  0.00000000000E+00 0. -1.
         -1    1    6    6    0  503 -0.34880859613E+03 -0.47465942256E+03  0.51866030713E+03  0.78484235255E+03  0.00000000000E+00 0.  1.
<mgrwt>
<rscale>  0 0.22008834E+04</rscale>
<asrwt>0</asrwt>
<pdfrwt beam="1">  1        2 0.95286456E-01 0.22008834E+04</pdfrwt>
<pdfrwt beam="2">  1       -1 0.30079887E+00 0.22008834E+04</pdfrwt>
<totfact> 0.16251565E+00</totfact>
</mgrwt>
</event>
<event>
12    6  0.1542110E-007  0.2402656E+04  0.7818608E-02  0.8438510E-01
          2   -1    0    0  501    0  0.00000000000E+00  0.00000000000E+00  0.81372836044E+03  0.81372836044E+03  0.00000000000E+00 0. -1.
         -1   -1    0    0    0  501 -0.00000000000E+00 -0.00000000000E+00 -0.17735513372E+04  0.17735513372E+04  0.00000000000E+00 0.  1.
         24    2    1    2    0    0 -0.62575967848E+03  0.88858658935E+03 -0.41573748394E+03  0.11663374039E+04  0.79649119755E+02 0.  0.
        254    2    1    2    0    0  0.62575967848E+03 -0.88858658935E+03 -0.54408549284E+03  0.14209422937E+04  0.73612952437E+03 0.  0.
         23    2    4    4    0    0 -0.66364100414E+02 -0.12543224325E+03 -0.32112375441E+03  0.36285215146E+03  0.91672115193E+02 0.  0.
         23    2    4    4    0    0  0.69212377889E+03 -0.76315434610E+03 -0.22296173843E+03  0.10580901423E+04  0.91667503008E+02 0.  0.
          4    1    3    3  502    0 -0.35003757955E+02  0.39694409823E+02 -0.36742462783E+01  0.53051006850E+02  0.00000000000E+00 0. -1.
         -3    1    3    3    0  502 -0.59075592052E+03  0.84889217952E+03 -0.41206323766E+03  0.11132863971E+04  0.00000000000E+00 0.  1.
         11    1    5    5    0    0 -0.80730092181E+02 -0.12684262288E+03 -0.26282257222E+03  0.30279052699E+03  0.00000000000E+00 0.  1.
        -11    1    5    5    0    0  0.14365991767E+02  0.14103796330E+01 -0.58301182186E+02  0.60061624474E+02  0.00000000000E+00 0. -1.
          1    1    6    6  503    0  0.37321915079E+03 -0.47661984694E+03 -0.11901024982E+03  0.61694606942E+03  0.00000000000E+00 0. -1.
         -1    1    6    6    0  503  0.31890462810E+03 -0.28653449916E+03 -0.10395148862E+03  0.44114407286E+03  0.00000000000E+00 0.  1.
<mgrwt>
<rscale>  0 0.24026560E+04</rscale>
<asrwt>0</asrwt>
<pdfrwt beam="1">  1        2 0.12518898E+00 0.24026560E+04</pdfrwt>
<pdfrwt beam="2">  1       -1 0.27285405E+00 0.24026560E+04</pdfrwt>
<totfact> 0.17096791E+00</totfact>
</mgrwt>
</event>
<event>
12    6  0.1542110E-007  0.1685170E+04  0.7818608E-02  0.8769868E-01
         -1   -1    0    0    0  501 -0.00000000000E+00  0.00000000000E+00  0.27764387191E+03  0.27764387191E+03  0.00000000000E+00 0.  1.
          2   -1    0    0  501    0  0.00000000000E+00 -0.00000000000E+00 -0.25570496168E+04  0.25570496168E+04  0.00000000000E+00 0. -1.
         24    2    1    2    0    0  0.10363268071E+03  0.15195524261E+03 -0.17829114357E+04  0.17942530614E+04  0.82101963843E+02 0.  0.
        254    2    1    2    0    0 -0.10363268071E+03 -0.15195524261E+03 -0.49649430926E+03  0.10404404274E+04  0.89564477087E+03 0.  0.
         23    2    4    4    0    0 -0.48965194918E+03 -0.11565517616E+03 -0.33084388267E+03  0.60930374497E+03  0.93049598691E+02 0.  0.
         23    2    4    4    0    0  0.38601926848E+03 -0.36300066448E+02 -0.16565042658E+03  0.43113668244E+03  0.90056674681E+02 0.  0.
          4    1    3    3  502    0  0.58278430203E+02  0.13545041049E+03 -0.11335575973E+04  0.11431080507E+04  0.00000000000E+00 0. -1.
         -3    1    3    3    0  502  0.45354250504E+02  0.16504832125E+02 -0.64935383838E+03  0.65114501069E+03  0.00000000000E+00 0.  1.
         11    1    5    5    0    0 -0.17406766596E+02 -0.10125777711E+02  0.44180190102E+01  0.20616638658E+02  0.00000000000E+00 0. -1.
        -11    1    5    5    0    0 -0.47224518259E+03 -0.10552939845E+03 -0.33526190168E+03  0.58868710631E+03  0.00000000000E+00 0.  1.
          3    1    6    6  503    0  0.13568813480E+03 -0.33353556158E+02 -0.19042259669E+02  0.14101892528E+03  0.00000000000E+00 0. -1.
         -3    1    6    6    0  503  0.25033113368E+03 -0.29465102904E+01 -0.14660816692E+03  0.29011775716E+03  0.00000000000E+00 0.  1.
<mgrwt>
<rscale>  0 0.16851696E+04</rscale>
<asrwt>0</asrwt>
<pdfrwt beam="1">  1        2 0.39339225E+00 0.16851696E+04</pdfrwt>
<pdfrwt beam="2">  1       -1 0.42714442E-01 0.16851696E+04</pdfrwt>
<totfact> 0.18916141E+01</totfact>
</mgrwt>
</event>
<event>
12    6  0.1542110E-007  0.2082722E+04  0.7818608E-02  0.8568893E-01
         -1   -1    0    0    0  501 -0.00000000000E+00  0.00000000000E+00  0.72729897950E+03  0.72729897950E+03  0.00000000000E+00 0.  1.
          2   -1    0    0  501    0  0.00000000000E+00 -0.00000000000E+00 -0.14910406203E+04  0.14910406203E+04  0.00000000000E+00 0. -1.
         24    2    1    2    0    0 -0.40790301300E+03  0.69868266710E+03 -0.14033773295E+03  0.82506111298E+03  0.80553234295E+02 0.  0.
        254    2    1    2    0    0  0.40790301300E+03 -0.69868266710E+03 -0.62340390781E+03  0.13932784868E+04  0.94765509133E+03 0.  0.
         23    2    4    4    0    0  0.87575242883E+02 -0.40194463792E+02 -0.64166351413E+03  0.65527873550E+03  0.91504850985E+02 0.  0.
         23    2    4    4    0    0  0.32032777011E+03 -0.65848820331E+03  0.18259606317E+02  0.73799975127E+03  0.89964578895E+02 0.  0.
          4    1    3    3  502    0 -0.11606972791E+03  0.18007105066E+03 -0.72261193828E+02  0.22609609717E+03  0.00000000000E+00 0. -1.
         -3    1    3    3    0  502 -0.29183328508E+03  0.51861161644E+03 -0.68076539123E+02  0.59896501581E+03  0.00000000000E+00 0.  1.
         11    1    5    5    0    0  0.87025467546E+02 -0.36941278797E+02 -0.64421043876E+03  0.65111072752E+03  0.00000000000E+00 0.  1.
        -11    1    5    5    0    0  0.54977533660E+00 -0.32531849944E+01  0.25469246288E+01  0.41680079887E+01  0.00000000000E+00 0. -1.
          1    1    6    6  503    0  0.13424798954E+02 -0.27528949711E+02  0.19592202819E+02  0.36358255052E+02  0.00000000000E+00 0. -1.
         -1    1    6    6    0  503  0.30690297116E+03 -0.63095925359E+03 -0.13325965029E+01  0.70164149622E+03  0.00000000000E+00 0.  1.
<mgrwt>
<rscale>  0 0.20827216E+04</rscale>
<asrwt>0</asrwt>
<pdfrwt beam="1">  1        2 0.22939086E+00 0.20827216E+04</pdfrwt>
<pdfrwt beam="2">  1       -1 0.11189215E+00 0.20827216E+04</pdfrwt>
<totfact> 0.98967280E+00</totfact>
</mgrwt>
</event>
<event>
12    6  0.1542110E-007  0.1578650E+04  0.7818608E-02  0.8833773E-01
         -1   -1    0    0    0  501 -0.00000000000E+00  0.00000000000E+00  0.36320196627E+03  0.36320196627E+03  0.00000000000E+00 0.  1.
          2   -1    0    0  501    0  0.00000000000E+00 -0.00000000000E+00 -0.17153922889E+04  0.17153922889E+04  0.00000000000E+00 0. -1.
         24    2    1    2    0    0  0.32446855003E+03  0.31371908208E+03 -0.11151996020E+03  0.47418088613E+03  0.93334392521E+02 0.  0.
        254    2    1    2    0    0 -0.32446855003E+03 -0.31371908208E+03 -0.12406703625E+04  0.16044133691E+04  0.91169063182E+03 0.  0.
         23    2    4    4    0    0  0.10989813623E+03  0.99549496888E+02  0.47833219123E+02  0.18031207243E+03  0.90756398866E+02 0.  0.
         23    2    4    4    0    0 -0.43436668625E+03 -0.41326857897E+03 -0.12885035816E+04  0.14241012966E+04  0.91420385324E+02 0.  0.
          2    1    3    3  502    0  0.18647986902E+03  0.11563331253E+03 -0.49652815861E+02  0.22496934600E+03  0.00000000000E+00 0. -1.
         -1    1    3    3    0  502  0.13798868101E+03  0.19808576955E+03 -0.61867144337E+02  0.24921154013E+03  0.00000000000E+00 0.  1.
         11    1    5    5    0    0  0.16575188615E+02  0.75730625778E+02  0.22459940253E+02  0.80711297069E+02  0.00000000000E+00 0. -1.
        -11    1    5    5    0    0  0.93322947610E+02  0.23818871110E+02  0.25373278869E+02  0.99600775359E+02  0.00000000000E+00 0.  1.
          1    1    6    6  503    0 -0.37958246362E+02 -0.69541549567E+02 -0.21758434223E+03  0.23155949897E+03  0.00000000000E+00 0. -1.
         -1    1    6    6    0  503 -0.39640843989E+03 -0.34372702940E+03 -0.10709192394E+04  0.11925417977E+04  0.00000000000E+00 0.  1.
<mgrwt>
<rscale>  0 0.15786499E+04</rscale>
<asrwt>0</asrwt>
<pdfrwt beam="1">  1        2 0.26390651E+00 0.15786499E+04</pdfrwt>
<pdfrwt beam="2">  1       -1 0.55877226E-01 0.15786499E+04</pdfrwt>
<totfact> 0.34084391E+01</totfact>
</mgrwt>
</event>
<event>
12    6  0.1542110E-007  0.2042483E+04  0.7818608E-02  0.8587012E-01
          2   -1    0    0  501    0  0.00000000000E+00  0.00000000000E+00  0.14126160089E+04  0.14126160089E+04  0.00000000000E+00 0. -1.
         -1   -1    0    0    0  501 -0.00000000000E+00 -0.00000000000E+00 -0.73829991323E+03  0.73829991323E+03  0.00000000000E+00 0.  1.
         24    2    1    2    0    0  0.12932535236E+03 -0.13547663792E+02  0.11225189319E+04  0.11328845330E+04  0.80436476013E+02 0.  0.
        254    2    1    2    0    0 -0.12932535236E+03  0.13547663792E+02 -0.44820283624E+03  0.10180313891E+04  0.90476159339E+03 0.  0.
         23    2    4    4    0    0  0.22458066499E+02  0.16051820709E+02  0.26564975971E+03  0.28248901682E+03  0.92022954158E+02 0.  0.
         23    2    4    4    0    0 -0.15178341886E+03 -0.25041569168E+01 -0.71385259595E+03  0.73554237230E+03  0.91611001879E+02 0.  0.
          2    1    3    3  502    0  0.70597321307E+02  0.27501541441E+02  0.42552960032E+03  0.43222188435E+03  0.00000000000E+00 0. -1.
         -1    1    3    3    0  502  0.58728031058E+02 -0.41049205233E+02  0.69698933162E+03  0.70066264870E+03  0.00000000000E+00 0.  1.
         11    1    5    5    0    0  0.57683085444E+02  0.90812797711E+01  0.18959454866E+03  0.19838321721E+03  0.00000000000E+00 0. -1.
        -11    1    5    5    0    0 -0.35225018945E+02  0.69705409380E+01  0.76055211055E+02  0.84105799617E+02  0.00000000000E+00 0.  1.
          3    1    6    6  503    0 -0.14353084360E+03 -0.30942366231E+02 -0.61896776883E+03  0.63614434835E+03  0.00000000000E+00 0. -1.
         -3    1    6    6    0  503 -0.82525752664E+01  0.28438209314E+02 -0.94884827121E+02  0.99398023951E+02  0.00000000000E+00 0.  1.
<mgrwt>
<rscale>  0 0.20424831E+04</rscale>
<asrwt>0</asrwt>
<pdfrwt beam="1">  1        2 0.21732554E+00 0.20424831E+04</pdfrwt>
<pdfrwt beam="2">  1       -1 0.11358460E+00 0.20424831E+04</pdfrwt>
<totfact> 0.10618147E+01</totfact>
</mgrwt>
</event>
<event>
12    6  0.1542110E-007  0.1402532E+04  0.7818608E-02  0.8951988E-01
         -1   -1    0    0    0  501 -0.00000000000E+00  0.00000000000E+00  0.27701956350E+03  0.27701956350E+03  0.00000000000E+00 0.  1.
          2   -1    0    0  501    0  0.00000000000E+00 -0.00000000000E+00 -0.17752324484E+04  0.17752324484E+04  0.00000000000E+00 0. -1.
         24    2    1    2    0    0 -0.30505725682E+03  0.46121540950E+02 -0.84105232966E+03  0.89930805493E+03  0.78732648612E+02 0.  0.
        254    2    1    2    0    0  0.30505725682E+03 -0.46121540950E+02 -0.65716055525E+03  0.11529439570E+04  0.89567440853E+03 0.  0.
         23    2    4    4    0    0  0.46103396276E+02  0.40567705904E+03 -0.30633111323E+03  0.51853521171E+03  0.91326970069E+02 0.  0.
         23    2    4    4    0    0  0.25895386055E+03 -0.45179859999E+03 -0.35082944202E+03  0.63440874528E+03  0.90631572089E+02 0.  0.
          4    1    3    3  502    0 -0.30367786638E+03  0.33981023057E+02 -0.79630112295E+03  0.85291877390E+03  0.00000000000E+00 0. -1.
         -3    1    3    3    0  502 -0.13793904416E+01  0.12140517892E+02 -0.44751206707E+02  0.46389281029E+02  0.00000000000E+00 0.  1.
         11    1    5    5    0    0  0.73099916221E+02  0.28574485266E+03 -0.22758915121E+03  0.37254602443E+03  0.00000000000E+00 0.  1.
        -11    1    5    5    0    0 -0.26996519945E+02  0.11993220639E+03 -0.78741962029E+02  0.14598918728E+03  0.00000000000E+00 0. -1.
          3    1    6    6  503    0 -0.14790769551E+01 -0.10295967758E+02 -0.24864587383E+02  0.26952594058E+02  0.00000000000E+00 0. -1.
         -3    1    6    6    0  503  0.26043293750E+03 -0.44150263223E+03 -0.32596485463E+03  0.60745615122E+03  0.00000000000E+00 0.  1.
<mgrwt>
<rscale>  0 0.14025322E+04</rscale>
<asrwt>0</asrwt>
<pdfrwt beam="1">  1        2 0.27311270E+00 0.14025322E+04</pdfrwt>
<pdfrwt beam="2">  1       -1 0.42618392E-01 0.14025322E+04</pdfrwt>
<totfact> 0.53509458E+01</totfact>
</mgrwt>
</event>
<event>
12    6  0.1542110E-007  0.2602655E+04  0.7818608E-02  0.8367300E-01
         -1   -1    0    0    0  501 -0.00000000000E+00  0.00000000000E+00  0.52971623949E+03  0.52971623949E+03  0.00000000000E+00 0.  1.
          2   -1    0    0  501    0  0.00000000000E+00 -0.00000000000E+00 -0.31969057961E+04  0.31969057961E+04  0.00000000000E+00 0. -1.
         24    2    1    2    0    0 -0.40263058666E+03 -0.95903233985E+02  0.35127901131E+03  0.54870290845E+03  0.79806756287E+02 0.  0.
        254    2    1    2    0    0  0.40263058666E+03  0.95903233985E+02 -0.30184685680E+04  0.31779191272E+04  0.90371934998E+03 0.  0.
         23    2    4    4    0    0  0.13394513390E+03  0.30981035899E+03 -0.38451805509E+03  0.52029849097E+03  0.94512578984E+02 0.  0.
         23    2    4    4    0    0  0.26868545276E+03 -0.21390712501E+03 -0.26339505129E+04  0.26576206362E+04  0.85463507285E+02 0.  0.
          4    1    3    3  502    0  0.14509077447E+01  0.33655391523E+01  0.96713738808E+01  0.10342507424E+02  0.00000000000E+00 0. -1.
         -3    1    3    3    0  502 -0.40408149441E+03 -0.99268773137E+02  0.34160763743E+03  0.53836040103E+03  0.00000000000E+00 0.  1.
         11    1    5    5    0    0  0.12113926231E+03  0.26926707349E+03 -0.27772366767E+03  0.40535159223E+03  0.00000000000E+00 0.  1.
        -11    1    5    5    0    0  0.12805871595E+02  0.40543285496E+02 -0.10679438742E+03  0.11494689874E+03  0.00000000000E+00 0. -1.
          2    1    6    6  503    0  0.62558246526E+02 -0.25945728659E+02 -0.76132327037E+03  0.76432966516E+03  0.00000000000E+00 0. -1.
         -2    1    6    6    0  503  0.20612720623E+03 -0.18796139635E+03 -0.18726272425E+04  0.18932909711E+04  0.00000000000E+00 0.  1.
<mgrwt>
<rscale>  0 0.26026547E+04</rscale>
<asrwt>0</asrwt>
<pdfrwt beam="1">  1        2 0.49183165E+00 0.26026547E+04</pdfrwt>
<pdfrwt beam="2">  1       -1 0.81494807E-01 0.26026547E+04</pdfrwt>
<totfact> 0.19643733E+00</totfact>
</mgrwt>
</event>
<event>
12    6  0.1542110E-007  0.1456067E+04  0.7818608E-02  0.8914205E-01
          4   -1    0    0  501    0  0.00000000000E+00  0.00000000000E+00  0.64555275669E+03  0.64555275669E+03  0.00000000000E+00 0. -1.
         -3   -1    0    0    0  501 -0.00000000000E+00 -0.00000000000E+00 -0.82105315393E+03  0.82105315393E+03  0.00000000000E+00 0.  1.
         24    2    1    2    0    0 -0.13070837509E+03  0.96802704149E+01  0.35318095839E+03  0.38578007933E+03  0.83132985528E+02 0.  0.
        254    2    1    2    0    0  0.13070837509E+03 -0.96802704149E+01 -0.52868135563E+03  0.10808258313E+04  0.93354277613E+03 0.  0.
         23    2    4    4    0    0 -0.19956592555E+03  0.35083755541E+03 -0.38034937836E+03  0.56200933133E+03  0.90968620725E+02 0.  0.
         23    2    4    4    0    0  0.33027430063E+03 -0.36051782583E+03 -0.14833197727E+03  0.51881649997E+03  0.90077570782E+02 0.  0.
          2    1    3    3  502    0 -0.10933213333E+03  0.29689984521E+02  0.32849448081E+03  0.34748184770E+03  0.00000000000E+00 0. -1.
         -1    1    3    3    0  502 -0.21376241759E+02 -0.20009714106E+02  0.24686477579E+02  0.38298231625E+02  0.00000000000E+00 0.  1.
         11    1    5    5    0    0 -0.16988466196E+03  0.21182753169E+03 -0.24471289360E+03  0.36553536333E+03  0.00000000000E+00 0. -1.
        -11    1    5    5    0    0 -0.29681263586E+02  0.13901002372E+03 -0.13563648476E+03  0.19647396800E+03  0.00000000000E+00 0.  1.
          4    1    6    6  503    0  0.11147525759E+03 -0.14567619958E+03 -0.98316980966E+02  0.20812139949E+03  0.00000000000E+00 0. -1.
         -4    1    6    6    0  503  0.21879904304E+03 -0.21484162625E+03 -0.50014996300E+02  0.31069510048E+03  0.00000000000E+00 0.  1.
<mgrwt>
<rscale>  0 0.14560675E+04</rscale>
<asrwt>0</asrwt>
<pdfrwt beam="1">  1        4 0.99315809E-01 0.14560675E+04</pdfrwt>
<pdfrwt beam="2">  1       -3 0.12631587E+00 0.14560675E+04</pdfrwt>
<totfact> 0.92768551E-01</totfact>
</mgrwt>
</event>
<event>
12    6  0.1542110E-007  0.1394487E+04  0.7818608E-02  0.8957819E-01
          2   -1    0    0  501    0  0.00000000000E+00  0.00000000000E+00  0.94803753687E+03  0.94803753687E+03  0.00000000000E+00 0. -1.
         -1   -1    0    0    0  501 -0.00000000000E+00 -0.00000000000E+00 -0.51279487931E+03  0.51279487931E+03  0.00000000000E+00 0.  1.
         24    2    1    2    0    0  0.23737655006E+03 -0.31985904526E+03  0.95469897550E+02  0.41858931021E+03  0.86284841803E+02 0.  0.
        254    2    1    2    0    0 -0.23737655006E+03  0.31985904526E+03  0.33977276001E+03  0.10422431060E+04  0.90120348875E+03 0.  0.
         23    2    4    4    0    0 -0.57013256458E+03  0.13864997862E+03  0.23448440219E+03  0.63836936422E+03  0.90871076525E+02 0.  0.
         23    2    4    4    0    0  0.33275601451E+03  0.18120906665E+03  0.10528835782E+03  0.40387374174E+03  0.92005814748E+02 0.  0.
          4    1    3    3  502    0  0.10773284454E+03 -0.16080333015E+03  0.89646715722E+02  0.21330872092E+03  0.00000000000E+00 0. -1.
         -3    1    3    3    0  502  0.12964370553E+03 -0.15905571511E+03  0.58231818277E+01  0.20528058929E+03  0.00000000000E+00 0.  1.
         11    1    5    5    0    0 -0.19952943016E+03  0.93592780899E+02  0.84342995728E+02  0.23597742067E+03  0.00000000000E+00 0. -1.
        -11    1    5    5    0    0 -0.37060313441E+03  0.45057197716E+02  0.15014140646E+03  0.40239194355E+03  0.00000000000E+00 0.  1.
          4    1    6    6  503    0  0.56519785940E+02  0.66272972402E+02  0.12574600354E+01  0.87110127308E+02  0.00000000000E+00 0.  1.
         -4    1    6    6    0  503  0.27623622857E+03  0.11493609424E+03  0.10403089779E+03  0.31676361444E+03  0.00000000000E+00 0. -1.
<mgrwt>
<rscale>  0 0.13944874E+04</rscale>
<asrwt>0</asrwt>
<pdfrwt beam="1">  1        2 0.14585193E+00 0.13944874E+04</pdfrwt>
<pdfrwt beam="2">  1       -1 0.78891520E-01 0.13944874E+04</pdfrwt>
<totfact> 0.48631855E+01</totfact>
</mgrwt>
</event>
<event>
12    6  0.1542110E-007  0.1703035E+04  0.7818608E-02  0.8759635E-01
          2   -1    0    0  501    0  0.00000000000E+00  0.00000000000E+00  0.92876768078E+03  0.92876768078E+03  0.00000000000E+00 0. -1.
         -1   -1    0    0    0  501 -0.00000000000E+00 -0.00000000000E+00 -0.78069282125E+03  0.78069282125E+03  0.00000000000E+00 0.  1.
         24    2    1    2    0    0  0.36067951952E+03 -0.48218293901E+03 -0.78678141860E+02  0.61284930211E+03  0.82485844954E+02 0.  0.
        254    2    1    2    0    0 -0.36067951952E+03  0.48218293901E+03  0.22675300139E+03  0.10966111999E+04  0.88800287032E+03 0.  0.
         23    2    4    4    0    0 -0.19643242210E+02  0.66600199367E+03  0.17652658925E+03  0.69554374315E+03  0.93139408326E+02 0.  0.
         23    2    4    4    0    0 -0.34103627731E+03 -0.18381905466E+03  0.50226412134E+02  0.40106745678E+03  0.90759159937E+02 0.  0.
          2    1    3    3  502    0  0.72738348887E+01 -0.38001074880E+02 -0.15664841184E+02  0.41741796983E+02  0.00000000000E+00 0. -1.
         -1    1    3    3    0  502  0.35340568463E+03 -0.44418186413E+03 -0.63013300677E+02  0.57110750513E+03  0.00000000000E+00 0.  1.
         11    1    5    5    0    0 -0.20874614230E+02  0.58371022748E+03  0.18531101882E+03  0.61277528742E+03  0.00000000000E+00 0. -1.
        -11    1    5    5    0    0  0.12313720208E+01  0.82291766190E+02 -0.87844295698E+01  0.82768455722E+02  0.00000000000E+00 0.  1.
          3    1    6    6  503    0 -0.21949377579E+03 -0.11175412163E+03 -0.12163130980E+02  0.24660584556E+03  0.00000000000E+00 0. -1.
         -3    1    6    6    0  503 -0.12154250152E+03 -0.72064933035E+02  0.62389543113E+02  0.15446161122E+03  0.00000000000E+00 0.  1.
<mgrwt>
<rscale>  0 0.17030352E+04</rscale>
<asrwt>0</asrwt>
<pdfrwt beam="1">  1        2 0.14288734E+00 0.17030352E+04</pdfrwt>
<pdfrwt beam="2">  1       -1 0.12010659E+00 0.17030352E+04</pdfrwt>
<totfact> 0.18810385E+01</totfact>
</mgrwt>
</event>
<event>
12    6  0.1542110E-007  0.1240387E+04  0.7818608E-02  0.9078222E-01
         -1   -1    0    0    0  501 -0.00000000000E+00  0.00000000000E+00  0.84994509477E+03  0.84994509477E+03  0.00000000000E+00 0.  1.
          2   -1    0    0  501    0  0.00000000000E+00 -0.00000000000E+00 -0.45254682686E+03  0.45254682686E+03  0.00000000000E+00 0. -1.
         24    2    1    2    0    0 -0.18467921366E+03 -0.10652305622E+02  0.33279424307E+03  0.38902927613E+03  0.79824093428E+02 0.  0.
        254    2    1    2    0    0  0.18467921366E+03  0.10652305622E+02  0.64604024843E+02  0.91346264551E+03  0.89219977648E+03 0.  0.
         23    2    4    4    0    0 -0.18447624118E+03 -0.31906495909E+03  0.13649215179E+03  0.40535505262E+03  0.99240513398E+02 0.  0.
         23    2    4    4    0    0  0.36915545484E+03  0.32971726472E+03 -0.71888126949E+02  0.50810759289E+03  0.89533226647E+02 0.  0.
          4    1    3    3  502    0 -0.40767886589E+02 -0.11102739707E+02  0.24604243094E+02  0.48894377838E+02  0.00000000000E+00 0. -1.
         -3    1    3    3    0  502 -0.14391132707E+03  0.45043408478E+00  0.30818999997E+03  0.34013489829E+03  0.00000000000E+00 0.  1.
         11    1    5    5    0    0 -0.28648197443E+02 -0.41962830128E+02 -0.15301621449E+02  0.53063527475E+02  0.00000000000E+00 0. -1.
        -11    1    5    5    0    0 -0.15582804373E+03 -0.27710212897E+03  0.15179377324E+03  0.35229152514E+03  0.00000000000E+00 0.  1.
          1    1    6    6  503    0  0.44966589857E+02  0.10621029072E+02 -0.19735055794E+02  0.50242142561E+02  0.00000000000E+00 0. -1.
         -1    1    6    6    0  503  0.32418886498E+03  0.31909623564E+03 -0.52153071156E+02  0.45786545033E+03  0.00000000000E+00 0.  1.
<mgrwt>
<rscale>  0 0.12403870E+04</rscale>
<asrwt>0</asrwt>
<pdfrwt beam="1">  1        2 0.69622589E-01 0.12403870E+04</pdfrwt>
<pdfrwt beam="2">  1       -1 0.13076078E+00 0.12403870E+04</pdfrwt>
<totfact> 0.38885171E+01</totfact>
</mgrwt>
</event>
<event>
12    6  0.1542110E-007  0.1919620E+04  0.7818608E-02  0.8645151E-01
          2   -1    0    0  501    0  0.00000000000E+00  0.00000000000E+00  0.21512346002E+04  0.21512346002E+04  0.00000000000E+00 0. -1.
         -1   -1    0    0    0  501 -0.00000000000E+00 -0.00000000000E+00 -0.42823570933E+03  0.42823570933E+03  0.00000000000E+00 0.  1.
         24    2    1    2    0    0  0.36363986289E+03 -0.11758859105E+02 -0.19954373025E+03  0.42264253296E+03  0.80229606346E+02 0.  0.
        254    2    1    2    0    0 -0.36363986289E+03  0.11758859105E+02  0.19225426212E+04  0.21568277766E+04  0.90739390959E+03 0.  0.
         23    2    4    4    0    0  0.61063376240E+02  0.35733502653E+03  0.45901096535E+03  0.59161417191E+03  0.88877471746E+02 0.  0.
         23    2    4    4    0    0 -0.42470323913E+03 -0.34557616743E+03  0.14635316558E+04  0.15652136047E+04  0.90404601587E+02 0.  0.
          2    1    3    3  502    0  0.20195197780E+02  0.67396253747E+01  0.57985118791E+01  0.22065613600E+02  0.00000000000E+00 0. -1.
         -1    1    3    3    0  502  0.34344466511E+03 -0.18498484479E+02 -0.20534224213E+03  0.40057691936E+03  0.00000000000E+00 0.  1.
         11    1    5    5    0    0  0.17774789878E+02  0.11818087885E+03  0.22208529850E+03  0.25219941136E+03  0.00000000000E+00 0. -1.
        -11    1    5    5    0    0  0.43288586363E+02  0.23915414768E+03  0.23692566685E+03  0.33941476054E+03  0.00000000000E+00 0.  1.
          2    1    6    6  503    0 -0.11149549247E+03 -0.43922102617E+02  0.29668156812E+03  0.31996929353E+03  0.00000000000E+00 0. -1.
         -2    1    6    6    0  503 -0.31320774666E+03 -0.30165406481E+03  0.11668500877E+04  0.12452443112E+04  0.00000000000E+00 0.  1.
<mgrwt>
<rscale>  0 0.19196202E+04</rscale>
<asrwt>0</asrwt>
<pdfrwt beam="1">  1        2 0.33095916E+00 0.19196202E+04</pdfrwt>
<pdfrwt beam="2">  1       -1 0.65882418E-01 0.19196202E+04</pdfrwt>
<totfact> 0.13675179E+01</totfact>
</mgrwt>
</event>
<event>
12    6  0.1542110E-007  0.1614248E+04  0.7818608E-02  0.8811842E-01
          2   -1    0    0  501    0  0.00000000000E+00  0.00000000000E+00  0.14902436552E+04  0.14902436552E+04  0.00000000000E+00 0. -1.
         -1   -1    0    0    0  501 -0.00000000000E+00 -0.00000000000E+00 -0.43714282131E+03  0.43714282131E+03  0.00000000000E+00 0.  1.
         24    2    1    2    0    0 -0.19561027274E+02  0.53248793557E+03  0.20028463157E+03  0.57481599256E+03  0.79833929744E+02 0.  0.
        254    2    1    2    0    0  0.19561027274E+02 -0.53248793557E+03  0.85281620227E+03  0.13525704839E+04  0.90455812625E+03 0.  0.
         23    2    4    4    0    0  0.98514258695E+02 -0.71265220073E+03  0.34969043234E+03  0.80523847074E+03  0.92452030324E+02 0.  0.
         23    2    4    4    0    0 -0.78953231421E+02  0.18016426516E+03  0.50312576993E+03  0.54733201317E+03  0.88000097032E+02 0.  0.
          4    1    3    3  502    0 -0.34793748280E+02  0.27513190793E+03  0.13718795834E+03  0.30940056172E+03  0.00000000000E+00 0. -1.
         -3    1    3    3    0  502  0.15232721006E+02  0.25735602765E+03  0.63096673237E+02  0.26541543084E+03  0.00000000000E+00 0.  1.
         11    1    5    5    0    0  0.11590587373E+02 -0.47791108707E+02  0.52112767204E+02  0.71652440941E+02  0.00000000000E+00 0.  1.
        -11    1    5    5    0    0  0.86923671323E+02 -0.66486109203E+03  0.29757766514E+03  0.73358602980E+03  0.00000000000E+00 0. -1.
          3    1    6    6  503    0 -0.37728644440E+02  0.13209909459E+03  0.42564831769E+03  0.44726961863E+03  0.00000000000E+00 0. -1.
         -3    1    6    6    0  503 -0.41224586981E+02  0.48065170574E+02  0.77477452243E+02  0.10006239454E+03  0.00000000000E+00 0.  1.
<mgrwt>
<rscale>  0 0.16142482E+04</rscale>
<asrwt>0</asrwt>
<pdfrwt beam="1">  1        2 0.22926825E+00 0.16142482E+04</pdfrwt>
<pdfrwt beam="2">  1       -1 0.67252743E-01 0.16142482E+04</pdfrwt>
<totfact> 0.31425616E+01</totfact>
</mgrwt>
</event>
<event>
12    6  0.1542110E-007  0.1397027E+04  0.7818608E-02  0.8955973E-01
         -3   -1    0    0    0  501 -0.00000000000E+00  0.00000000000E+00  0.76224854510E+03  0.76224854510E+03  0.00000000000E+00 0.  1.
          4   -1    0    0  501    0  0.00000000000E+00 -0.00000000000E+00 -0.64010793266E+03  0.64010793266E+03  0.00000000000E+00 0. -1.
         24    2    1    2    0    0  0.12702000707E+03  0.71072248142E+02 -0.33475285345E+03  0.37383597212E+03  0.80675364922E+02 0.  0.
        254    2    1    2    0    0 -0.12702000707E+03 -0.71072248142E+02  0.45689346589E+03  0.10285205056E+04  0.90989968936E+03 0.  0.
         23    2    4    4    0    0 -0.31067862397E+03 -0.23793826147E+03 -0.98038985408E+02  0.41403688313E+03  0.93161549269E+02 0.  0.
         23    2    4    4    0    0  0.18365861690E+03  0.16686601333E+03  0.55493245130E+03  0.61448362252E+03  0.89807253973E+02 0.  0.
          4    1    3    3  502    0  0.13176866089E+03  0.47303609628E+02 -0.30392318711E+03  0.33461905974E+03  0.00000000000E+00 0. -1.
         -3    1    3    3    0  502 -0.47486538224E+01  0.23768638515E+02 -0.30829666335E+02  0.39216912376E+02  0.00000000000E+00 0.  1.
         11    1    5    5    0    0 -0.26683176290E+02 -0.26464703569E+01 -0.27763625368E+02  0.38598116480E+02  0.00000000000E+00 0.  1.
        -11    1    5    5    0    0 -0.28399544768E+03 -0.23529179112E+03 -0.70275360040E+02  0.37543876665E+03  0.00000000000E+00 0. -1.
          3    1    6    6  503    0  0.18684695431E+03  0.16761292322E+03  0.50014956414E+03  0.55960295109E+03  0.00000000000E+00 0. -1.
         -3    1    6    6    0  503 -0.31883374130E+01 -0.74690988361E+00  0.54782887165E+02  0.54880671424E+02  0.00000000000E+00 0.  1.
<mgrwt>
<rscale>  0 0.13970273E+04</rscale>
<asrwt>0</asrwt>
<pdfrwt beam="1">  1        4 0.98478144E-01 0.13970273E+04</pdfrwt>
<pdfrwt beam="2">  1       -3 0.11726901E+00 0.13970273E+04</pdfrwt>
<totfact> 0.11404408E+00</totfact>
</mgrwt>
</event>
<event>
12    6  0.1542110E-007  0.1690754E+04  0.7818608E-02  0.8766655E-01
         -1   -1    0    0    0  501 -0.00000000000E+00  0.00000000000E+00  0.89766763225E+03  0.89766763225E+03  0.00000000000E+00 0.  1.
          2   -1    0    0  501    0  0.00000000000E+00 -0.00000000000E+00 -0.79613263185E+03  0.79613263185E+03  0.00000000000E+00 0. -1.
         24    2    1    2    0    0  0.10344089876E+03 -0.42702709512E+02 -0.56118785236E+03  0.57782841306E+03  0.80189328280E+02 0.  0.
        254    2    1    2    0    0 -0.10344089876E+03  0.42702709512E+02  0.66272285276E+03  0.11159718510E+04  0.89088049243E+03 0.  0.
         23    2    4    4    0    0 -0.95678061307E+02  0.45576372709E+03  0.37719359394E+03  0.60605722506E+03  0.90307731612E+02 0.  0.
         23    2    4    4    0    0 -0.77628374582E+01 -0.41306101758E+03  0.28552925882E+03  0.50991462597E+03  0.88353280887E+02 0.  0.
          4    1    3    3  502    0  0.92036010655E+02 -0.64052081417E+02 -0.48897185820E+03  0.50166400559E+03  0.00000000000E+00 0. -1.
         -3    1    3    3    0  502  0.11404888110E+02  0.21349371905E+02 -0.72215994156E+02  0.76164407472E+02  0.00000000000E+00 0.  1.
         11    1    5    5    0    0 -0.10119965189E+03  0.41648149572E+03  0.36897888185E+03  0.56554718730E+03  0.00000000000E+00 0.  1.
        -11    1    5    5    0    0  0.55215905790E+01  0.39282231378E+02  0.82147120953E+01  0.40510037761E+02  0.00000000000E+00 0. -1.
          1    1    6    6  503    0 -0.40412442402E+02 -0.31744615300E+03  0.23444801095E+03  0.39670025888E+03  0.00000000000E+00 0. -1.
         -1    1    6    6    0  503  0.32649604944E+02 -0.95614864579E+02  0.51081247873E+02  0.11321436709E+03  0.00000000000E+00 0.  1.
<mgrwt>
<rscale>  0 0.16907543E+04</rscale>
<asrwt>0</asrwt>
<pdfrwt beam="1">  1        2 0.12248194E+00 0.16907543E+04</pdfrwt>
<pdfrwt beam="2">  1       -1 0.13810271E+00 0.16907543E+04</pdfrwt>
<totfact> 0.16372797E+01</totfact>
</mgrwt>
</event>
<event>
12    6  0.1542110E-007  0.1955436E+04  0.7818608E-02  0.8627744E-01
         -1   -1    0    0    0  501 -0.00000000000E+00  0.00000000000E+00  0.34906846658E+03  0.34906846658E+03  0.00000000000E+00 0.  1.
          2   -1    0    0  501    0  0.00000000000E+00 -0.00000000000E+00 -0.27385256640E+04  0.27385256640E+04  0.00000000000E+00 0. -1.
         24    2    1    2    0    0  0.15222145351E+03 -0.23101512682E+02 -0.21311976550E+04  0.21382783701E+04  0.80782998880E+02 0.  0.
        254    2    1    2    0    0 -0.15222145351E+03  0.23101512682E+02 -0.25825954242E+03  0.94931576040E+03  0.90044287487E+03 0.  0.
         23    2    4    4    0    0  0.21524660053E+03  0.99954568385E+00 -0.46300581930E+03  0.51865550485E+03  0.91088121459E+02 0.  0.
         23    2    4    4    0    0 -0.36746805404E+03  0.22101966998E+02  0.20474627688E+03  0.43066025556E+03  0.89587667317E+02 0.  0.
          2    1    3    3  502    0  0.77383498762E+02  0.26039721539E+02 -0.12053024522E+04  0.12080646813E+04  0.00000000000E+00 0. -1.
         -1    1    3    3    0  502  0.74837954752E+02 -0.49141234221E+02 -0.92589520276E+03  0.93021368882E+03  0.00000000000E+00 0.  1.
         11    1    5    5    0    0  0.13563205126E+03  0.11541788775E+02 -0.37776605572E+03  0.40154259933E+03  0.00000000000E+00 0.  1.
        -11    1    5    5    0    0  0.79614549268E+02 -0.10542243091E+02 -0.85239763577E+02  0.11711290552E+03  0.00000000000E+00 0. -1.
          1    1    6    6  503    0 -0.10829007264E+03 -0.94365384894E+01  0.19268870190E+02  0.11039509703E+03  0.00000000000E+00 0. -1.
         -1    1    6    6    0  503 -0.25917798140E+03  0.31538505487E+02  0.18547740669E+03  0.32026515852E+03  0.00000000000E+00 0.  1.
<mgrwt>
<rscale>  0 0.19554365E+04</rscale>
<asrwt>0</asrwt>
<pdfrwt beam="1">  1        2 0.42131164E+00 0.19554365E+04</pdfrwt>
<pdfrwt beam="2">  1       -1 0.53702841E-01 0.19554365E+04</pdfrwt>
<totfact> 0.93671074E+00</totfact>
</mgrwt>
</event>
<event>
12    6  0.1542110E-007  0.1184108E+04  0.7818608E-02  0.9126881E-01
         -3   -1    0    0    0  501 -0.00000000000E+00  0.00000000000E+00  0.93960112957E+03  0.93960112957E+03  0.00000000000E+00 0.  1.
          4   -1    0    0  501    0  0.00000000000E+00 -0.00000000000E+00 -0.37306065224E+03  0.37306065224E+03  0.00000000000E+00 0. -1.
         24    2    1    2    0    0 -0.35432948421E+02 -0.42209957915E+02 -0.14088962209E+03  0.16853298684E+03  0.74271849720E+02 0.  0.
        254    2    1    2    0    0  0.35432948421E+02  0.42209957915E+02  0.70743009942E+03  0.11441287950E+04  0.89751667368E+03 0.  0.
         23    2    4    4    0    0 -0.32257065351E+03 -0.10739712161E+03  0.23636135417E+02  0.35314558507E+03  0.92559003453E+02 0.  0.
         23    2    4    4    0    0  0.35800360194E+03  0.14960707952E+03  0.68379396400E+03  0.79098320990E+03  0.86783615345E+02 0.  0.
          2    1    3    3  502    0 -0.37143525434E+02 -0.45021892264E+02 -0.14886879875E+03  0.15990163071E+03  0.00000000000E+00 0. -1.
         -1    1    3    3    0  502  0.17105770127E+01  0.28119343490E+01  0.79791766575E+01  0.86313561293E+01  0.00000000000E+00 0.  1.
         11    1    5    5    0    0 -0.88567962288E+00 -0.13718814702E+02  0.11425757776E+02  0.17875632744E+02  0.00000000000E+00 0. -1.
        -11    1    5    5    0    0 -0.32168497389E+03 -0.93678306906E+02  0.12210377641E+02  0.33526995233E+03  0.00000000000E+00 0.  1.
          4    1    6    6  503    0  0.97194406202E+02  0.38535286289E+02  0.11474631967E+03  0.15523671848E+03  0.00000000000E+00 0. -1.
         -4    1    6    6    0  503  0.26080919573E+03  0.11107179323E+03  0.56904764433E+03  0.63574649142E+03  0.00000000000E+00 0.  1.
<mgrwt>
<rscale>  0 0.11841085E+04</rscale>
<asrwt>0</asrwt>
<pdfrwt beam="1">  1        4 0.57393947E-01 0.11841085E+04</pdfrwt>
<pdfrwt beam="2">  1       -3 0.14455402E+00 0.11841085E+04</pdfrwt>
<totfact> 0.23113030E+00</totfact>
</mgrwt>
</event>
<event>
12    6  0.1542110E-007  0.2670089E+04  0.7818608E-02  0.8344776E-01
         -1   -1    0    0    0  501 -0.00000000000E+00  0.00000000000E+00  0.53129725046E+03  0.53129725046E+03  0.00000000000E+00 0.  1.
          2   -1    0    0  501    0  0.00000000000E+00 -0.00000000000E+00 -0.33547025541E+04  0.33547025541E+04  0.00000000000E+00 0. -1.
         24    2    1    2    0    0  0.40183409194E+03 -0.71329827088E+03 -0.25042439621E+04  0.26359027715E+04  0.80501791188E+02 0.  0.
        254    2    1    2    0    0 -0.40183409194E+03  0.71329827088E+03 -0.31916134150E+03  0.12500970330E+04  0.88916453448E+03 0.  0.
         23    2    4    4    0    0 -0.42530153757E+03  0.10572870043E+01  0.57454352473E+02  0.43896651343E+03  0.92239262673E+02 0.  0.
         23    2    4    4    0    0  0.23467445627E+02  0.71224098388E+03 -0.37661569397E+03  0.81113051959E+03  0.90859224927E+02 0.  0.
          2    1    3    3  502    0  0.32854134068E+03 -0.61074301124E+03 -0.20299576028E+04  0.21451513484E+04  0.00000000000E+00 0. -1.
         -1    1    3    3    0  502  0.73292751259E+02 -0.10255525964E+03 -0.47428635935E+03  0.49075142316E+03  0.00000000000E+00 0.  1.
         11    1    5    5    0    0 -0.82148203612E+02  0.37085882398E+02  0.10227466443E+02  0.90709928341E+02  0.00000000000E+00 0. -1.
        -11    1    5    5    0    0 -0.34315333396E+03 -0.36028595393E+02  0.47226886030E+02  0.34825658509E+03  0.00000000000E+00 0.  1.
          2    1    6    6  503    0  0.23490403951E+02  0.49990121457E+02 -0.18474671232E+02  0.58241950501E+02  0.00000000000E+00 0. -1.
         -2    1    6    6    0  503 -0.22958324007E-01  0.66225086242E+03 -0.35814102274E+03  0.75288856909E+03  0.00000000000E+00 0.  1.
<mgrwt>
<rscale>  0 0.26700893E+04</rscale>
<asrwt>0</asrwt>
<pdfrwt beam="1">  1        2 0.51610809E+00 0.26700893E+04</pdfrwt>
<pdfrwt beam="2">  1       -1 0.81738037E-01 0.26700893E+04</pdfrwt>
<totfact> 0.15245539E+00</totfact>
</mgrwt>
</event>
<event>
12    6  0.1542110E-007  0.2603208E+04  0.7818608E-02  0.8367113E-01
          2   -1    0    0  501    0  0.00000000000E+00  0.00000000000E+00  0.14678997025E+04  0.14678997025E+04  0.00000000000E+00 0. -1.
         -1   -1    0    0    0  501 -0.00000000000E+00 -0.00000000000E+00 -0.11541471951E+04  0.11541471951E+04  0.00000000000E+00 0.  1.
         24    2    1    2    0    0  0.16451040862E+03  0.23109626429E+03  0.12558945292E+04  0.12899870537E+04  0.79538495760E+02 0.  0.
        254    2    1    2    0    0 -0.16451040862E+03 -0.23109626429E+03 -0.94214202174E+03  0.13320598439E+04  0.89793244773E+03 0.  0.
         23    2    4    4    0    0  0.69429116180E+02 -0.14193736067E+03  0.13227970374E+03  0.22533061175E+03  0.91155625388E+02 0.  0.
         23    2    4    4    0    0 -0.23393952480E+03 -0.89158903613E+02 -0.10744217255E+04  0.11067292322E+04  0.88264022973E+02 0.  0.
          4    1    3    3  502    0  0.13876666614E+02  0.15561386533E+02  0.22945662607E+03  0.23040195719E+03  0.00000000000E+00 0. -1.
         -3    1    3    3    0  502  0.15063374201E+03  0.21553487775E+03  0.10264379031E+04  0.10595850965E+04  0.00000000000E+00 0.  1.
         11    1    5    5    0    0  0.67407053314E+02 -0.62619374512E+02  0.10900650280E+03  0.14264401338E+03  0.00000000000E+00 0.  1.
        -11    1    5    5    0    0  0.20220628656E+01 -0.79317986162E+02  0.23273200938E+02  0.82686598363E+02  0.00000000000E+00 0. -1.
          4    1    6    6  503    0 -0.62786305212E+02 -0.51382789096E+02 -0.21922225680E+03  0.23375352192E+03  0.00000000000E+00 0. -1.
         -4    1    6    6    0  503 -0.17115321959E+03 -0.37776114517E+02 -0.85519946869E+03  0.87297571023E+03  0.00000000000E+00 0.  1.
<mgrwt>
<rscale>  0 0.26032075E+04</rscale>
<asrwt>0</asrwt>
<pdfrwt beam="1">  1        2 0.22583072E+00 0.26032075E+04</pdfrwt>
<pdfrwt beam="2">  1       -1 0.17756111E+00 0.26032075E+04</pdfrwt>
<totfact> 0.28893954E+00</totfact>
</mgrwt>
</event>
<event>
12    6  0.1542110E-007  0.2359684E+04  0.7818608E-02  0.8454753E-01
         -1   -1    0    0    0  501 -0.00000000000E+00  0.00000000000E+00  0.70928775478E+03  0.70928775478E+03  0.00000000000E+00 0.  1.
          2   -1    0    0  501    0  0.00000000000E+00 -0.00000000000E+00 -0.19625711029E+04  0.19625711029E+04  0.00000000000E+00 0. -1.
         24    2    1    2    0    0  0.34873550123E+03 -0.77085082069E+02 -0.16009303375E+04  0.16422001082E+04  0.79276036585E+02 0.  0.
        254    2    1    2    0    0 -0.34873550123E+03  0.77085082069E+02  0.34764698937E+03  0.10296587495E+04  0.90098843033E+03 0.  0.
         23    2    4    4    0    0 -0.79233371521E+02  0.32862668847E+03  0.50820211809E+03  0.61747140688E+03  0.93424396967E+02 0.  0.
         23    2    4    4    0    0 -0.26950212971E+03 -0.25154160641E+03 -0.16055512872E+03  0.41218734265E+03  0.90641482848E+02 0.  0.
          2    1    3    3  502    0  0.21510869712E+03 -0.71654220653E+02 -0.86525180194E+03  0.89446451001E+03  0.00000000000E+00 0. -1.
         -1    1    3    3    0  502  0.13362680411E+03 -0.54308614155E+01 -0.73567853560E+03  0.74773559817E+03  0.00000000000E+00 0.  1.
         11    1    5    5    0    0  0.10915840611E+02  0.27850952515E+02  0.16775619500E+02  0.34296538337E+02  0.00000000000E+00 0. -1.
        -11    1    5    5    0    0 -0.90149212132E+02  0.30077573596E+03  0.49142649859E+03  0.58317486855E+03  0.00000000000E+00 0.  1.
          4    1    6    6  503    0 -0.27062922537E+03 -0.22530160951E+03 -0.14046006392E+03  0.37911742564E+03  0.00000000000E+00 0.  1.
         -4    1    6    6    0  503  0.11270956548E+01 -0.26239996899E+02 -0.20095064797E+02  0.33069917011E+02  0.00000000000E+00 0. -1.
<mgrwt>
<rscale>  0 0.23596844E+04</rscale>
<asrwt>0</asrwt>
<pdfrwt beam="1">  1        2 0.30193401E+00 0.23596844E+04</pdfrwt>
<pdfrwt beam="2">  1       -1 0.10912120E+00 0.23596844E+04</pdfrwt>
<totfact> 0.55975805E+00</totfact>
</mgrwt>
</event>
<event>
12    6  0.1542110E-007  0.1505736E+04  0.7818608E-02  0.8880647E-01
          2   -1    0    0  501    0  0.00000000000E+00  0.00000000000E+00  0.10361728800E+04  0.10361728800E+04  0.00000000000E+00 0. -1.
         -1   -1    0    0    0  501 -0.00000000000E+00 -0.00000000000E+00 -0.54702308364E+03  0.54702308364E+03  0.00000000000E+00 0.  1.
         24    2    1    2    0    0  0.32187983086E+02 -0.29252689835E+03  0.55101045847E+03  0.63000447736E+03  0.81762238447E+02 0.  0.
        254    2    1    2    0    0 -0.32187983086E+02  0.29252689835E+03 -0.61860662118E+02  0.95319148627E+03  0.90451048389E+03 0.  0.
         23    2    4    4    0    0  0.34506883444E+03  0.18722910322E+03 -0.28391720672E+03  0.49302659021E+03  0.91318129568E+02 0.  0.
         23    2    4    4    0    0 -0.37725681753E+03  0.10529779513E+03  0.22205654460E+03  0.46016489605E+03  0.95038363452E+02 0.  0.
          4    1    3    3  502    0  0.33991538917E+02 -0.22892522375E+03  0.35370163339E+03  0.42269022730E+03  0.00000000000E+00 0. -1.
         -3    1    3    3    0  502 -0.18035558306E+01 -0.63601674596E+02  0.19730882508E+03  0.20731425006E+03  0.00000000000E+00 0.  1.
         11    1    5    5    0    0  0.34686181383E+03  0.17339233094E+03 -0.26569595904E+03  0.47007697346E+03  0.00000000000E+00 0.  1.
        -11    1    5    5    0    0 -0.17929793881E+01  0.13836772279E+02 -0.18221247683E+02  0.22949616758E+02  0.00000000000E+00 0. -1.
          1    1    6    6  503    0 -0.10622711257E+03 -0.34355966886E+01  0.91657087568E+02  0.14034608819E+03  0.00000000000E+00 0. -1.
         -1    1    6    6    0  503 -0.27102970496E+03  0.10873339182E+03  0.13039945704E+03  0.31981880786E+03  0.00000000000E+00 0.  1.
<mgrwt>
<rscale>  0 0.15057363E+04</rscale>
<asrwt>0</asrwt>
<pdfrwt beam="1">  1        2 0.15941121E+00 0.15057363E+04</pdfrwt>
<pdfrwt beam="2">  1       -1 0.84157397E-01 0.15057363E+04</pdfrwt>
<totfact> 0.36821263E+01</totfact>
</mgrwt>
</event>
<event>
12    6  0.1542110E-007  0.2048580E+04  0.7818608E-02  0.8584239E-01
         -1   -1    0    0    0  501 -0.00000000000E+00  0.00000000000E+00  0.50385492305E+03  0.50385492305E+03  0.00000000000E+00 0.  1.
          2   -1    0    0  501    0  0.00000000000E+00 -0.00000000000E+00 -0.20822861573E+04  0.20822861573E+04  0.00000000000E+00 0. -1.
         24    2    1    2    0    0 -0.36037307123E+02  0.53732010185E+03  0.14925152465E+03  0.56451530348E+03  0.79937043267E+02 0.  0.
        254    2    1    2    0    0  0.36037307123E+02 -0.53732010185E+03 -0.17276827589E+04  0.20216257768E+04  0.90115009123E+03 0.  0.
         23    2    4    4    0    0  0.10749688865E+03 -0.29810780067E+03 -0.63367279398E+02  0.33611501994E+03  0.92379936377E+02 0.  0.
         23    2    4    4    0    0 -0.71459581526E+02 -0.23921230119E+03 -0.16643154795E+04  0.16855107569E+04  0.93120886879E+02 0.  0.
          4    1    3    3  502    0 -0.11529999860E+01  0.16417963592E+03  0.82876887708E+02  0.18391536308E+03  0.00000000000E+00 0. -1.
         -3    1    3    3    0  502 -0.34884307137E+02  0.37314046593E+03  0.66374636946E+02  0.38059994040E+03  0.00000000000E+00 0.  1.
         11    1    5    5    0    0  0.73053726932E+02 -0.25053414927E+03 -0.83541729412E+02  0.27401355354E+03  0.00000000000E+00 0. -1.
        -11    1    5    5    0    0  0.34443161718E+02 -0.47573651399E+02  0.20174450014E+02  0.62101466407E+02  0.00000000000E+00 0.  1.
          3    1    6    6  503    0 -0.64506293695E+02 -0.91322158027E+02 -0.90642070721E+03  0.91329036836E+03  0.00000000000E+00 0. -1.
         -3    1    6    6    0  503 -0.69532878312E+01 -0.14789014316E+03 -0.75789477227E+03  0.77222038854E+03  0.00000000000E+00 0.  1.
<mgrwt>
<rscale>  0 0.20485801E+04</rscale>
<asrwt>0</asrwt>
<pdfrwt beam="1">  1        2 0.32035172E+00 0.20485801E+04</pdfrwt>
<pdfrwt beam="2">  1       -1 0.77516141E-01 0.20485801E+04</pdfrwt>
<totfact> 0.10562723E+01</totfact>
</mgrwt>
</event>
<event>
12    6  0.1542110E-007  0.1339822E+04  0.7818608E-02  0.8998569E-01
          2   -1    0    0  501    0  0.00000000000E+00  0.00000000000E+00  0.57245995058E+03  0.57245995058E+03  0.00000000000E+00 0. -1.
         -1   -1    0    0    0  501 -0.00000000000E+00 -0.00000000000E+00 -0.78395076172E+03  0.78395076172E+03  0.00000000000E+00 0.  1.
         24    2    1    2    0    0 -0.36120463713E+02 -0.19778002686E+03 -0.37899421678E+03  0.43675417853E+03  0.81828901876E+02 0.  0.
        254    2    1    2    0    0  0.36120463713E+02  0.19778002686E+03  0.16750340564E+03  0.91965653378E+03  0.88164001854E+03 0.  0.
         23    2    4    4    0    0 -0.28735780130E+03  0.59424002722E+02 -0.22871988673E+03  0.38198309921E+03  0.86559710173E+02 0.  0.
         23    2    4    4    0    0  0.32347826501E+03  0.13835602413E+03  0.39622329237E+03  0.53767343457E+03  0.91209908875E+02 0.  0.
          4    1    3    3  502    0 -0.16170224191E+02  0.16080764517E+01 -0.21775939174E+02  0.27170822350E+02  0.00000000000E+00 0. -1.
         -1    1    3    3    0  502 -0.19950239522E+02 -0.19938810331E+03 -0.35721827761E+03  0.40958335617E+03  0.00000000000E+00 0.  1.
         11    1    5    5    0    0 -0.28542046669E+03  0.54721230821E+02 -0.19993183888E+03  0.35274919717E+03  0.00000000000E+00 0. -1.
        -11    1    5    5    0    0 -0.19373346088E+01  0.47027719010E+01 -0.28788047852E+02  0.29233902033E+02  0.00000000000E+00 0.  1.
          2    1    6    6  503    0  0.41153952734E+02  0.47684734251E+02  0.10244514152E+03  0.12026008784E+03  0.00000000000E+00 0.  1.
         -2    1    6    6    0  503  0.28232431228E+03  0.90671289882E+02  0.29377815086E+03  0.41741334673E+03  0.00000000000E+00 0. -1.
<mgrwt>
<rscale>  0 0.13398215E+04</rscale>
<asrwt>0</asrwt>
<pdfrwt beam="1">  1        2 0.88070762E-01 0.13398215E+04</pdfrwt>
<pdfrwt beam="2">  1       -1 0.12060781E+00 0.13398215E+04</pdfrwt>
<totfact> 0.35867800E+01</totfact>
</mgrwt>
</event>
<event>
12    6  0.1542110E-007  0.1099739E+04  0.7818608E-02  0.9205446E-01
          2   -1    0    0  501    0  0.00000000000E+00  0.00000000000E+00  0.70909419348E+03  0.70909419348E+03  0.00000000000E+00 0. -1.
         -1   -1    0    0    0  501 -0.00000000000E+00 -0.00000000000E+00 -0.42639818504E+03  0.42639818504E+03  0.00000000000E+00 0.  1.
         24    2    1    2    0    0 -0.25623482698E+03 -0.12131779302E+02  0.22911259172E+03  0.35243938976E+03  0.76925139866E+02 0.  0.
        254    2    1    2    0    0  0.25623482698E+03  0.12131779302E+02  0.53583416723E+02  0.78305298876E+03  0.73790062612E+03 0.  0.
         23    2    4    4    0    0  0.20048418098E+03 -0.21178826776E+02 -0.32197734047E+03  0.39186824062E+03  0.96170997204E+02 0.  0.
         23    2    4    4    0    0  0.55750646002E+02  0.33310606077E+02  0.37556075719E+03  0.39118474814E+03  0.88101610839E+02 0.  0.
          2    1    3    3  502    0 -0.17477302879E+03  0.72427821397E+01  0.19517186831E+03  0.26208801511E+03  0.00000000000E+00 0. -1.
         -1    1    3    3    0  502 -0.81461798185E+02 -0.19374561441E+02  0.33940723409E+02  0.90351374645E+02  0.00000000000E+00 0.  1.
         11    1    5    5    0    0  0.55097964311E+02 -0.26814059905E+02 -0.17343280027E+03  0.18393943484E+03  0.00000000000E+00 0. -1.
        -11    1    5    5    0    0  0.14538621666E+03  0.56352331291E+01 -0.14854454020E+03  0.20792880577E+03  0.00000000000E+00 0.  1.
          3    1    6    6  503    0  0.36249559660E+02  0.54370421946E+02  0.33607721505E+03  0.34237124271E+03  0.00000000000E+00 0. -1.
         -3    1    6    6    0  503  0.19501086341E+02 -0.21059815869E+02  0.39483542140E+02  0.48813505435E+02  0.00000000000E+00 0.  1.
<mgrwt>
<rscale>  0 0.10997390E+04</rscale>
<asrwt>0</asrwt>
<pdfrwt beam="1">  1        2 0.10909141E+00 0.10997390E+04</pdfrwt>
<pdfrwt beam="2">  1       -1 0.65599721E-01 0.10997390E+04</pdfrwt>
<totfact> 0.10768521E+02</totfact>
</mgrwt>
</event>
<event>
12    6  0.1542110E-007  0.1361258E+04  0.7818608E-02  0.8982349E-01
          2   -1    0    0  501    0  0.00000000000E+00  0.00000000000E+00  0.17925655257E+04  0.17925655257E+04  0.00000000000E+00 0. -1.
         -1   -1    0    0    0  501 -0.00000000000E+00 -0.00000000000E+00 -0.25843192976E+03  0.25843192976E+03  0.00000000000E+00 0.  1.
         24    2    1    2    0    0  0.34862887503E+03 -0.19335588949E+02  0.72100190854E+03  0.80506216288E+03  0.79783309482E+02 0.  0.
        254    2    1    2    0    0 -0.34862887503E+03  0.19335588949E+02  0.81313168736E+03  0.12459352925E+04  0.87707220610E+03 0.  0.
         23    2    4    4    0    0  0.83934163557E+02 -0.16624535304E+03  0.73066964056E+03  0.75955953412E+03  0.91488256174E+02 0.  0.
         23    2    4    4    0    0 -0.43256303859E+03  0.18558094199E+03  0.82462046801E+02  0.48637575842E+03  0.90610820743E+02 0.  0.
          2    1    3    3  502    0  0.18940647591E+03 -0.31982739870E+02  0.31733245222E+03  0.37094149673E+03  0.00000000000E+00 0. -1.
         -1    1    3    3    0  502  0.15922239912E+03  0.12647150921E+02  0.40366945632E+03  0.43412066614E+03  0.00000000000E+00 0.  1.
         11    1    5    5    0    0 -0.25370552876E+01 -0.15720569739E+02  0.11262216121E+02  0.19504114294E+02  0.00000000000E+00 0. -1.
        -11    1    5    5    0    0  0.86471218844E+02 -0.15052478330E+03  0.71940742444E+03  0.74005541983E+03  0.00000000000E+00 0.  1.
          4    1    6    6  503    0 -0.24060050869E+02  0.33158442888E+01  0.25879484095E+02  0.35491246360E+02  0.00000000000E+00 0. -1.
         -4    1    6    6    0  503 -0.40850298772E+03  0.18226509770E+03  0.56582562706E+02  0.45088451206E+03  0.00000000000E+00 0.  1.
<mgrwt>
<rscale>  0 0.13612585E+04</rscale>
<asrwt>0</asrwt>
<pdfrwt beam="1">  1        2 0.27577930E+00 0.13612585E+04</pdfrwt>
<pdfrwt beam="2">  1       -1 0.39758759E-01 0.13612585E+04</pdfrwt>
<totfact> 0.59658272E+01</totfact>
</mgrwt>
</event>
<event>
12    6  0.1542110E-007  0.2044334E+04  0.7818608E-02  0.8586169E-01
         -1   -1    0    0    0  501 -0.00000000000E+00  0.00000000000E+00  0.92537639331E+03  0.92537639331E+03  0.00000000000E+00 0.  1.
          2   -1    0    0  501    0  0.00000000000E+00 -0.00000000000E+00 -0.11290819245E+04  0.11290819245E+04  0.00000000000E+00 0. -1.
         24    2    1    2    0    0 -0.57388438228E+03 -0.32995592688E+03  0.40994728723E+03  0.78242830385E+03  0.76961512714E+02 0.  0.
        254    2    1    2    0    0  0.57388438228E+03  0.32995592688E+03 -0.61365281840E+03  0.12720300139E+04  0.89625686993E+03 0.  0.
         23    2    4    4    0    0  0.26969118935E+03  0.40514207595E+03 -0.76535953951E+03  0.91181202710E+03  0.93554843416E+02 0.  0.
         23    2    4    4    0    0  0.30419319293E+03 -0.75186149072E+02  0.15170672111E+03  0.36021798683E+03  0.92496557606E+02 0.  0.
          2    1    3    3  502    0 -0.93695245675E+01 -0.36225269996E+01 -0.31582316303E+01  0.10530200355E+02  0.00000000000E+00 0. -1.
         -3    1    3    3    0  502 -0.56451485772E+03 -0.32633339988E+03  0.41310551886E+03  0.77189810349E+03  0.00000000000E+00 0.  1.
         11    1    5    5    0    0 -0.24222747795E+01  0.40600421567E+02 -0.65674791621E+02  0.77249206475E+02  0.00000000000E+00 0.  1.
        -11    1    5    5    0    0  0.27211346413E+03  0.36454165438E+03 -0.69968474789E+03  0.83456282063E+03  0.00000000000E+00 0. -1.
          4    1    6    6  503    0  0.29715271882E+03 -0.51538550788E+02  0.14507965778E+03  0.33467008772E+03  0.00000000000E+00 0. -1.
         -4    1    6    6    0  503  0.70404741145E+01 -0.23647598283E+02  0.66270633357E+01  0.25547899107E+02  0.00000000000E+00 0.  1.
<mgrwt>
<rscale>  0 0.20443344E+04</rscale>
<asrwt>0</asrwt>
<pdfrwt beam="1">  1        2 0.17370491E+00 0.20443344E+04</pdfrwt>
<pdfrwt beam="2">  1       -1 0.14236560E+00 0.20443344E+04</pdfrwt>
<totfact> 0.88530138E+00</totfact>
</mgrwt>
</event>
<event>
12    6  0.1542110E-007  0.1189805E+04  0.7818608E-02  0.9121827E-01
         -1   -1    0    0    0  501 -0.00000000000E+00  0.00000000000E+00  0.34556182648E+03  0.34556182648E+03  0.00000000000E+00 0.  1.
          2   -1    0    0  501    0  0.00000000000E+00 -0.00000000000E+00 -0.10241560694E+04  0.10241560694E+04  0.00000000000E+00 0. -1.
         24    2    1    2    0    0 -0.77069165302E+02 -0.10766423441E+03  0.86246668481E+02  0.17699438655E+03  0.79732561947E+02 0.  0.
        254    2    1    2    0    0  0.77069165302E+02  0.10766423441E+03 -0.76484091145E+03  0.11927235094E+04  0.90558075641E+03 0.  0.
         23    2    4    4    0    0  0.46934595780E+03  0.35251666624E+02 -0.55791856042E+03  0.73513025336E+03  0.87264318264E+02 0.  0.
         23    2    4    4    0    0 -0.39227679250E+03  0.72412567786E+02 -0.20692235104E+03  0.45759325602E+03  0.86313768803E+02 0.  0.
          4    1    3    3  502    0 -0.39469086236E+02 -0.76238508430E+02  0.10098687473E+02  0.86441323593E+02  0.00000000000E+00 0. -1.
         -3    1    3    3    0  502 -0.37600079065E+02 -0.31425725980E+02  0.76147981008E+02  0.90553062956E+02  0.00000000000E+00 0.  1.
         11    1    5    5    0    0  0.33754942900E+02 -0.21964926048E+01 -0.82932080758E+02  0.89565343570E+02  0.00000000000E+00 0.  1.
        -11    1    5    5    0    0  0.43559101490E+03  0.37448159229E+02 -0.47498647966E+03  0.64556490979E+03  0.00000000000E+00 0. -1.
          1    1    6    6  503    0 -0.38711921365E+03  0.76110708656E+02 -0.21338202200E+03  0.44853763818E+03  0.00000000000E+00 0. -1.
         -1    1    6    6    0  503 -0.51575788542E+01 -0.36981408696E+01  0.64596709640E+01  0.90556178415E+01  0.00000000000E+00 0.  1.
<mgrwt>
<rscale>  0 0.11898054E+04</rscale>
<asrwt>0</asrwt>
<pdfrwt beam="1">  1        2 0.15756247E+00 0.11898054E+04</pdfrwt>
<pdfrwt beam="2">  1       -1 0.53163358E-01 0.11898054E+04</pdfrwt>
<totfact> 0.97661009E+01</totfact>
</mgrwt>
</event>
<event>
12    6  0.1542110E-007  0.1469758E+04  0.7818608E-02  0.8904816E-01
          2   -1    0    0  501    0  0.00000000000E+00  0.00000000000E+00  0.12656512446E+04  0.12656512446E+04  0.00000000000E+00 0. -1.
         -1   -1    0    0    0  501 -0.00000000000E+00 -0.00000000000E+00 -0.42669491780E+03  0.42669491780E+03  0.00000000000E+00 0.  1.
         24    2    1    2    0    0 -0.36559868736E+03 -0.18977598638E+03  0.35126178741E+02  0.42100723426E+03  0.79598477735E+02 0.  0.
        254    2    1    2    0    0  0.36559868736E+03  0.18977598638E+03  0.80383014809E+03  0.12713389282E+04  0.89469684147E+03 0.  0.
         23    2    4    4    0    0  0.43933900448E+03 -0.26063080656E+03  0.40259810769E+03  0.65681902582E+03  0.91535884590E+02 0.  0.
         23    2    4    4    0    0 -0.73740317122E+02  0.45040679294E+03  0.40123204039E+03  0.61451990237E+03  0.91343563914E+02 0.  0.
          4    1    3    3  502    0 -0.11712838150E+03 -0.34517498119E+02  0.38385565714E+02  0.12799987142E+03  0.00000000000E+00 0. -1.
         -1    1    3    3    0  502 -0.24847030586E+03 -0.15525848826E+03 -0.32593869724E+01  0.29300736283E+03  0.00000000000E+00 0.  1.
         11    1    5    5    0    0  0.10025238776E+03 -0.39889537328E+02  0.45252752936E+02  0.11700225676E+03  0.00000000000E+00 0. -1.
        -11    1    5    5    0    0  0.33908661672E+03 -0.22074126923E+03  0.35734535476E+03  0.53981676905E+03  0.00000000000E+00 0.  1.
          2    1    6    6  503    0 -0.88505595317E+02  0.30447313946E+03  0.24937901441E+03  0.40339438008E+03  0.00000000000E+00 0.  1.
         -2    1    6    6    0  503  0.14765278195E+02  0.14593365349E+03  0.15185302599E+03  0.21112552229E+03  0.00000000000E+00 0. -1.
<mgrwt>
<rscale>  0 0.14697577E+04</rscale>
<asrwt>0</asrwt>
<pdfrwt beam="1">  1        2 0.19471557E+00 0.14697577E+04</pdfrwt>
<pdfrwt beam="2">  1       -1 0.65645372E-01 0.14697577E+04</pdfrwt>
<totfact> 0.44966853E+01</totfact>
</mgrwt>
</event>
<event>
12    6  0.1542110E-007  0.1954369E+04  0.7818608E-02  0.8628257E-01
         -1   -1    0    0    0  501 -0.00000000000E+00  0.00000000000E+00  0.28077174737E+03  0.28077174737E+03  0.00000000000E+00 0.  1.
          2   -1    0    0  501    0  0.00000000000E+00 -0.00000000000E+00 -0.34009471939E+04  0.34009471939E+04  0.00000000000E+00 0. -1.
         24    2    1    2    0    0 -0.31967116242E+03  0.30786270067E+03 -0.24254949023E+04  0.24670800472E+04  0.80556462734E+02 0.  0.
        254    2    1    2    0    0  0.31967116242E+03 -0.30786270067E+03 -0.69468054422E+03  0.12146388941E+04  0.89207482303E+03 0.  0.
         23    2    4    4    0    0  0.52623917190E+03 -0.27129945783E+03 -0.13987732151E+03  0.61532157112E+03  0.92325018020E+02 0.  0.
         23    2    4    4    0    0 -0.20656800948E+03 -0.36563242843E+02 -0.55480322271E+03  0.59931732294E+03  0.85833701836E+02 0.  0.
          2    1    3    3  502    0 -0.22970533831E+03  0.26480954291E+03 -0.19459158503E+04  0.19772397763E+04  0.00000000000E+00 0. -1.
         -1    1    3    3    0  502 -0.89965824105E+02  0.43053157761E+02 -0.47957905199E+03  0.48984027091E+03  0.00000000000E+00 0.  1.
         11    1    5    5    0    0  0.39030382705E+03 -0.15464790920E+03 -0.10633955170E+03  0.43308331010E+03  0.00000000000E+00 0. -1.
        -11    1    5    5    0    0  0.13593534485E+03 -0.11665154862E+03 -0.33537769811E+02  0.18223826102E+03  0.00000000000E+00 0.  1.
          1    1    6    6  503    0 -0.54647719340E+02 -0.49966382141E+02 -0.17298398491E+03  0.18816607454E+03  0.00000000000E+00 0. -1.
         -1    1    6    6    0  503 -0.15192029014E+03  0.13403139298E+02 -0.38181923780E+03  0.41115124839E+03  0.00000000000E+00 0.  1.
<mgrwt>
<rscale>  0 0.19543693E+04</rscale>
<asrwt>0</asrwt>
<pdfrwt beam="1">  1        2 0.52322263E+00 0.19543693E+04</pdfrwt>
<pdfrwt beam="2">  1       -1 0.43195655E-01 0.19543693E+04</pdfrwt>
<totfact> 0.53694256E+00</totfact>
</mgrwt>
</event>
<event>
12    6  0.1542110E-007  0.1417272E+04  0.7818608E-02  0.8941411E-01
          2   -1    0    0  501    0  0.00000000000E+00  0.00000000000E+00  0.40379192703E+04  0.40379192703E+04  0.00000000000E+00 0. -1.
         -1   -1    0    0    0  501 -0.00000000000E+00 -0.00000000000E+00 -0.12436224042E+03  0.12436224042E+03  0.00000000000E+00 0.  1.
         24    2    1    2    0    0 -0.41624368586E+03  0.82948127038E+02  0.79299752992E+03  0.90298522019E+03  0.79987671797E+02 0.  0.
        254    2    1    2    0    0  0.41624368586E+03 -0.82948127038E+02  0.31205595000E+04  0.32592962906E+04  0.83963177575E+03 0.  0.
         23    2    4    4    0    0 -0.13550077304E+03 -0.26722776694E+03  0.68076537928E+03  0.74953716756E+03  0.92700188867E+02 0.  0.
         23    2    4    4    0    0  0.55174445889E+03  0.18427963990E+03  0.24397941207E+04  0.25097591230E+04  0.88963871150E+02 0.  0.
          2    1    3    3  502    0 -0.24032255062E+02 -0.10259990628E+02  0.76799003534E+02  0.81122768905E+02  0.00000000000E+00 0. -1.
         -1    1    3    3    0  502 -0.39221143079E+03  0.93208117666E+02  0.71619852638E+03  0.82186245129E+03  0.00000000000E+00 0.  1.
         11    1    5    5    0    0 -0.11643500282E+03 -0.13761041253E+03  0.43873785248E+03  0.47432545653E+03  0.00000000000E+00 0. -1.
        -11    1    5    5    0    0 -0.19065770211E+02 -0.12961735441E+03  0.24202752680E+03  0.27521171103E+03  0.00000000000E+00 0.  1.
          2    1    6    6  503    0  0.43504769525E+03  0.12822294787E+03  0.17431961433E+04  0.18012330264E+04  0.00000000000E+00 0.  1.
         -2    1    6    6    0  503  0.11669676365E+03  0.56056692033E+02  0.69659797741E+03  0.70852609655E+03  0.00000000000E+00 0. -1.
<mgrwt>
<rscale>  0 0.14172716E+04</rscale>
<asrwt>0</asrwt>
<pdfrwt beam="1">  1        2 0.62121825E+00 0.14172716E+04</pdfrwt>
<pdfrwt beam="2">  1       -1 0.19132656E-01 0.14172716E+04</pdfrwt>
<totfact> 0.79931129E+00</totfact>
</mgrwt>
</event>
<event>
12    6  0.1542110E-007  0.1169090E+04  0.7818608E-02  0.9140351E-01
          2   -1    0    0  501    0  0.00000000000E+00  0.00000000000E+00  0.31612625919E+04  0.31612625919E+04  0.00000000000E+00 0. -1.
         -1   -1    0    0    0  501 -0.00000000000E+00 -0.00000000000E+00 -0.10808748916E+03  0.10808748916E+03  0.00000000000E+00 0.  1.
         24    2    1    2    0    0 -0.12753342364E+03  0.14544641811E+03  0.24167226132E+03  0.31983668858E+03  0.80439982503E+02 0.  0.
        254    2    1    2    0    0  0.12753342364E+03 -0.14544641811E+03  0.28115028414E+04  0.29495133925E+04  0.87043758562E+03 0.  0.
         23    2    4    4    0    0  0.32689763936E+03  0.26136142612E+03  0.13226897397E+04  0.13907178985E+04  0.97037436229E+02 0.  0.
         23    2    4    4    0    0 -0.19936421573E+03 -0.40680784423E+03  0.14888131018E+04  0.15587954940E+04  0.89667316070E+02 0.  0.
          2    1    3    3  502    0 -0.10328250344E+02  0.65533666699E+02  0.94149951594E+02  0.11517615904E+03  0.00000000000E+00 0. -1.
         -1    1    3    3    0  502 -0.11720517329E+03  0.79912751410E+02  0.14752230973E+03  0.20466052954E+03  0.00000000000E+00 0.  1.
         11    1    5    5    0    0  0.26096635459E+03  0.17492709686E+03  0.10805213003E+04  0.11252685048E+04  0.00000000000E+00 0. -1.
        -11    1    5    5    0    0  0.65931284779E+02  0.86434329259E+02  0.24216843931E+03  0.26544939364E+03  0.00000000000E+00 0.  1.
          1    1    6    6  503    0 -0.18497991668E+03 -0.31826316185E+03  0.11076152809E+04  0.11671849126E+04  0.00000000000E+00 0. -1.
         -1    1    6    6    0  503 -0.14384299050E+02 -0.88544682376E+02  0.38119782088E+03  0.39161058142E+03  0.00000000000E+00 0.  1.
<mgrwt>
<rscale>  0 0.11690901E+04</rscale>
<asrwt>0</asrwt>
<pdfrwt beam="1">  1        2 0.48634802E+00 0.11690901E+04</pdfrwt>
<pdfrwt beam="2">  1       -1 0.16628847E-01 0.11690901E+04</pdfrwt>
<totfact> 0.43841611E+01</totfact>
</mgrwt>
</event>
<event>
12    6  0.1542110E-007  0.1169535E+04  0.7818608E-02  0.9139948E-01
          2   -1    0    0  501    0  0.00000000000E+00  0.00000000000E+00  0.56746459642E+03  0.56746459642E+03  0.00000000000E+00 0. -1.
         -1   -1    0    0    0  501 -0.00000000000E+00 -0.00000000000E+00 -0.60259825217E+03  0.60259825217E+03  0.00000000000E+00 0.  1.
         24    2    1    2    0    0 -0.21065901533E+03  0.78247890676E+02 -0.79806655410E+02  0.25105747113E+03  0.78490753779E+02 0.  0.
        254    2    1    2    0    0  0.21065901533E+03 -0.78247890676E+02  0.44672999654E+02  0.91900537746E+03  0.88998609751E+03 0.  0.
         23    2    4    4    0    0  0.51998225090E+03  0.64372616420E+02  0.14572755619E+03  0.55218730363E+03  0.95650000861E+02 0.  0.
         23    2    4    4    0    0 -0.30932323557E+03 -0.14262050710E+03 -0.10105455654E+03  0.36681807383E+03  0.91225011825E+02 0.  0.
          2    1    3    3  502    0 -0.95540031069E+02  0.21292249103E+02  0.35374878338E+01  0.97947798488E+02  0.00000000000E+00 0. -1.
         -1    1    3    3    0  502 -0.11511898426E+03  0.56955641574E+02 -0.83344143243E+02  0.15310967265E+03  0.00000000000E+00 0.  1.
         11    1    5    5    0    0  0.30626356408E+02 -0.27099910518E+01 -0.12994265139E+02  0.33379165431E+02  0.00000000000E+00 0.  1.
        -11    1    5    5    0    0  0.48935589449E+03  0.67082607472E+02  0.15872182133E+03  0.51880813820E+03  0.00000000000E+00 0. -1.
          3    1    6    6  503    0 -0.13932190072E+03 -0.74285469113E+02 -0.93379846318E+02  0.18343587065E+03  0.00000000000E+00 0. -1.
         -3    1    6    6    0  503 -0.17000133485E+03 -0.68335037983E+02 -0.76747102198E+01  0.18338220318E+03  0.00000000000E+00 0.  1.
<mgrwt>
<rscale>  0 0.11695352E+04</rscale>
<asrwt>0</asrwt>
<pdfrwt beam="1">  1        2 0.87302246E-01 0.11695352E+04</pdfrwt>
<pdfrwt beam="2">  1       -1 0.92707423E-01 0.11695352E+04</pdfrwt>
<totfact> 0.67831015E+01</totfact>
</mgrwt>
</event>
<event>
12    6  0.1542110E-007  0.1258842E+04  0.7818608E-02  0.9062856E-01
          2   -1    0    0  501    0  0.00000000000E+00  0.00000000000E+00  0.15436185901E+04  0.15436185901E+04  0.00000000000E+00 0. -1.
         -1   -1    0    0    0  501 -0.00000000000E+00 -0.00000000000E+00 -0.25665084344E+03  0.25665084344E+03  0.00000000000E+00 0.  1.
         24    2    1    2    0    0 -0.26676160726E+02 -0.23556608843E+03  0.53662949545E+02  0.25650435231E+03  0.81925399191E+02 0.  0.
        254    2    1    2    0    0  0.26676160726E+02  0.23556608843E+03  0.12333047971E+04  0.15437650812E+04  0.89775659500E+03 0.  0.
         23    2    4    4    0    0  0.13712879711E+03 -0.24919716454E+03  0.11772741457E+03  0.31873061068E+03  0.82619151732E+02 0.  0.
         23    2    4    4    0    0 -0.11045263638E+03  0.48476325297E+03  0.11155773825E+04  0.12250344705E+04  0.94875503987E+02 0.  0.
          4    1    3    3  502    0  0.99969219820E+01 -0.97144856090E+02  0.57364446896E+02  0.11325961894E+03  0.00000000000E+00 0. -1.
         -3    1    3    3    0  502 -0.36673082708E+02 -0.13842123234E+03 -0.37014973507E+01  0.14324473338E+03  0.00000000000E+00 0.  1.
         11    1    5    5    0    0  0.86277255118E+01  0.49549877152E+01  0.10384683095E+02  0.14381626950E+02  0.00000000000E+00 0. -1.
        -11    1    5    5    0    0  0.12850107159E+03 -0.25415215226E+03  0.10734273147E+03  0.30434898373E+03  0.00000000000E+00 0.  1.
          4    1    6    6  503    0 -0.10334043259E+03  0.35504693897E+03  0.73280350782E+03  0.82081578625E+03  0.00000000000E+00 0.  1.
         -4    1    6    6    0  503 -0.71122037851E+01  0.12971631400E+03  0.38277387472E+03  0.40421868429E+03  0.00000000000E+00 0. -1.
<mgrwt>
<rscale>  0 0.12588423E+04</rscale>
<asrwt>0</asrwt>
<pdfrwt beam="1">  1        2 0.23747978E+00 0.12588423E+04</pdfrwt>
<pdfrwt beam="2">  1       -1 0.39484746E-01 0.12588423E+04</pdfrwt>
<totfact> 0.83759226E+01</totfact>
</mgrwt>
</event>
<event>
12    6  0.1542110E-007  0.1173010E+04  0.7818608E-02  0.9136814E-01
          4   -1    0    0  501    0  0.00000000000E+00  0.00000000000E+00  0.67239385991E+03  0.67239385991E+03  0.00000000000E+00 0. -1.
         -3   -1    0    0    0  501 -0.00000000000E+00 -0.00000000000E+00 -0.51158719550E+03  0.51158719550E+03  0.00000000000E+00 0.  1.
         24    2    1    2    0    0  0.36070311519E+02  0.21041276501E+03  0.62377287419E+02  0.23616471188E+03  0.79424467887E+02 0.  0.
        254    2    1    2    0    0 -0.36070311519E+02 -0.21041276501E+03  0.98429376989E+02  0.94781634353E+03  0.91820089292E+03 0.  0.
         23    2    4    4    0    0  0.17024135586E+03 -0.42444735726E+03 -0.20877593829E+03  0.51068049830E+03  0.89830399126E+02 0.  0.
         23    2    4    4    0    0 -0.20631166738E+03  0.21403459224E+03  0.30720531528E+03  0.43713584523E+03  0.91308984605E+02 0.  0.
          2    1    3    3  502    0  0.56442938901E+01  0.57767977929E+02 -0.18288356793E+02  0.60856070542E+02  0.00000000000E+00 0. -1.
         -1    1    3    3    0  502  0.30426017629E+02  0.15264478708E+03  0.80665644212E+02  0.17530864134E+03  0.00000000000E+00 0.  1.
         11    1    5    5    0    0  0.14895990026E+03 -0.41527351458E+03 -0.18804034965E+03  0.47958348272E+03  0.00000000000E+00 0. -1.
        -11    1    5    5    0    0  0.21281455602E+02 -0.91738426756E+01 -0.20735588639E+02  0.31097015583E+02  0.00000000000E+00 0.  1.
          1    1    6    6  503    0 -0.16660851855E+03  0.17443640207E+03  0.29255977352E+03  0.37918027099E+03  0.00000000000E+00 0. -1.
         -1    1    6    6    0  503 -0.39703148830E+02  0.39598190174E+02  0.14645541758E+02  0.57955574240E+02  0.00000000000E+00 0.  1.
<mgrwt>
<rscale>  0 0.11730100E+04</rscale>
<asrwt>0</asrwt>
<pdfrwt beam="1">  1        4 0.10344521E+00 0.11730100E+04</pdfrwt>
<pdfrwt beam="2">  1       -3 0.78705722E-01 0.11730100E+04</pdfrwt>
<totfact> 0.25919523E+00</totfact>
</mgrwt>
</event>
<event>
12    6  0.1542110E-007  0.1579645E+04  0.7818608E-02  0.8833151E-01
         -1   -1    0    0    0  501 -0.00000000000E+00  0.00000000000E+00  0.20755878379E+03  0.20755878379E+03  0.00000000000E+00 0.  1.
          2   -1    0    0  501    0  0.00000000000E+00 -0.00000000000E+00 -0.30055086335E+04  0.30055086335E+04  0.00000000000E+00 0. -1.
         24    2    1    2    0    0  0.94919951954E+02 -0.52627685240E+03 -0.10263130277E+04  0.11605839564E+04  0.87518948238E+02 0.  0.
        254    2    1    2    0    0 -0.94919951954E+02  0.52627685240E+03 -0.17716368220E+04  0.20524834609E+04  0.88770164223E+03 0.  0.
         23    2    4    4    0    0 -0.39756674892E+03  0.10771540158E+03 -0.12218055321E+04  0.12927074604E+04  0.92854144599E+02 0.  0.
         23    2    4    4    0    0  0.30264679697E+03  0.41856145082E+03 -0.54983128986E+03  0.75977600054E+03  0.90312523253E+02 0.  0.
          2    1    3    3  502    0 -0.13804623238E+02 -0.10680848704E+03 -0.17921500436E+03  0.20908524174E+03  0.00000000000E+00 0. -1.
         -1    1    3    3    0  502  0.10872457519E+03 -0.41946836536E+03 -0.84709802335E+03  0.95149871464E+03  0.00000000000E+00 0.  1.
         11    1    5    5    0    0 -0.34806554359E+02  0.40041694893E+02 -0.14201796487E+03  0.15160453787E+03  0.00000000000E+00 0.  1.
        -11    1    5    5    0    0 -0.36276019456E+03  0.67673706687E+02 -0.10797875673E+04  0.11411029225E+04  0.00000000000E+00 0. -1.
          3    1    6    6  503    0  0.20359625669E+02  0.81965751861E+02 -0.75736104759E+02  0.11344098201E+03  0.00000000000E+00 0. -1.
         -3    1    6    6    0  503  0.28228717130E+03  0.33659569895E+03 -0.47409518510E+03  0.64633501852E+03  0.00000000000E+00 0.  1.
<mgrwt>
<rscale>  0 0.15796452E+04</rscale>
<asrwt>0</asrwt>
<pdfrwt beam="1">  1        2 0.46238593E+00 0.15796452E+04</pdfrwt>
<pdfrwt beam="2">  1       -1 0.31932121E-01 0.15796452E+04</pdfrwt>
<totfact> 0.17373635E+01</totfact>
</mgrwt>
</event>
<event>
12    6  0.1542110E-007  0.3348644E+04  0.7818608E-02  0.8150627E-01
          2   -1    0    0  501    0  0.00000000000E+00  0.00000000000E+00  0.13625390370E+04  0.13625390370E+04  0.00000000000E+00 0. -1.
         -1   -1    0    0    0  501 -0.00000000000E+00 -0.00000000000E+00 -0.20574486666E+04  0.20574486666E+04  0.00000000000E+00 0.  1.
         24    2    1    2    0    0  0.14954265889E+04  0.38589582957E+03 -0.46422097856E+03  0.16146093619E+04  0.79031641468E+02 0.  0.
        254    2    1    2    0    0 -0.14954265889E+04 -0.38589582957E+03 -0.23068865104E+03  0.18053783417E+04  0.90606701125E+03 0.  0.
         23    2    4    4    0    0 -0.68421475059E+03  0.19255017078E+03  0.15491084130E+03  0.73332729799E+03  0.92445465166E+02 0.  0.
         23    2    4    4    0    0 -0.81121183834E+03 -0.57844600034E+03 -0.38559949235E+03  0.10720510437E+04  0.89118179343E+02 0.  0.
          4    1    3    3  502    0  0.14577999304E+04  0.36815160661E+03 -0.44071363572E+03  0.15668263309E+04  0.00000000000E+00 0. -1.
         -3    1    3    3    0  502  0.37626658523E+02  0.17744222953E+02 -0.23507342838E+02  0.47783030954E+02  0.00000000000E+00 0.  1.
         11    1    5    5    0    0 -0.68259531328E+03  0.19209891809E+03  0.14564929419E+03  0.72391440996E+03  0.00000000000E+00 0.  1.
        -11    1    5    5    0    0 -0.16194373102E+01  0.45125269020E+00  0.92615471137E+01  0.94128880335E+01  0.00000000000E+00 0. -1.
          2    1    6    6  503    0 -0.40387042277E+03 -0.26128390328E+03 -0.14437787390E+03  0.50222063575E+03  0.00000000000E+00 0. -1.
         -2    1    6    6    0  503 -0.40734141558E+03 -0.31716209707E+03 -0.24122161845E+03  0.56983040799E+03  0.00000000000E+00 0.  1.
<mgrwt>
<rscale>  0 0.33486440E+04</rscale>
<asrwt>0</asrwt>
<pdfrwt beam="1">  1        2 0.20962139E+00 0.33486440E+04</pdfrwt>
<pdfrwt beam="2">  1       -1 0.31653056E+00 0.33486440E+04</pdfrwt>
<totfact> 0.37137786E-01</totfact>
</mgrwt>
</event>
<event>
12    6  0.1542110E-007  0.3304503E+04  0.7818608E-02  0.8161751E-01
          2   -1    0    0  501    0  0.00000000000E+00  0.00000000000E+00  0.21255679725E+04  0.21255679725E+04  0.00000000000E+00 0. -1.
         -1   -1    0    0    0  501 -0.00000000000E+00 -0.00000000000E+00 -0.12843316972E+04  0.12843316972E+04  0.00000000000E+00 0.  1.
         24    2    1    2    0    0  0.75049126822E+03  0.53511903536E+03 -0.84638442915E+03  0.12537691704E+04  0.77336958221E+02 0.  0.
        254    2    1    2    0    0 -0.75049126822E+03 -0.53511903536E+03  0.16876207044E+04  0.21561304993E+04  0.97531818519E+03 0.  0.
         23    2    4    4    0    0  0.12206761506E+03  0.15691717266E+03  0.20816223527E+03  0.30212647461E+03  0.91789916362E+02 0.  0.
         23    2    4    4    0    0 -0.87255888327E+03 -0.69203620803E+03  0.14794584692E+04  0.18540040247E+04  0.90886982849E+02 0.  0.
          2    1    3    3  502    0  0.22119333214E+03  0.14593558062E+03 -0.19877729029E+03  0.33126438838E+03  0.00000000000E+00 0. -1.
         -1    1    3    3    0  502  0.52929793607E+03  0.38918345475E+03 -0.64760713885E+03  0.92250478203E+03  0.00000000000E+00 0.  1.
         11    1    5    5    0    0  0.71839819005E+02  0.45022042249E+02  0.39367204692E+02  0.93475775944E+02  0.00000000000E+00 0.  1.
        -11    1    5    5    0    0  0.50227796050E+02  0.11189513041E+03  0.16879503057E+03  0.20865069866E+03  0.00000000000E+00 0. -1.
          4    1    6    6  503    0 -0.35503399767E+03 -0.29984618943E+03  0.54739134030E+03  0.71804885367E+03  0.00000000000E+00 0. -1.
         -4    1    6    6    0  503 -0.51752488561E+03 -0.39219001860E+03  0.93206712886E+03  0.11359551710E+04  0.00000000000E+00 0.  1.
<mgrwt>
<rscale>  0 0.33045026E+04</rscale>
<asrwt>0</asrwt>
<pdfrwt beam="1">  1        2 0.32701046E+00 0.33045026E+04</pdfrwt>
<pdfrwt beam="2">  1       -1 0.19758949E+00 0.33045026E+04</pdfrwt>
<totfact> 0.84421571E-01</totfact>
</mgrwt>
</event>
<event>
12    6  0.1542110E-007  0.1195833E+04  0.7818608E-02  0.9116511E-01
         -1   -1    0    0    0  501 -0.00000000000E+00  0.00000000000E+00  0.13726705595E+03  0.13726705595E+03  0.00000000000E+00 0.  1.
          2   -1    0    0  501    0  0.00000000000E+00 -0.00000000000E+00 -0.26044437482E+04  0.26044437482E+04  0.00000000000E+00 0. -1.
         24    2    1    2    0    0 -0.10136269835E+03  0.61993810780E+01 -0.10539545636E+04  0.10612378073E+04  0.71362682347E+02 0.  0.
        254    2    1    2    0    0  0.10136269835E+03 -0.61993810780E+01 -0.14132221286E+04  0.16804729968E+04  0.90359276195E+03 0.  0.
         23    2    4    4    0    0  0.38374724752E+03 -0.47787173620E+02 -0.22823549043E+03  0.45816318555E+03  0.90975279948E+02 0.  0.
         23    2    4    4    0    0 -0.28238454917E+03  0.41587792542E+02 -0.11849866381E+04  0.12223098113E+04  0.91527941598E+02 0.  0.
          2    1    3    3  502    0 -0.70968781913E+02  0.15779782171E+02 -0.94297256696E+03  0.94577102492E+03  0.00000000000E+00 0. -1.
         -1    1    3    3    0  502 -0.30393916437E+02 -0.95804010928E+01 -0.11098199668E+03  0.11546678236E+03  0.00000000000E+00 0.  1.
         11    1    5    5    0    0  0.29354993749E+02 -0.13635856426E+02 -0.51125080969E+02  0.60509719406E+02  0.00000000000E+00 0. -1.
        -11    1    5    5    0    0  0.35439225377E+03 -0.34151317194E+02 -0.17711040946E+03  0.39765346615E+03  0.00000000000E+00 0.  1.
          1    1    6    6  503    0 -0.86126678836E+02  0.36714043051E+02 -0.54177989925E+03  0.54981013541E+03  0.00000000000E+00 0. -1.
         -1    1    6    6    0  503 -0.19625787033E+03  0.48737494909E+01 -0.64320673888E+03  0.67249967586E+03  0.00000000000E+00 0.  1.
<mgrwt>
<rscale>  0 0.11958333E+04</rscale>
<asrwt>0</asrwt>
<pdfrwt beam="1">  1        2 0.40068360E+00 0.11958333E+04</pdfrwt>
<pdfrwt beam="2">  1       -1 0.21118011E-01 0.11958333E+04</pdfrwt>
<totfact> 0.63988283E+01</totfact>
</mgrwt>
</event>
<event>
12    6  0.1542110E-007  0.2748886E+04  0.7818608E-02  0.8319315E-01
          2   -1    0    0  501    0  0.00000000000E+00  0.00000000000E+00  0.37457322528E+04  0.37457322528E+04  0.00000000000E+00 0. -1.
         -1   -1    0    0    0  501 -0.00000000000E+00 -0.00000000000E+00 -0.50433224800E+03  0.50433224800E+03  0.00000000000E+00 0.  1.
         24    2    1    2    0    0 -0.82961743039E+03  0.53910654968E+03  0.32924706128E+03  0.10460332288E+04  0.82951406106E+02 0.  0.
        254    2    1    2    0    0  0.82961743039E+03 -0.53910654968E+03  0.29121529435E+04  0.32040312719E+04  0.89793132946E+03 0.  0.
         23    2    4    4    0    0  0.43363226865E+03 -0.66355647520E+03  0.12118246290E+04  0.14513703811E+04  0.98045456212E+02 0.  0.
         23    2    4    4    0    0  0.39598516174E+03  0.12444992552E+03  0.17003283145E+04  0.17526608908E+04  0.91715804757E+02 0.  0.
          4    1    3    3  502    0 -0.10519298934E+03  0.98513680863E+02  0.32697152496E+02  0.14778232000E+03  0.00000000000E+00 0. -1.
         -3    1    3    3    0  502 -0.72442444105E+03  0.44059286882E+03  0.29654990878E+03  0.89825090885E+03  0.00000000000E+00 0.  1.
         11    1    5    5    0    0  0.42447023783E+03 -0.60266643589E+03  0.11193261778E+04  0.13402510616E+04  0.00000000000E+00 0. -1.
        -11    1    5    5    0    0  0.91620308147E+01 -0.60890039314E+02  0.92498451112E+02  0.11111931945E+03  0.00000000000E+00 0.  1.
          3    1    6    6  503    0  0.17119682257E+03  0.89415417537E+02  0.65611511415E+03  0.68395212695E+03  0.00000000000E+00 0. -1.
         -3    1    6    6    0  503  0.22478833918E+03  0.35034507982E+02  0.10442132004E+04  0.10687087639E+04  0.00000000000E+00 0.  1.
<mgrwt>
<rscale>  0 0.27488860E+04</rscale>
<asrwt>0</asrwt>
<pdfrwt beam="1">  1        2 0.57626648E+00 0.27488860E+04</pdfrwt>
<pdfrwt beam="2">  1       -1 0.77589579E-01 0.27488860E+04</pdfrwt>
<totfact> 0.89271618E-01</totfact>
</mgrwt>
</event>
<event>
12    6  0.1542110E-007  0.3084285E+04  0.7818608E-02  0.8220064E-01
         -1   -1    0    0    0  501 -0.00000000000E+00  0.00000000000E+00  0.13356591803E+04  0.13356591803E+04  0.00000000000E+00 0.  1.
          2   -1    0    0  501    0  0.00000000000E+00 -0.00000000000E+00 -0.17805461775E+04  0.17805461775E+04  0.00000000000E+00 0. -1.
         24    2    1    2    0    0 -0.99143921031E+03 -0.50964078890E+03 -0.10755206202E+04  0.15510981323E+04  0.80469684486E+02 0.  0.
        254    2    1    2    0    0  0.99143921031E+03  0.50964078890E+03  0.63063362295E+03  0.15651072255E+04  0.89954233882E+03 0.  0.
         23    2    4    4    0    0  0.46920247413E+03  0.26304693760E+03 -0.17186762295E+03  0.57201085850E+03  0.91177241238E+02 0.  0.
         23    2    4    4    0    0  0.52223673618E+03  0.24659385130E+03  0.80250124589E+03  0.99309636695E+03  0.93233085746E+02 0.  0.
          2    1    3    3  502    0 -0.90935215818E+03 -0.48096387502E+03 -0.10150208710E+04  0.14451695282E+04  0.00000000000E+00 0. -1.
         -1    1    3    3    0  502 -0.82087052131E+02 -0.28676913887E+02 -0.60499749249E+02  0.10592860415E+03  0.00000000000E+00 0.  1.
         11    1    5    5    0    0  0.31591942639E+03  0.19920730074E+03 -0.15753838460E+03  0.40534796812E+03  0.00000000000E+00 0. -1.
        -11    1    5    5    0    0  0.15328304774E+03  0.63839636864E+02 -0.14329238344E+02  0.16666289038E+03  0.00000000000E+00 0.  1.
          3    1    6    6  503    0  0.46937040708E+03  0.19696084133E+03  0.66291017483E+03  0.83579426413E+03  0.00000000000E+00 0. -1.
         -3    1    6    6    0  503  0.52866329097E+02  0.49633009970E+02  0.13959107107E+03  0.15730210282E+03  0.00000000000E+00 0.  1.
<mgrwt>
<rscale>  0 0.30842846E+04</rscale>
<asrwt>0</asrwt>
<pdfrwt beam="1">  1        2 0.27393018E+00 0.30842846E+04</pdfrwt>
<pdfrwt beam="2">  1       -1 0.20548603E+00 0.30842846E+04</pdfrwt>
<totfact> 0.11809686E+00</totfact>
</mgrwt>
</event>
<event>
12    6  0.1542110E-007  0.1857535E+04  0.7818608E-02  0.8676288E-01
          2   -1    0    0  501    0  0.00000000000E+00  0.00000000000E+00  0.17357446643E+04  0.17357446643E+04  0.00000000000E+00 0. -1.
         -1   -1    0    0    0  501 -0.00000000000E+00 -0.00000000000E+00 -0.49696756774E+03  0.49696756774E+03  0.00000000000E+00 0.  1.
         24    2    1    2    0    0  0.35722178779E+03 -0.38538248385E+03 -0.93710044434E+02  0.53943523836E+03  0.77985507793E+02 0.  0.
        254    2    1    2    0    0 -0.35722178779E+03  0.38538248385E+03  0.13324871410E+04  0.16932769937E+04  0.90307138803E+03 0.  0.
         23    2    4    4    0    0 -0.63068343898E+03  0.37001201596E+03  0.10980987944E+04  0.13228434759E+04  0.97074236320E+02 0.  0.
         23    2    4    4    0    0  0.27346165119E+03  0.15370467888E+02  0.23438834667E+03  0.37043351782E+03  0.85238301929E+02 0.  0.
          4    1    3    3  502    0  0.14668672891E+02 -0.38124500002E+02  0.67860871266E+01  0.41408917437E+02  0.00000000000E+00 0. -1.
         -1    1    3    3    0  502  0.34255311490E+03 -0.34725798385E+03 -0.10049613156E+03  0.49802632092E+03  0.00000000000E+00 0.  1.
         11    1    5    5    0    0 -0.22470199021E+03  0.99760835875E+02  0.43556824241E+03  0.50016287605E+03  0.00000000000E+00 0. -1.
        -11    1    5    5    0    0 -0.40598144878E+03  0.27025118009E+03  0.66253055196E+03  0.82268059985E+03  0.00000000000E+00 0.  1.
          4    1    6    6  503    0  0.97164260370E+02 -0.80372038614E+00  0.13823640457E+03  0.16896994705E+03  0.00000000000E+00 0. -1.
         -4    1    6    6    0  503  0.17629739082E+03  0.16174188274E+02  0.96151942107E+02  0.20146357077E+03  0.00000000000E+00 0.  1.
<mgrwt>
<rscale>  0 0.18575347E+04</rscale>
<asrwt>0</asrwt>
<pdfrwt beam="1">  1        2 0.26703764E+00 0.18575347E+04</pdfrwt>
<pdfrwt beam="2">  1       -1 0.76456550E-01 0.18575347E+04</pdfrwt>
<totfact> 0.17216916E+01</totfact>
</mgrwt>
</event>
<event>
12    6  0.1542110E-007  0.1399836E+04  0.7818608E-02  0.8953937E-01
          2   -1    0    0  501    0  0.00000000000E+00  0.00000000000E+00  0.10477386278E+04  0.10477386278E+04  0.00000000000E+00 0. -1.
         -1   -1    0    0    0  501 -0.00000000000E+00 -0.00000000000E+00 -0.46756426807E+03  0.46756426807E+03  0.00000000000E+00 0.  1.
         24    2    1    2    0    0  0.15864116217E+03 -0.37039394160E+03  0.16499926151E+03  0.43831175166E+03  0.50336319224E+02 0.  0.
        254    2    1    2    0    0 -0.15864116217E+03  0.37039394160E+03  0.41517509825E+03  0.10769911442E+04  0.90839466768E+03 0.  0.
         23    2    4    4    0    0 -0.12579438101E+03  0.21622765871E+03  0.69426646598E+03  0.74383712973E+03  0.93322682685E+02 0.  0.
         23    2    4    4    0    0 -0.32846781162E+02  0.15416628289E+03 -0.27909136773E+03  0.33315401452E+03  0.90848511453E+02 0.  0.
          4    1    3    3  502    0  0.15221383642E+03 -0.34234739188E+03  0.13925806902E+03  0.39970438891E+03  0.00000000000E+00 0. -1.
         -3    1    3    3    0  502  0.64273257520E+01 -0.28046549716E+02  0.25741192496E+02  0.38607362749E+02  0.00000000000E+00 0.  1.
         11    1    5    5    0    0 -0.72774261350E+02  0.47411389593E+02  0.28540775868E+03  0.29833122816E+03  0.00000000000E+00 0. -1.
        -11    1    5    5    0    0 -0.53020119662E+02  0.16881626911E+03  0.40885870730E+03  0.44550590158E+03  0.00000000000E+00 0.  1.
          3    1    6    6  503    0  0.23090510611E+02  0.94141663243E+02 -0.12098823417E+03  0.15502895615E+03  0.00000000000E+00 0. -1.
         -3    1    6    6    0  503 -0.55937291773E+02  0.60024619648E+02 -0.15810313357E+03  0.17812505837E+03  0.00000000000E+00 0.  1.
<mgrwt>
<rscale>  0 0.13998359E+04</rscale>
<asrwt>0</asrwt>
<pdfrwt beam="1">  1        2 0.16119056E+00 0.13998359E+04</pdfrwt>
<pdfrwt beam="2">  1       -1 0.71932964E-01 0.13998359E+04</pdfrwt>
<totfact> 0.50865434E+01</totfact>
</mgrwt>
</event>
<event>
12    6  0.1542110E-007  0.1218760E+04  0.7818608E-02  0.9096593E-01
          2   -1    0    0  501    0  0.00000000000E+00  0.00000000000E+00  0.53435876340E+03  0.53435876340E+03  0.00000000000E+00 0. -1.
         -1   -1    0    0    0  501 -0.00000000000E+00 -0.00000000000E+00 -0.69493363361E+03  0.69493363361E+03  0.00000000000E+00 0.  1.
         24    2    1    2    0    0  0.10607309532E+03  0.17174501422E+03 -0.21716520934E+03  0.30759785365E+03  0.81901526009E+02 0.  0.
        254    2    1    2    0    0 -0.10607309532E+03 -0.17174501422E+03  0.56590339136E+02  0.92169454335E+03  0.89753580057E+03 0.  0.
         23    2    4    4    0    0 -0.13547168030E+03  0.16452718780E+03  0.37981495556E+03  0.44512748412E+03  0.91963606728E+02 0.  0.
         23    2    4    4    0    0  0.29398584985E+02 -0.33627220202E+03 -0.32322461642E+03  0.47656705924E+03  0.93267028694E+02 0.  0.
          2    1    3    3  502    0  0.95023150032E+01  0.20373383828E+02  0.38842014576E+01  0.22813499950E+02  0.00000000000E+00 0. -1.
         -1    1    3    3    0  502  0.96570780316E+02  0.15137163039E+03 -0.22104941080E+03  0.28478435370E+03  0.00000000000E+00 0.  1.
         11    1    5    5    0    0 -0.94938008024E+02  0.84406926228E+02  0.29679368890E+03  0.32283780500E+03  0.00000000000E+00 0. -1.
        -11    1    5    5    0    0 -0.40533672279E+02  0.80120261569E+02  0.83021266656E+02  0.12228967912E+03  0.00000000000E+00 0.  1.
          2    1    6    6  503    0  0.37463878552E+02 -0.17111961642E+03 -0.22163759215E+03  0.28250431426E+03  0.00000000000E+00 0. -1.
         -2    1    6    6    0  503 -0.80652935670E+01 -0.16515258559E+03 -0.10158702427E+03  0.19406274498E+03  0.00000000000E+00 0.  1.
<mgrwt>
<rscale>  0 0.12187598E+04</rscale>
<asrwt>0</asrwt>
<pdfrwt beam="1">  1        2 0.82209041E-01 0.12187598E+04</pdfrwt>
<pdfrwt beam="2">  1       -1 0.10691287E+00 0.12187598E+04</pdfrwt>
<totfact> 0.52412611E+01</totfact>
</mgrwt>
</event>
<event>
12    6  0.1542110E-007  0.3178111E+04  0.7818608E-02  0.8194622E-01
          2   -1    0    0  501    0  0.00000000000E+00  0.00000000000E+00  0.40096378689E+04  0.40096378689E+04  0.00000000000E+00 0. -1.
         -1   -1    0    0    0  501 -0.00000000000E+00 -0.00000000000E+00 -0.62975709362E+03  0.62975709362E+03  0.00000000000E+00 0.  1.
         24    2    1    2    0    0 -0.63277187597E+03 -0.12637993978E+04  0.12624601811E+04  0.18960336501E+04  0.59571206181E+02 0.  0.
        254    2    1    2    0    0  0.63277187597E+03  0.12637993978E+04  0.21174205941E+04  0.27433613124E+04  0.10222387945E+04 0.  0.
         23    2    4    4    0    0  0.43881619823E+03  0.68992618240E+03  0.38980252681E+03  0.91039263312E+03  0.91164376504E+02 0.  0.
         23    2    4    4    0    0  0.19395567774E+03  0.57387321539E+03  0.17276180673E+04  0.18329686793E+04  0.90336705409E+02 0.  0.
          4    1    3    3  502    0 -0.37001934730E+02 -0.47293963222E+02  0.54962041695E+02  0.81404472594E+02  0.00000000000E+00 0. -1.
         -3    1    3    3    0  502 -0.59576994123E+03 -0.12165054346E+04  0.12074981394E+04  0.18146291775E+04  0.00000000000E+00 0.  1.
         11    1    5    5    0    0  0.42267644801E+03  0.66642037512E+03  0.39317739679E+03  0.88168019226E+03  0.00000000000E+00 0. -1.
        -11    1    5    5    0    0  0.16139750212E+02  0.23505807279E+02 -0.33748699735E+01  0.28712440859E+02  0.00000000000E+00 0.  1.
          3    1    6    6  503    0  0.21549625377E+02  0.19475276821E+03  0.56257554460E+03  0.59572163841E+03  0.00000000000E+00 0.  1.
         -3    1    6    6    0  503  0.17240605236E+03  0.37912044718E+03  0.11650425227E+04  0.12372470408E+04  0.00000000000E+00 0. -1.
<mgrwt>
<rscale>  0 0.31781113E+04</rscale>
<asrwt>0</asrwt>
<pdfrwt beam="1">  1        2 0.61686735E+00 0.31781113E+04</pdfrwt>
<pdfrwt beam="2">  1       -1 0.96885709E-01 0.31781113E+04</pdfrwt>
<totfact> 0.32919921E-01</totfact>
</mgrwt>
</event>
<event>
12    6  0.1542110E-007  0.2236751E+04  0.7818608E-02  0.8503286E-01
         -1   -1    0    0    0  501 -0.00000000000E+00  0.00000000000E+00  0.65685902155E+03  0.65685902155E+03  0.00000000000E+00 0.  1.
          2   -1    0    0  501    0  0.00000000000E+00 -0.00000000000E+00 -0.19041578594E+04  0.19041578594E+04  0.00000000000E+00 0. -1.
         24    2    1    2    0    0 -0.76913164118E+03  0.41500655303E+03 -0.14230154229E+03  0.88932855737E+03  0.82834977495E+02 0.  0.
        254    2    1    2    0    0  0.76913164118E+03 -0.41500655303E+03 -0.11049972956E+04  0.16716883236E+04  0.89984938043E+03 0.  0.
         23    2    4    4    0    0  0.66867449122E+03 -0.14388570400E+03 -0.11731656148E+04  0.13610194615E+04  0.90706911775E+02 0.  0.
         23    2    4    4    0    0  0.10045714996E+03 -0.27112084903E+03  0.68168319201E+02  0.31066886209E+03  0.90939916279E+02 0.  0.
          4    1    3    3  502    0 -0.26384691750E+03  0.10921635526E+03 -0.72423547191E+02  0.29459901276E+03  0.00000000000E+00 0. -1.
         -3    1    3    3    0  502 -0.50528472368E+03  0.30579019777E+03 -0.69877995097E+02  0.59472954462E+03  0.00000000000E+00 0.  1.
         11    1    5    5    0    0  0.63280394079E+03 -0.15496941965E+03 -0.11238898572E+04  0.12990707292E+04  0.00000000000E+00 0. -1.
        -11    1    5    5    0    0  0.35870550431E+02  0.11083715649E+02 -0.49275757619E+02  0.61948732269E+02  0.00000000000E+00 0.  1.
          4    1    6    6  503    0  0.59815038224E+02 -0.22718614367E+03  0.23728000421E+02  0.23612369783E+03  0.00000000000E+00 0. -1.
         -4    1    6    6    0  503  0.40642111734E+02 -0.43934705364E+02  0.44440318781E+02  0.74545164263E+02  0.00000000000E+00 0.  1.
<mgrwt>
<rscale>  0 0.22367506E+04</rscale>
<asrwt>0</asrwt>
<pdfrwt beam="1">  1        2 0.29294736E+00 0.22367506E+04</pdfrwt>
<pdfrwt beam="2">  1       -1 0.10105523E+00 0.22367506E+04</pdfrwt>
<totfact> 0.72896045E+00</totfact>
</mgrwt>
</event>
<event>
12    6  0.1542110E-007  0.1367612E+04  0.7818608E-02  0.8977602E-01
          2   -1    0    0  501    0  0.00000000000E+00  0.00000000000E+00  0.26710111013E+04  0.26710111013E+04  0.00000000000E+00 0. -1.
         -1   -1    0    0    0  501 -0.00000000000E+00 -0.00000000000E+00 -0.17506124457E+03  0.17506124457E+03  0.00000000000E+00 0.  1.
         24    2    1    2    0    0 -0.19470186641E+03 -0.27097565913E+02  0.29731872618E+02  0.21423544954E+03  0.79810705593E+02 0.  0.
        254    2    1    2    0    0  0.19470186641E+03  0.27097565913E+02  0.24662179841E+04  0.26318368963E+04  0.89760303526E+03 0.  0.
         23    2    4    4    0    0  0.25595462478E+02 -0.41079593320E+03  0.14255907850E+04  0.14866652913E+04  0.91957466991E+02 0.  0.
         23    2    4    4    0    0  0.16910640394E+03  0.43789349911E+03  0.10406271992E+04  0.11451716051E+04  0.90362298416E+02 0.  0.
          4    1    3    3  502    0 -0.86190465204E+02  0.17299942810E+02 -0.14166916536E+02  0.89043729917E+02  0.00000000000E+00 0. -1.
         -3    1    3    3    0  502 -0.10851140121E+03 -0.44397508723E+02  0.43898789154E+02  0.12519171962E+03  0.00000000000E+00 0.  1.
         11    1    5    5    0    0  0.37283143314E+02 -0.59511843647E+02  0.23029615483E+03  0.24076546937E+03  0.00000000000E+00 0. -1.
        -11    1    5    5    0    0 -0.11687680836E+02 -0.35128408955E+03  0.11952946301E+04  0.12458998219E+04  0.00000000000E+00 0.  1.
          3    1    6    6  503    0  0.19030539504E+02  0.36535691894E+02  0.43696501149E+02  0.60053329871E+02  0.00000000000E+00 0. -1.
         -3    1    6    6    0  503  0.15007586443E+03  0.40135780722E+03  0.99693069802E+03  0.10851182752E+04  0.00000000000E+00 0.  1.
<mgrwt>
<rscale>  0 0.13676118E+04</rscale>
<asrwt>0</asrwt>
<pdfrwt beam="1">  1        2 0.41092476E+00 0.13676118E+04</pdfrwt>
<pdfrwt beam="2">  1       -1 0.26932501E-01 0.13676118E+04</pdfrwt>
<totfact> 0.38033094E+01</totfact>
</mgrwt>
</event>
<event>
12    6  0.1542110E-007  0.2167125E+04  0.7818608E-02  0.8532237E-01
          2   -1    0    0  501    0  0.00000000000E+00  0.00000000000E+00  0.12216236166E+04  0.12216236166E+04  0.00000000000E+00 0. -1.
         -1   -1    0    0    0  501 -0.00000000000E+00 -0.00000000000E+00 -0.96110446082E+03  0.96110446082E+03  0.00000000000E+00 0.  1.
         24    2    1    2    0    0 -0.55580214942E+03 -0.36551206485E+03  0.71307938572E+03  0.97852129760E+03  0.80663626604E+02 0.  0.
        254    2    1    2    0    0  0.55580214942E+03  0.36551206485E+03 -0.45256022993E+03  0.12042067798E+04  0.89598443514E+03 0.  0.
         23    2    4    4    0    0 -0.86910346302E+02  0.37232833107E+03 -0.38618366895E+03  0.55125885411E+03  0.92556489030E+02 0.  0.
         23    2    4    4    0    0  0.64271249572E+03 -0.68162662186E+01 -0.66376560982E+02  0.65294792572E+03  0.93858042845E+02 0.  0.
          4    1    3    3  502    0 -0.38409404261E+03 -0.23935690215E+03  0.53570248051E+03  0.70128247362E+03  0.00000000000E+00 0. -1.
         -3    1    3    3    0  502 -0.17170810681E+03 -0.12615516269E+03  0.17737690521E+03  0.27723882398E+03  0.00000000000E+00 0.  1.
         11    1    5    5    0    0 -0.80137163414E+02  0.27592785344E+03 -0.23202931991E+03  0.36931795321E+03  0.00000000000E+00 0. -1.
        -11    1    5    5    0    0 -0.67731828873E+01  0.96400477630E+02 -0.15415434904E+03  0.18194090090E+03  0.00000000000E+00 0.  1.
          2    1    6    6  503    0  0.43353503239E+03 -0.47980684987E+02 -0.52070183811E+02  0.43927903943E+03  0.00000000000E+00 0. -1.
         -2    1    6    6    0  503  0.20917746333E+03  0.41164418769E+02 -0.14306377171E+02  0.21366888629E+03  0.00000000000E+00 0.  1.
<mgrwt>
<rscale>  0 0.21671252E+04</rscale>
<asrwt>0</asrwt>
<pdfrwt beam="1">  1        2 0.18794209E+00 0.21671252E+04</pdfrwt>
<pdfrwt beam="2">  1       -1 0.14786222E+00 0.21671252E+04</pdfrwt>
<totfact> 0.69667229E+00</totfact>
</mgrwt>
</event>
<event>
12    6  0.1542110E-007  0.1128732E+04  0.7818608E-02  0.9177632E-01
          2   -1    0    0  501    0  0.00000000000E+00  0.00000000000E+00  0.42863331006E+04  0.42863331006E+04  0.00000000000E+00 0. -1.
         -1   -1    0    0    0  501 -0.00000000000E+00 -0.00000000000E+00 -0.74308028583E+02  0.74308028583E+02  0.00000000000E+00 0.  1.
         24    2    1    2    0    0  0.10203175183E+03 -0.16223732382E+03  0.75861381871E+03  0.78701248182E+03  0.84630331314E+02 0.  0.
        254    2    1    2    0    0 -0.10203175183E+03  0.16223732382E+03  0.34534112533E+04  0.35736286474E+04  0.89891100627E+03 0.  0.
         23    2    4    4    0    0  0.16261434340E+03  0.45915757269E+03  0.22011065856E+04  0.22565598334E+04  0.99614152256E+02 0.  0.
         23    2    4    4    0    0 -0.26464609523E+03 -0.29692024887E+03  0.12523046677E+04  0.13170688140E+04  0.90576432037E+02 0.  0.
          2    1    3    3  502    0  0.18161554831E+01 -0.57559836435E+02  0.31820539433E+03  0.32337456018E+03  0.00000000000E+00 0. -1.
         -1    1    3    3    0  502  0.10021559634E+03 -0.10467748738E+03  0.44040842438E+03  0.46363792164E+03  0.00000000000E+00 0.  1.
         11    1    5    5    0    0 -0.25734205737E+01  0.82319438178E+02  0.47533725232E+03  0.48241954339E+03  0.00000000000E+00 0. -1.
        -11    1    5    5    0    0  0.16518776397E+03  0.37683813451E+03  0.17257693333E+04  0.17741402900E+04  0.00000000000E+00 0.  1.
          3    1    6    6  503    0 -0.84899074761E+02 -0.14179020803E+03  0.62023578052E+03  0.64187595331E+03  0.00000000000E+00 0. -1.
         -3    1    6    6    0  503 -0.17974702046E+03 -0.15513004084E+03  0.63206888720E+03  0.67519286067E+03  0.00000000000E+00 0.  1.
<mgrwt>
<rscale>  0 0.11287320E+04</rscale>
<asrwt>0</asrwt>
<pdfrwt beam="1">  1        2 0.65943567E+00 0.11287320E+04</pdfrwt>
<pdfrwt beam="2">  1       -1 0.11432008E-01 0.11287320E+04</pdfrwt>
<totfact> 0.11879406E+01</totfact>
</mgrwt>
</event>
<event>
12    6  0.1542110E-007  0.1404284E+04  0.7818608E-02  0.8950723E-01
         -1   -1    0    0    0  501 -0.00000000000E+00  0.00000000000E+00  0.15683883727E+03  0.15683883727E+03  0.00000000000E+00 0.  1.
          2   -1    0    0  501    0  0.00000000000E+00 -0.00000000000E+00 -0.31433754755E+04  0.31433754755E+04  0.00000000000E+00 0. -1.
         24    2    1    2    0    0 -0.71477304937E+02  0.29466432649E+03 -0.22187311198E+03  0.38423779207E+03  0.80466965932E+02 0.  0.
        254    2    1    2    0    0  0.71477304937E+02 -0.29466432649E+03 -0.27646635263E+04  0.29159765207E+04  0.87613845113E+03 0.  0.
         23    2    4    4    0    0 -0.21827217129E+03 -0.53441892640E+02 -0.22924166560E+04  0.23051399527E+04  0.89427626801E+02 0.  0.
         23    2    4    4    0    0  0.28974947623E+03 -0.24122243385E+03 -0.47224687029E+03  0.61083656799E+03  0.89225471341E+02 0.  0.
          2    1    3    3  502    0 -0.47493197448E+02  0.80931391731E+02 -0.37861664525E+02  0.10118794203E+03  0.00000000000E+00 0. -1.
         -1    1    3    3    0  502 -0.23984107489E+02  0.21373293476E+03 -0.18401144745E+03  0.28304985004E+03  0.00000000000E+00 0.  1.
         11    1    5    5    0    0 -0.15445186456E+03 -0.33356128138E+02 -0.19402801929E+04  0.19467036849E+04  0.00000000000E+00 0. -1.
        -11    1    5    5    0    0 -0.63820306729E+02 -0.20085764502E+02 -0.35213646309E+03  0.35843626787E+03  0.00000000000E+00 0.  1.
          3    1    6    6  503    0  0.12606345249E+03 -0.14249013184E+03 -0.18192922336E+03  0.26323691617E+03  0.00000000000E+00 0. -1.
         -3    1    6    6    0  503  0.16368602374E+03 -0.98732302013E+02 -0.29031764693E+03  0.34759965182E+03  0.00000000000E+00 0.  1.
<mgrwt>
<rscale>  0 0.14042840E+04</rscale>
<asrwt>0</asrwt>
<pdfrwt beam="1">  1        2 0.48359622E+00 0.14042840E+04</pdfrwt>
<pdfrwt beam="2">  1       -1 0.24129052E-01 0.14042840E+04</pdfrwt>
<totfact> 0.23537873E+01</totfact>
</mgrwt>
</event>
<event>
12    6  0.1542110E-007  0.1988315E+04  0.7818608E-02  0.8612103E-01
          2   -1    0    0  501    0  0.00000000000E+00  0.00000000000E+00  0.38143633857E+04  0.38143633857E+04  0.00000000000E+00 0. -1.
         -1   -1    0    0    0  501 -0.00000000000E+00 -0.00000000000E+00 -0.25911245972E+03  0.25911245972E+03  0.00000000000E+00 0.  1.
         24    2    1    2    0    0 -0.23848800410E+03 -0.74449756274E+03  0.14460856666E+04  0.16458602068E+04  0.80863565468E+02 0.  0.
        254    2    1    2    0    0  0.23848800410E+03  0.74449756274E+03  0.21091652594E+04  0.24276156386E+04  0.91300955549E+03 0.  0.
         23    2    4    4    0    0  0.52669256378E+03  0.64711033637E+03  0.11956768464E+04  0.14604533649E+04  0.84404182082E+02 0.  0.
         23    2    4    4    0    0 -0.28820455968E+03  0.97387226373E+02  0.91348841298E+03  0.96716227368E+03  0.91627740853E+02 0.  0.
          4    1    3    3  502    0 -0.12755306349E+03 -0.42899938034E+03  0.90803835915E+03  0.10123457483E+04  0.00000000000E+00 0. -1.
         -3    1    3    3    0  502 -0.11093494061E+03 -0.31549818240E+03  0.53804730744E+03  0.63351445855E+03  0.00000000000E+00 0.  1.
         11    1    5    5    0    0  0.81385725983E+02  0.12001698105E+03  0.15967085314E+03  0.21569073572E+03  0.00000000000E+00 0.  1.
        -11    1    5    5    0    0  0.44530683780E+03  0.52709335532E+03  0.10360059933E+04  0.12447626292E+04  0.00000000000E+00 0. -1.
          1    1    6    6  503    0 -0.19263482099E+03  0.35452388692E+02  0.67557810528E+03  0.70339947573E+03  0.00000000000E+00 0. -1.
         -1    1    6    6    0  503 -0.95569738685E+02  0.61934837681E+02  0.23791030771E+03  0.26376279795E+03  0.00000000000E+00 0.  1.
<mgrwt>
<rscale>  0 0.19883149E+04</rscale>
<asrwt>0</asrwt>
<pdfrwt beam="1">  1        2 0.58682510E+00 0.19883149E+04</pdfrwt>
<pdfrwt beam="2">  1       -1 0.39863458E-01 0.19883149E+04</pdfrwt>
<totfact> 0.31339779E+00</totfact>
</mgrwt>
</event>
<event>
12    6  0.1542110E-007  0.1632898E+04  0.7818608E-02  0.8800589E-01
          2   -1    0    0  501    0  0.00000000000E+00  0.00000000000E+00  0.22037959819E+04  0.22037959819E+04  0.00000000000E+00 0. -1.
         -1   -1    0    0    0  501 -0.00000000000E+00 -0.00000000000E+00 -0.30247292730E+03  0.30247292730E+03  0.00000000000E+00 0.  1.
         24    2    1    2    0    0  0.22641425175E+03  0.39812410239E+03  0.16271441525E+03  0.49214531029E+03  0.77232190254E+02 0.  0.
        254    2    1    2    0    0 -0.22641425175E+03 -0.39812410239E+03  0.17386086393E+04  0.20141235989E+04  0.90783680060E+03 0.  0.
         23    2    4    4    0    0 -0.56960654232E+03 -0.27583401431E+03  0.10365246109E+04  0.12179381129E+04  0.91945426154E+02 0.  0.
         23    2    4    4    0    0  0.34319229057E+03 -0.12229008809E+03  0.70208402838E+03  0.79618548593E+03  0.90848946846E+02 0.  0.
          2    1    3    3  502    0  0.17566267693E+03  0.31120253261E+03  0.91618784481E+02  0.36891515832E+03  0.00000000000E+00 0. -1.
         -1    1    3    3    0  502  0.50751574818E+02  0.86921569780E+02  0.71095630773E+02  0.12323015197E+03  0.00000000000E+00 0.  1.
         11    1    5    5    0    0 -0.27725781327E+03 -0.14337709891E+03  0.42504757586E+03  0.52734649829E+03  0.00000000000E+00 0. -1.
        -11    1    5    5    0    0 -0.29234872905E+03 -0.13245691539E+03  0.61147703506E+03  0.69059161464E+03  0.00000000000E+00 0.  1.
          4    1    6    6  503    0  0.90350331435E+02 -0.14220790744E+02  0.25942672945E+03  0.27507751859E+03  0.00000000000E+00 0. -1.
         -4    1    6    6    0  503  0.25284195913E+03 -0.10806929734E+03  0.44265729894E+03  0.52110796734E+03  0.00000000000E+00 0.  1.
<mgrwt>
<rscale>  0 0.16328976E+04</rscale>
<asrwt>0</asrwt>
<pdfrwt beam="1">  1        2 0.33904552E+00 0.16328976E+04</pdfrwt>
<pdfrwt beam="2">  1       -1 0.46534298E-01 0.16328976E+04</pdfrwt>
<totfact> 0.25761023E+01</totfact>
</mgrwt>
</event>
<event>
12    6  0.1542110E-007  0.1326731E+04  0.7818608E-02  0.9008632E-01
         -1   -1    0    0    0  501 -0.00000000000E+00  0.00000000000E+00  0.12515297397E+04  0.12515297397E+04  0.00000000000E+00 0.  1.
          2   -1    0    0  501    0  0.00000000000E+00 -0.00000000000E+00 -0.35161272239E+03  0.35161272239E+03  0.00000000000E+00 0. -1.
         24    2    1    2    0    0  0.11368163391E+02  0.29947045205E+02 -0.17833723489E+03  0.20248234864E+03  0.90381809598E+02 0.  0.
        254    2    1    2    0    0 -0.11368163391E+02 -0.29947045205E+02  0.10782542522E+04  0.14006601135E+04  0.89341505494E+03 0.  0.
         23    2    4    4    0    0  0.17977650004E+03 -0.59374837592E+02  0.11543479476E+04  0.11733756541E+04  0.91903645452E+02 0.  0.
         23    2    4    4    0    0 -0.19114466343E+03  0.29427792386E+02 -0.76093695433E+02  0.22728445939E+03  0.92009226017E+02 0.  0.
          2    1    3    3  502    0  0.14613244384E+02  0.45966734250E+02 -0.17971895648E+03  0.18607899099E+03  0.00000000000E+00 0. -1.
         -1    1    3    3    0  502 -0.32450809924E+01 -0.16019689044E+02  0.13817215869E+01  0.16403357652E+02  0.00000000000E+00 0.  1.
         11    1    5    5    0    0  0.12576442463E+03 -0.73512120888E+02  0.96616036278E+03  0.97708063589E+03  0.00000000000E+00 0. -1.
        -11    1    5    5    0    0  0.54012075412E+02  0.14137283297E+02  0.18818758486E+03  0.19629501818E+03  0.00000000000E+00 0.  1.
          3    1    6    6  503    0 -0.39357815753E+02  0.45817066211E+02 -0.11366535970E+02  0.61460876637E+02  0.00000000000E+00 0.  1.
         -3    1    6    6    0  503 -0.15178684768E+03 -0.16389273825E+02 -0.64727159463E+02  0.16582358275E+03  0.00000000000E+00 0. -1.
<mgrwt>
<rscale>  0 0.13267310E+04</rscale>
<asrwt>0</asrwt>
<pdfrwt beam="1">  1        2 0.54094265E-01 0.13267310E+04</pdfrwt>
<pdfrwt beam="2">  1       -1 0.19254304E+00 0.13267310E+04</pdfrwt>
<totfact> 0.17463137E+01</totfact>
</mgrwt>
</event>
<event>
12    6  0.1542110E-007  0.2477323E+04  0.7818608E-02  0.8411109E-01
         -1   -1    0    0    0  501 -0.00000000000E+00  0.00000000000E+00  0.51965086122E+03  0.51965086122E+03  0.00000000000E+00 0.  1.
          2   -1    0    0  501    0  0.00000000000E+00 -0.00000000000E+00 -0.29525258169E+04  0.29525258169E+04  0.00000000000E+00 0. -1.
         24    2    1    2    0    0  0.29332476856E+03  0.12272655353E+03 -0.24531766915E+04  0.24749488585E+04  0.78706709487E+02 0.  0.
        254    2    1    2    0    0 -0.29332476856E+03 -0.12272655353E+03  0.20301735746E+02  0.99722781961E+03  0.94496028326E+03 0.  0.
         23    2    4    4    0    0  0.22590388159E+03 -0.32796505850E+03  0.11126092006E+03  0.42407397301E+03  0.94159964631E+02 0.  0.
         23    2    4    4    0    0 -0.51922865015E+03  0.20523850497E+03 -0.90959184317E+02  0.57315384660E+03  0.92252499187E+02 0.  0.
          2    1    3    3  502    0  0.16045777351E+03  0.24488109878E+02 -0.12091603718E+04  0.12200062169E+04  0.00000000000E+00 0. -1.
         -1    1    3    3    0  502  0.13286699505E+03  0.98238443651E+02 -0.12440163197E+04  0.12549426417E+04  0.00000000000E+00 0.  1.
         11    1    5    5    0    0  0.19619522504E+03 -0.23286178302E+03  0.11198843084E+03  0.32443579482E+03  0.00000000000E+00 0.  1.
        -11    1    5    5    0    0  0.29708656549E+02 -0.95103275480E+02 -0.72751077935E+00  0.99638178190E+02  0.00000000000E+00 0. -1.
          2    1    6    6  503    0 -0.30829066832E+03  0.16981406794E+03 -0.59556274943E+02  0.35696905149E+03  0.00000000000E+00 0. -1.
         -2    1    6    6    0  503 -0.21093798183E+03  0.35424437033E+02 -0.31402909374E+02  0.21618479511E+03  0.00000000000E+00 0.  1.
<mgrwt>
<rscale>  0 0.24773232E+04</rscale>
<asrwt>0</asrwt>
<pdfrwt beam="1">  1        2 0.45423474E+00 0.24773232E+04</pdfrwt>
<pdfrwt beam="2">  1       -1 0.79946287E-01 0.24773232E+04</pdfrwt>
<totfact> 0.29598018E+00</totfact>
</mgrwt>
</event>
<event>
12    6  0.1542110E-007  0.1470519E+04  0.7818608E-02  0.8904297E-01
          2   -1    0    0  501    0  0.00000000000E+00  0.00000000000E+00  0.91654856208E+03  0.91654856208E+03  0.00000000000E+00 0. -1.
         -1   -1    0    0    0  501 -0.00000000000E+00 -0.00000000000E+00 -0.58982891073E+03  0.58982891073E+03  0.00000000000E+00 0.  1.
         24    2    1    2    0    0 -0.11136072831E+03  0.15449587164E+03 -0.33354516713E+03  0.39292164789E+03  0.82854430755E+02 0.  0.
        254    2    1    2    0    0  0.11136072831E+03 -0.15449587164E+03  0.66026481849E+03  0.11134558249E+04  0.87610733210E+03 0.  0.
         23    2    4    4    0    0  0.47187064795E+03 -0.15323410998E+03  0.26121956503E+03  0.56799514296E+03  0.90775659834E+02 0.  0.
         23    2    4    4    0    0 -0.36050991964E+03 -0.12617616589E+01  0.39904525346E+03  0.54546068196E+03  0.91220869589E+02 0.  0.
          2    1    3    3  502    0 -0.59157442893E+02  0.95322145190E+02 -0.26731292613E+03  0.28990018091E+03  0.00000000000E+00 0. -1.
         -1    1    3    3    0  502 -0.52203285416E+02  0.59173726446E+02 -0.66232241001E+02  0.10302146698E+03  0.00000000000E+00 0.  1.
         11    1    5    5    0    0  0.14127468446E+03 -0.42918720782E+02  0.12621692969E+03  0.19424537679E+03  0.00000000000E+00 0.  1.
        -11    1    5    5    0    0  0.33059596349E+03 -0.11031538920E+03  0.13500263534E+03  0.37374976617E+03  0.00000000000E+00 0. -1.
          3    1    6    6  503    0 -0.35229840694E+03  0.11364703032E+02  0.39589711197E+03  0.53007343573E+03  0.00000000000E+00 0. -1.
         -3    1    6    6    0  503 -0.82115127055E+01 -0.12626464691E+02  0.31481414930E+01  0.15387246224E+02  0.00000000000E+00 0.  1.
<mgrwt>
<rscale>  0 0.14705194E+04</rscale>
<asrwt>0</asrwt>
<pdfrwt beam="1">  1        2 0.14100747E+00 0.14705194E+04</pdfrwt>
<pdfrwt beam="2">  1       -1 0.90742910E-01 0.14705194E+04</pdfrwt>
<totfact> 0.37470932E+01</totfact>
</mgrwt>
</event>
<event>
12    6  0.1542110E-007  0.1152011E+04  0.7818608E-02  0.9155930E-01
         -1   -1    0    0    0  501 -0.00000000000E+00  0.00000000000E+00  0.46510370385E+03  0.46510370385E+03  0.00000000000E+00 0.  1.
          2   -1    0    0  501    0  0.00000000000E+00 -0.00000000000E+00 -0.71335122142E+03  0.71335122142E+03  0.00000000000E+00 0. -1.
         24    2    1    2    0    0  0.16919751996E+03  0.85359221226E+02 -0.17801306741E+03  0.27188282304E+03  0.79483456711E+02 0.  0.
        254    2    1    2    0    0 -0.16919751996E+03 -0.85359221226E+02 -0.70234450168E+02  0.90657210222E+03  0.88375681108E+03 0.  0.
         23    2    4    4    0    0  0.22984848345E+02 -0.27113132339E+03 -0.38618443300E+03  0.48178381259E+03  0.94534268950E+02 0.  0.
         23    2    4    4    0    0 -0.19218236830E+03  0.18577210216E+03  0.31594998284E+03  0.42478828963E+03  0.95788113720E+02 0.  0.
          4    1    3    3  502    0  0.79048248199E+02  0.39970092205E+02 -0.13655655121E+03  0.16276954719E+03  0.00000000000E+00 0. -1.
         -3    1    3    3    0  502  0.90149271757E+02  0.45389129022E+02 -0.41456516192E+02  0.10911327585E+03  0.00000000000E+00 0.  1.
         11    1    5    5    0    0  0.39480175767E+02 -0.20825259302E+03 -0.34474164947E+03  0.40469078523E+03  0.00000000000E+00 0.  1.
        -11    1    5    5    0    0 -0.16495327422E+02 -0.62878730370E+02 -0.41442783536E+02  0.77093027356E+02  0.00000000000E+00 0. -1.
          4    1    6    6  503    0 -0.13151350496E+02  0.14796982552E+02 -0.40520780204E+01  0.20207128662E+02  0.00000000000E+00 0. -1.
         -4    1    6    6    0  503 -0.17903101781E+03  0.17097511961E+03  0.32000206086E+03  0.40458116097E+03  0.00000000000E+00 0.  1.
<mgrwt>
<rscale>  0 0.11520109E+04</rscale>
<asrwt>0</asrwt>
<pdfrwt beam="1">  1        2 0.10974634E+00 0.11520109E+04</pdfrwt>
<pdfrwt beam="2">  1       -1 0.71554416E-01 0.11520109E+04</pdfrwt>
<totfact> 0.89188592E+01</totfact>
</mgrwt>
</event>
<event>
12    6  0.1542110E-007  0.1603808E+04  0.7818608E-02  0.8818212E-01
         -1   -1    0    0    0  501 -0.00000000000E+00  0.00000000000E+00  0.67998504198E+03  0.67998504198E+03  0.00000000000E+00 0.  1.
          2   -1    0    0  501    0  0.00000000000E+00 -0.00000000000E+00 -0.94568301165E+03  0.94568301165E+03  0.00000000000E+00 0. -1.
         24    2    1    2    0    0  0.19976047408E+03  0.41197541625E+03 -0.39443277815E+03  0.61007966699E+03  0.83618138012E+02 0.  0.
        254    2    1    2    0    0 -0.19976047408E+03 -0.41197541625E+03  0.12873480848E+03  0.10155883866E+04  0.89734003008E+03 0.  0.
         23    2    4    4    0    0 -0.85369808789E+02  0.18717707414E+03 -0.21349437382E+03  0.31023827097E+03  0.91349196961E+02 0.  0.
         23    2    4    4    0    0 -0.11439066529E+03 -0.59915249038E+03  0.34222918230E+03  0.70535011568E+03  0.91263582181E+02 0.  0.
          2    1    3    3  502    0  0.15179253015E+03  0.37026356285E+03 -0.35725085550E+03  0.53643662435E+03  0.00000000000E+00 0. -1.
         -1    1    3    3    0  502  0.47967943929E+02  0.41711853392E+02 -0.37181922651E+02  0.73643042646E+02  0.00000000000E+00 0.  1.
         11    1    5    5    0    0  0.16502322870E+02  0.55691849908E+02 -0.45018674255E+02  0.73488705513E+02  0.00000000000E+00 0.  1.
        -11    1    5    5    0    0 -0.10187213166E+03  0.13148522423E+03 -0.16847569956E+03  0.23674956545E+03  0.00000000000E+00 0. -1.
          3    1    6    6  503    0 -0.36619754379E+02 -0.38435490592E+03  0.24363384085E+03  0.45653822241E+03  0.00000000000E+00 0. -1.
         -3    1    6    6    0  503 -0.77770910914E+02 -0.21479758447E+03  0.98595341446E+02  0.24881189327E+03  0.00000000000E+00 0.  1.
<mgrwt>
<rscale>  0 0.16038083E+04</rscale>
<asrwt>0</asrwt>
<pdfrwt beam="1">  1        2 0.14548969E+00 0.16038083E+04</pdfrwt>
<pdfrwt beam="2">  1       -1 0.10461308E+00 0.16038083E+04</pdfrwt>
<totfact> 0.25678409E+01</totfact>
</mgrwt>
</event>
<event>
12    6  0.1542110E-007  0.1780763E+04  0.7818608E-02  0.8716597E-01
          2   -1    0    0  501    0  0.00000000000E+00  0.00000000000E+00  0.29895853611E+04  0.29895853611E+04  0.00000000000E+00 0. -1.
         -1   -1    0    0    0  501 -0.00000000000E+00 -0.00000000000E+00 -0.26518027664E+03  0.26518027664E+03  0.00000000000E+00 0.  1.
         24    2    1    2    0    0  0.10361971366E+03 -0.85005353807E+02 -0.15474134238E+03  0.21971161080E+03  0.79783166427E+02 0.  0.
        254    2    1    2    0    0 -0.10361971366E+03  0.85005353807E+02  0.28791464268E+04  0.30350540269E+04  0.95084480539E+03 0.  0.
         23    2    4    4    0    0 -0.25494721326E+02  0.43144017487E+03  0.23503076374E+04  0.23916339722E+04  0.95793847534E+02 0.  0.
         23    2    4    4    0    0 -0.78124992329E+02 -0.34643482107E+03  0.52883878947E+03  0.64342005476E+03  0.90544474961E+02 0.  0.
          4    1    3    3  502    0  0.70728203401E+02 -0.29037451294E+02 -0.12883994376E+03  0.14981783419E+03  0.00000000000E+00 0. -1.
         -3    1    3    3    0  502  0.32891510254E+02 -0.55967902513E+02 -0.25901398627E+02  0.69893776614E+02  0.00000000000E+00 0.  1.
         11    1    5    5    0    0  0.35685761567E+02  0.14109412004E+03  0.72509050703E+03  0.73955207232E+03  0.00000000000E+00 0.  1.
        -11    1    5    5    0    0 -0.61180482893E+02  0.29034605483E+03  0.16252171303E+04  0.16520818998E+04  0.00000000000E+00 0. -1.
          1    1    6    6  503    0 -0.80618443593E+02 -0.33554361939E+03  0.46750220927E+03  0.58107415158E+03  0.00000000000E+00 0. -1.
         -1    1    6    6    0  503  0.24934512643E+01 -0.10891201679E+02  0.61336580193E+02  0.62345903178E+02  0.00000000000E+00 0.  1.
<mgrwt>
<rscale>  0 0.17807628E+04</rscale>
<asrwt>0</asrwt>
<pdfrwt beam="1">  1        2 0.45993619E+00 0.17807628E+04</pdfrwt>
<pdfrwt beam="2">  1       -1 0.40796968E-01 0.17807628E+04</pdfrwt>
<totfact> 0.11221240E+01</totfact>
</mgrwt>
</event>
<event>
12    6  0.1542110E-007  0.1414595E+04  0.7818608E-02  0.8943321E-01
         -1   -1    0    0    0  501 -0.00000000000E+00  0.00000000000E+00  0.17084959207E+03  0.17084959207E+03  0.00000000000E+00 0.  1.
          2   -1    0    0  501    0  0.00000000000E+00 -0.00000000000E+00 -0.29281314230E+04  0.29281314230E+04  0.00000000000E+00 0. -1.
         24    2    1    2    0    0 -0.10760250395E+03 -0.17364446463E+03 -0.39157705384E+02  0.22401248523E+03  0.83171922524E+02 0.  0.
        254    2    1    2    0    0  0.10760250395E+03  0.17364446463E+03 -0.27181241256E+04  0.28749685299E+04  0.91406487011E+03 0.  0.
         23    2    4    4    0    0 -0.41699292763E+02  0.13739225392E+03 -0.18694979565E+02  0.16971909880E+03  0.88541559634E+02 0.  0.
         23    2    4    4    0    0  0.14930179671E+03  0.36252210714E+02 -0.26994291460E+04  0.27052494311E+04  0.88608807209E+02 0.  0.
          4    1    3    3  502    0 -0.59899090044E+02 -0.87804343855E+02  0.21696653354E+02  0.10848155859E+03  0.00000000000E+00 0. -1.
         -3    1    3    3    0  502 -0.47703413902E+02 -0.85840120776E+02 -0.60854358738E+02  0.11553092664E+03  0.00000000000E+00 0.  1.
         11    1    5    5    0    0 -0.67025867461E+02  0.71151448268E+02 -0.12099349053E+02  0.98495633137E+02  0.00000000000E+00 0.  1.
        -11    1    5    5    0    0  0.25326574698E+02  0.66240805648E+02 -0.65956305122E+01  0.71223465661E+02  0.00000000000E+00 0. -1.
          2    1    6    6  503    0  0.57018739868E+02  0.15977084757E+02 -0.45561649921E+03  0.45944836303E+03  0.00000000000E+00 0. -1.
         -2    1    6    6    0  503  0.92283056841E+02  0.20275125957E+02 -0.22438126468E+04  0.22458010680E+04  0.00000000000E+00 0.  1.
<mgrwt>
<rscale>  0 0.14145954E+04</rscale>
<asrwt>0</asrwt>
<pdfrwt beam="1">  1        2 0.45048174E+00 0.14145954E+04</pdfrwt>
<pdfrwt beam="2">  1       -1 0.26284554E-01 0.14145954E+04</pdfrwt>
<totfact> 0.27680933E+01</totfact>
</mgrwt>
</event>
<event>
12    6  0.1542110E-007  0.1150999E+04  0.7818608E-02  0.9156863E-01
         -1   -1    0    0    0  501 -0.00000000000E+00  0.00000000000E+00  0.37716197794E+03  0.37716197794E+03  0.00000000000E+00 0.  1.
          2   -1    0    0  501    0  0.00000000000E+00 -0.00000000000E+00 -0.87813624593E+03  0.87813624593E+03  0.00000000000E+00 0. -1.
         24    2    1    2    0    0 -0.14268921232E+03  0.13302934672E+03 -0.20597603297E+03  0.29396359729E+03  0.77015920237E+02 0.  0.
        254    2    1    2    0    0  0.14268921232E+03 -0.13302934672E+03 -0.29499823502E+03  0.96133462659E+03  0.89391458608E+03 0.  0.
         23    2    4    4    0    0  0.73202237424E+02  0.37424807696E+03 -0.16525658196E+03  0.42506201644E+03  0.89150374440E+02 0.  0.
         23    2    4    4    0    0  0.69486974894E+02 -0.50727742369E+03 -0.12974165306E+03  0.53627261015E+03  0.92717806260E+02 0.  0.
          2    1    3    3  502    0 -0.13355221144E+03  0.87118832759E+02 -0.13493132226E+03  0.20888357027E+03  0.00000000000E+00 0. -1.
         -1    1    3    3    0  502 -0.91370008787E+01  0.45910513965E+02 -0.71044710705E+02  0.85080027014E+02  0.00000000000E+00 0.  1.
         11    1    5    5    0    0  0.88701423359E+02  0.31098290336E+03 -0.15674982542E+03  0.35937280985E+03  0.00000000000E+00 0.  1.
        -11    1    5    5    0    0 -0.15499185935E+02  0.63265173597E+02 -0.85067565361E+01  0.65689206584E+02  0.00000000000E+00 0. -1.
          4    1    6    6  503    0  0.63570270148E+02 -0.26429266105E+03 -0.29757582635E+02  0.27345439044E+03  0.00000000000E+00 0. -1.
         -4    1    6    6    0  503  0.59167047454E+01 -0.24298476264E+03 -0.99984070426E+02  0.26281821971E+03  0.00000000000E+00 0.  1.
<mgrwt>
<rscale>  0 0.11509989E+04</rscale>
<asrwt>0</asrwt>
<pdfrwt beam="1">  1        2 0.13509788E+00 0.11509989E+04</pdfrwt>
<pdfrwt beam="2">  1       -1 0.58024920E-01 0.11509989E+04</pdfrwt>
<totfact> 0.10313859E+02</totfact>
</mgrwt>
</event>
<event>
12    6  0.1542110E-007  0.1894530E+04  0.7818608E-02  0.8657584E-01
          2   -1    0    0  501    0  0.00000000000E+00  0.00000000000E+00  0.20747321836E+04  0.20747321836E+04  0.00000000000E+00 0. -1.
         -1   -1    0    0    0  501 -0.00000000000E+00 -0.00000000000E+00 -0.43249497815E+03  0.43249497815E+03  0.00000000000E+00 0.  1.
         24    2    1    2    0    0 -0.13164826190E+03 -0.42551356734E+03  0.12981316466E+04  0.13747111990E+04  0.79322430144E+02 0.  0.
        254    2    1    2    0    0  0.13164826190E+03  0.42551356734E+03  0.34410555890E+03  0.11325159628E+04  0.98274651333E+03 0.  0.
         23    2    4    4    0    0 -0.14889116860E+03 -0.21302878551E+03 -0.10698467147E+03  0.29653985870E+03  0.94553288308E+02 0.  0.
         23    2    4    4    0    0  0.28053943050E+03  0.63854235285E+03  0.45109023037E+03  0.83597610409E+03  0.94524823342E+02 0.  0.
          2    1    3    3  502    0 -0.80498121746E+02 -0.32006364349E+03  0.10425046252E+04  0.10934974060E+04  0.00000000000E+00 0. -1.
         -1    1    3    3    0  502 -0.51150140154E+02 -0.10544992384E+03  0.25562702142E+03  0.28121379297E+03  0.00000000000E+00 0.  1.
         11    1    5    5    0    0 -0.65074572638E+01  0.45560149187E+01 -0.21335128935E+02  0.22766027292E+02  0.00000000000E+00 0. -1.
        -11    1    5    5    0    0 -0.14238371133E+03 -0.21758480043E+03 -0.85649542530E+02  0.27377383141E+03  0.00000000000E+00 0.  1.
          2    1    6    6  503    0  0.15285360205E+02  0.69080636725E+02  0.78098580226E+02  0.10538104592E+03  0.00000000000E+00 0. -1.
         -2    1    6    6    0  503  0.26525407029E+03  0.56946171612E+03  0.37299165014E+03  0.73059505816E+03  0.00000000000E+00 0.  1.
<mgrwt>
<rscale>  0 0.18945303E+04</rscale>
<asrwt>0</asrwt>
<pdfrwt beam="1">  1        2 0.31918956E+00 0.18945303E+04</pdfrwt>
<pdfrwt beam="2">  1       -1 0.66537690E-01 0.18945303E+04</pdfrwt>
<totfact> 0.14822031E+01</totfact>
</mgrwt>
</event>
<event>
12    6  0.1542110E-007  0.1456815E+04  0.7818608E-02  0.8913689E-01
          2   -1    0    0  501    0  0.00000000000E+00  0.00000000000E+00  0.14970597664E+04  0.14970597664E+04  0.00000000000E+00 0. -1.
         -1   -1    0    0    0  501 -0.00000000000E+00 -0.00000000000E+00 -0.35441313229E+03  0.35441313229E+03  0.00000000000E+00 0.  1.
         24    2    1    2    0    0 -0.44225410388E+03 -0.67109767714E+02  0.34291570705E+03  0.56944510290E+03  0.81142650659E+02 0.  0.
        254    2    1    2    0    0  0.44225410388E+03  0.67109767714E+02  0.79973092705E+03  0.12820277958E+04  0.89662327660E+03 0.  0.
         23    2    4    4    0    0  0.50253600305E+03  0.19385443462E+03  0.91898484726E+02  0.55465277559E+03  0.95249114376E+02 0.  0.
         23    2    4    4    0    0 -0.60281899177E+02 -0.12674466691E+03  0.70783244233E+03  0.72737502018E+03  0.91375793409E+02 0.  0.
          2    1    3    3  502    0 -0.40119419961E+03 -0.61660243706E+02  0.33707433012E+03  0.52761527222E+03  0.00000000000E+00 0. -1.
         -1    1    3    3    0  502 -0.41059904269E+02 -0.54495240074E+01  0.58413769344E+01  0.41829830683E+02  0.00000000000E+00 0.  1.
         11    1    5    5    0    0  0.64958183501E+02  0.17316951409E+02 -0.19175788728E+02  0.69908177513E+02  0.00000000000E+00 0.  1.
        -11    1    5    5    0    0  0.43757781955E+03  0.17653748322E+03  0.11107427345E+03  0.48474459808E+03  0.00000000000E+00 0. -1.
          1    1    6    6  503    0 -0.72891945075E+01 -0.11145196194E+03  0.44329565647E+03  0.45714955017E+03  0.00000000000E+00 0. -1.
         -1    1    6    6    0  503 -0.52992704669E+02 -0.15292704976E+02  0.26453678586E+03  0.27022547001E+03  0.00000000000E+00 0.  1.
<mgrwt>
<rscale>  0 0.14568152E+04</rscale>
<asrwt>0</asrwt>
<pdfrwt beam="1">  1        2 0.23031688E+00 0.14568152E+04</pdfrwt>
<pdfrwt beam="2">  1       -1 0.54525098E-01 0.14568152E+04</pdfrwt>
<totfact> 0.47817723E+01</totfact>
</mgrwt>
</event>
<event>
12    6  0.1577190E-007  0.2042528E+04  0.7818608E-02  0.8586991E-01
          2   -1    0    0  501    0  0.00000000000E+00  0.00000000000E+00  0.17491896597E+04  0.17491896597E+04  0.00000000000E+00 0. -1.
         -1   -1    0    0    0  501 -0.00000000000E+00 -0.00000000000E+00 -0.59626495765E+03  0.59626495765E+03  0.00000000000E+00 0.  1.
         24    2    1    2    0    0 -0.26621449860E+03  0.16295936074E+03 -0.40669732427E+03  0.51930928688E+03  0.82785924858E+02 0.  0.
        254    2    1    2    0    0  0.26621449860E+03 -0.16295936074E+03  0.15596220263E+04  0.18261453305E+04  0.89719562554E+03 0.  0.
         23    2    4    4    0    0 -0.30551715696E+03 -0.32466220592E+02  0.80148627339E+03  0.86327511443E+03  0.92026561892E+02 0.  0.
         23    2    4    4    0    0  0.57173165556E+03 -0.13049314015E+03  0.75813575295E+03  0.96287021605E+03  0.91889539469E+02 0.  0.
          4    1    3    3  502    0 -0.11321928711E+03  0.48990962294E+02 -0.22086557621E+03  0.25298285341E+03  0.00000000000E+00 0. -1.
         -3    1    3    3    0  502 -0.15299521148E+03  0.11396839845E+03 -0.18583174806E+03  0.26632643348E+03  0.00000000000E+00 0.  1.
         11    1    5    5    0    0 -0.18429036226E+02  0.50681877467E+01  0.13867484020E+03  0.13998581074E+03  0.00000000000E+00 0.  1.
        -11    1    5    5    0    0 -0.28708812074E+03 -0.37534408339E+02  0.66281143319E+03  0.72328930370E+03  0.00000000000E+00 0. -1.
          2    1    6    6  503    0  0.12914856688E+02  0.58903341925E+01  0.41941508347E+02  0.44278433606E+02  0.00000000000E+00 0.  1.
         -2    1    6    6    0  503  0.55881679887E+03 -0.13638347434E+03  0.71619424460E+03  0.91859178245E+03  0.00000000000E+00 0. -1.
<mgrwt>
<rscale>  0 0.20425283E+04</rscale>
<asrwt>0</asrwt>
<pdfrwt beam="1">  1        2 0.26910610E+00 0.20425283E+04</pdfrwt>
<pdfrwt beam="2">  1       -1 0.91733071E-01 0.20425283E+04</pdfrwt>
<totfact> 0.11241963E+01</totfact>
</mgrwt>
</event>
<event>
12    6  0.1542110E-007  0.1334813E+04  0.7818608E-02  0.9002405E-01
         -1   -1    0    0    0  501 -0.00000000000E+00  0.00000000000E+00  0.18575604612E+04  0.18575604612E+04  0.00000000000E+00 0.  1.
          2   -1    0    0  501    0  0.00000000000E+00 -0.00000000000E+00 -0.23979374847E+03  0.23979374847E+03  0.00000000000E+00 0. -1.
         24    2    1    2    0    0  0.10281018822E+03 -0.11309002084E+03 -0.63594516695E+02  0.18431347343E+03  0.81042620375E+02 0.  0.
        254    2    1    2    0    0 -0.10281018822E+03  0.11309002084E+03  0.16813612295E+04  0.19130407363E+04  0.89966104013E+03 0.  0.
         23    2    4    4    0    0  0.17627076021E+02 -0.27466483947E+03  0.15070609058E+03  0.32685919257E+03  0.91504744012E+02 0.  0.
         23    2    4    4    0    0 -0.12043726424E+03  0.38775486031E+03  0.15306551389E+04  0.15861815437E+04  0.90596739089E+02 0.  0.
          2    1    3    3  502    0  0.74192855354E+02 -0.23520314173E+02 -0.18356695224E+02  0.79967200926E+02  0.00000000000E+00 0. -1.
         -1    1    3    3    0  502  0.28617332862E+02 -0.89569706670E+02 -0.45237821471E+02  0.10434627250E+03  0.00000000000E+00 0.  1.
         11    1    5    5    0    0  0.45706831336E+02 -0.23332322078E+03  0.10806723328E+03  0.26116540103E+03  0.00000000000E+00 0. -1.
        -11    1    5    5    0    0 -0.28079755315E+02 -0.41341618690E+02  0.42638857306E+02  0.65693791539E+02  0.00000000000E+00 0.  1.
          3    1    6    6  503    0 -0.10207476778E+03  0.34852268013E+03  0.12323106630E+04  0.12847088724E+04  0.00000000000E+00 0. -1.
         -3    1    6    6    0  503 -0.18362496456E+02  0.39232180183E+02  0.29834447590E+03  0.30147267129E+03  0.00000000000E+00 0.  1.
<mgrwt>
<rscale>  0 0.13348129E+04</rscale>
<asrwt>0</asrwt>
<pdfrwt beam="1">  1        2 0.36891347E-01 0.13348129E+04</pdfrwt>
<pdfrwt beam="2">  1       -1 0.28577852E+00 0.13348129E+04</pdfrwt>
<totfact> 0.64762850E+00</totfact>
</mgrwt>
</event>
<event>
12    6  0.1542110E-007  0.1643156E+04  0.7818608E-02  0.8794466E-01
         -1   -1    0    0    0  501 -0.00000000000E+00  0.00000000000E+00  0.79713164709E+03  0.79713164709E+03  0.00000000000E+00 0.  1.
          2   -1    0    0  501    0  0.00000000000E+00 -0.00000000000E+00 -0.84677371817E+03  0.84677371817E+03  0.00000000000E+00 0. -1.
         24    2    1    2    0    0  0.30130375548E+02  0.49760014979E+03 -0.30953396293E+03  0.59225967357E+03  0.80290087307E+02 0.  0.
        254    2    1    2    0    0 -0.30130375548E+02 -0.49760014979E+03  0.25989189185E+03  0.10516456917E+04  0.88876381385E+03 0.  0.
         23    2    4    4    0    0 -0.33081317987E+03  0.75640786551E+02  0.12256010469E+02  0.35269347433E+03  0.95307861579E+02 0.  0.
         23    2    4    4    0    0  0.30068280432E+03 -0.57324093635E+03  0.24763588139E+03  0.69895221736E+03  0.90528186177E+02 0.  0.
          2    1    3    3  502    0  0.11047557265E+02  0.47585291529E+03 -0.29049606746E+03  0.55762533185E+03  0.00000000000E+00 0. -1.
         -1    1    3    3    0  502  0.19082818283E+02  0.21747234507E+02 -0.19037895474E+02  0.34634341720E+02  0.00000000000E+00 0.  1.
         11    1    5    5    0    0 -0.21912712696E+03  0.94534145377E+02  0.17578690824E+02  0.23929565977E+03  0.00000000000E+00 0.  1.
        -11    1    5    5    0    0 -0.11168605291E+03 -0.18893358826E+02 -0.53226803545E+01  0.11339781457E+03  0.00000000000E+00 0. -1.
          3    1    6    6  503    0 -0.31654063057E+01  0.71349203161E+00  0.44167046942E+01  0.54805244562E+01  0.00000000000E+00 0. -1.
         -3    1    6    6    0  503  0.30384821063E+03 -0.57395442838E+03  0.24321917669E+03  0.69347169291E+03  0.00000000000E+00 0.  1.
<mgrwt>
<rscale>  0 0.16431557E+04</rscale>
<asrwt>0</asrwt>
<pdfrwt beam="1">  1        2 0.13027288E+00 0.16431557E+04</pdfrwt>
<pdfrwt beam="2">  1       -1 0.12263564E+00 0.16431557E+04</pdfrwt>
<totfact> 0.20428968E+01</totfact>
</mgrwt>
</event>
<event>
12    6  0.1542110E-007  0.1663715E+04  0.7818608E-02  0.8782334E-01
         -1   -1    0    0    0  501 -0.00000000000E+00  0.00000000000E+00  0.30424768767E+03  0.30424768767E+03  0.00000000000E+00 0.  1.
          2   -1    0    0  501    0  0.00000000000E+00 -0.00000000000E+00 -0.22744196226E+04  0.22744196226E+04  0.00000000000E+00 0. -1.
         24    2    1    2    0    0  0.53704896522E+03  0.30999448655E+02 -0.11486590197E+04  0.12710716703E+04  0.82602001881E+02 0.  0.
        254    2    1    2    0    0 -0.53704896522E+03 -0.30999448655E+02 -0.82151291527E+03  0.13075956400E+04  0.86344677362E+03 0.  0.
         23    2    4    4    0    0 -0.37430099093E+03  0.35205223700E+03 -0.68254677265E+03  0.85931875385E+03  0.92285505211E+02 0.  0.
         23    2    4    4    0    0 -0.16274797429E+03 -0.38305168566E+03 -0.13896614263E+03  0.44827688613E+03  0.91788239032E+02 0.  0.
          2    1    3    3  502    0  0.47331490026E+03  0.24338245940E+02 -0.10649624372E+04  0.11656604728E+04  0.00000000000E+00 0. -1.
         -1    1    3    3    0  502  0.63734064956E+02  0.66612027150E+01 -0.83696582474E+02  0.10541119758E+03  0.00000000000E+00 0.  1.
         11    1    5    5    0    0 -0.23536575024E+03  0.18472530513E+03 -0.33335324792E+03  0.44793399363E+03  0.00000000000E+00 0.  1.
        -11    1    5    5    0    0 -0.13893524069E+03  0.16732693187E+03 -0.34919352472E+03  0.41138476022E+03  0.00000000000E+00 0. -1.
          3    1    6    6  503    0 -0.17412486193E+03 -0.35074382061E+03 -0.13266429769E+03  0.41344952669E+03  0.00000000000E+00 0. -1.
         -3    1    6    6    0  503  0.11376887638E+02 -0.32307865045E+02 -0.63018449320E+01  0.34827359441E+02  0.00000000000E+00 0.  1.
<mgrwt>
<rscale>  0 0.16637150E+04</rscale>
<asrwt>0</asrwt>
<pdfrwt beam="1">  1        2 0.34991072E+00 0.16637150E+04</pdfrwt>
<pdfrwt beam="2">  1       -1 0.46807335E-01 0.16637150E+04</pdfrwt>
<totfact> 0.23190242E+01</totfact>
</mgrwt>
</event>
<event>
12    6  0.1542110E-007  0.4688448E+04  0.7818608E-02  0.7878451E-01
          2   -1    0    0  501    0  0.00000000000E+00  0.00000000000E+00  0.32597797093E+04  0.32597797093E+04  0.00000000000E+00 0. -1.
         -1   -1    0    0    0  501 -0.00000000000E+00 -0.00000000000E+00 -0.16858148761E+04  0.16858148761E+04  0.00000000000E+00 0.  1.
         24    2    1    2    0    0  0.42490363272E+03 -0.92054256773E+03 -0.13662052473E+04  0.17031999296E+04  0.80196671956E+02 0.  0.
        254    2    1    2    0    0 -0.42490363272E+03  0.92054256773E+03  0.29401700805E+04  0.32423946559E+04  0.91683220170E+03 0.  0.
         23    2    4    4    0    0  0.56106355207E+02  0.66064869388E+03  0.23010825476E+04  0.23964484332E+04  0.91540058231E+02 0.  0.
         23    2    4    4    0    0 -0.48100998792E+03  0.25989387385E+03  0.63908753292E+03  0.84594622271E+03  0.90976386082E+02 0.  0.
          4    1    3    3  502    0  0.44464633570E+01 -0.34727004799E+01 -0.20844132713E+02  0.21594178696E+02  0.00000000000E+00 0. -1.
         -3    1    3    3    0  502  0.42045716936E+03 -0.91706986725E+03 -0.13453611146E+04  0.16816057509E+04  0.00000000000E+00 0.  1.
         11    1    5    5    0    0  0.79708181372E+02  0.53355649746E+03  0.18158929374E+04  0.18943344716E+04  0.00000000000E+00 0.  1.
        -11    1    5    5    0    0 -0.23601826165E+02  0.12709219643E+03  0.48518961017E+03  0.50211396157E+03  0.00000000000E+00 0. -1.
          1    1    6    6  503    0 -0.29297888659E+03  0.14197465548E+03  0.31397587815E+03  0.45229888663E+03  0.00000000000E+00 0. -1.
         -1    1    6    6    0  503 -0.18803110133E+03  0.11791921837E+03  0.32511165478E+03  0.39364733608E+03  0.00000000000E+00 0.  1.
<mgrwt>
<rscale>  0 0.46884476E+04</rscale>
<asrwt>0</asrwt>
<pdfrwt beam="1">  1        2 0.50150457E+00 0.46884476E+04</pdfrwt>
<pdfrwt beam="2">  1       -1 0.25935613E+00 0.46884476E+04</pdfrwt>
<totfact> 0.60757991E-02</totfact>
</mgrwt>
</event>
<event>
12    6  0.1542110E-007  0.2053696E+04  0.7818608E-02  0.8581919E-01
         -1   -1    0    0    0  501 -0.00000000000E+00  0.00000000000E+00  0.94258517568E+03  0.94258517568E+03  0.00000000000E+00 0.  1.
          2   -1    0    0  501    0  0.00000000000E+00 -0.00000000000E+00 -0.11186439852E+04  0.11186439852E+04  0.00000000000E+00 0. -1.
         24    2    1    2    0    0  0.81692025821E+03 -0.13944022924E+03 -0.16220933313E+03  0.84840018128E+03  0.81662194670E+02 0.  0.
        254    2    1    2    0    0 -0.81692025821E+03  0.13944022924E+03 -0.13849476364E+02  0.12128289796E+04  0.88541517939E+03 0.  0.
         23    2    4    4    0    0 -0.28793560273E+03 -0.30196874967E+03 -0.22912265398E+03  0.48505117182E+03  0.93195555781E+02 0.  0.
         23    2    4    4    0    0 -0.52898465548E+03  0.44140897891E+03  0.21527317761E+03  0.72777780776E+03  0.93012601661E+02 0.  0.
          2    1    3    3  502    0  0.34901252036E+03 -0.40119222500E+02 -0.10495141218E+03  0.36665254710E+03  0.00000000000E+00 0. -1.
         -1    1    3    3    0  502  0.46790773785E+03 -0.99321006737E+02 -0.57257920949E+02  0.48174763417E+03  0.00000000000E+00 0.  1.
         11    1    5    5    0    0 -0.81698078305E+02 -0.31881392272E+02 -0.47493431969E+02  0.99732769199E+02  0.00000000000E+00 0. -1.
        -11    1    5    5    0    0 -0.20623752442E+03 -0.27008735740E+03 -0.18162922201E+03  0.38531840262E+03  0.00000000000E+00 0.  1.
          4    1    6    6  503    0 -0.25331376102E+03  0.15689125774E+03  0.11256481643E+03  0.31851776430E+03  0.00000000000E+00 0. -1.
         -4    1    6    6    0  503 -0.27567089446E+03  0.28451772117E+03  0.10270836118E+03  0.40926004346E+03  0.00000000000E+00 0.  1.
<mgrwt>
<rscale>  0 0.20536964E+04</rscale>
<asrwt>0</asrwt>
<pdfrwt beam="1">  1        2 0.17209907E+00 0.20536964E+04</pdfrwt>
<pdfrwt beam="2">  1       -1 0.14501310E+00 0.20536964E+04</pdfrwt>
<totfact> 0.85499757E+00</totfact>
</mgrwt>
</event>
<event>
12    6  0.1542110E-007  0.1564258E+04  0.7818608E-02  0.8842812E-01
         -1   -1    0    0    0  501 -0.00000000000E+00  0.00000000000E+00  0.50332151704E+03  0.50332151704E+03  0.00000000000E+00 0.  1.
          2   -1    0    0  501    0  0.00000000000E+00 -0.00000000000E+00 -0.12153770681E+04  0.12153770681E+04  0.00000000000E+00 0. -1.
         24    2    1    2    0    0  0.72628856564E+02 -0.85590163631E+01 -0.70873931445E+03  0.71639801683E+03  0.74608947904E+02 0.  0.
        254    2    1    2    0    0 -0.72628856564E+02  0.85590163631E+01 -0.33162366191E+01  0.10023005683E+04  0.99962354126E+03 0.  0.
         23    2    4    4    0    0  0.18166103569E+03 -0.26341041737E+03  0.34917777442E+03  0.48158861106E+03  0.87273663187E+02 0.  0.
         23    2    4    4    0    0 -0.25428989225E+03  0.27196943373E+03 -0.35249401104E+03  0.52071195725E+03  0.90874597227E+02 0.  0.
          2    1    3    3  502    0  0.54588521954E+02 -0.20017726828E+02 -0.23182643591E+03  0.23900651142E+03  0.00000000000E+00 0. -1.
         -1    1    3    3    0  502  0.18040334610E+02  0.11458710465E+02 -0.47691287854E+03  0.47739150541E+03  0.00000000000E+00 0.  1.
         11    1    5    5    0    0  0.64223416188E+01 -0.20509955138E+02 -0.77942107488E-01  0.21492110334E+02  0.00000000000E+00 0. -1.
        -11    1    5    5    0    0  0.17523869407E+03 -0.24290046223E+03  0.34925571653E+03  0.46009650072E+03  0.00000000000E+00 0.  1.
          2    1    6    6  503    0 -0.43398754375E+02  0.72219023436E+01 -0.51791129393E+02  0.67955344444E+02  0.00000000000E+00 0. -1.
         -2    1    6    6    0  503 -0.21089113788E+03  0.26474753139E+03 -0.30070288165E+03  0.45275661281E+03  0.00000000000E+00 0.  1.
<mgrwt>
<rscale>  0 0.15642576E+04</rscale>
<asrwt>0</asrwt>
<pdfrwt beam="1">  1        2 0.18698108E+00 0.15642576E+04</pdfrwt>
<pdfrwt beam="2">  1       -1 0.77434081E-01 0.15642576E+04</pdfrwt>
<totfact> 0.33991506E+01</totfact>
</mgrwt>
</event>
<event>
12    6  0.1542110E-007  0.1285186E+04  0.7818608E-02  0.9041396E-01
          2   -1    0    0  501    0  0.00000000000E+00  0.00000000000E+00  0.35415018035E+04  0.35415018035E+04  0.00000000000E+00 0. -1.
         -1   -1    0    0    0  501 -0.00000000000E+00 -0.00000000000E+00 -0.11659620593E+03  0.11659620593E+03  0.00000000000E+00 0.  1.
         24    2    1    2    0    0  0.30279954521E+03 -0.83430629914E+02  0.10727930559E+04  0.11206808019E+04  0.79951763301E+02 0.  0.
        254    2    1    2    0    0 -0.30279954521E+03  0.83430629914E+02  0.23521125417E+04  0.25374172075E+04  0.89855686607E+03 0.  0.
         23    2    4    4    0    0  0.16090681380E+03 -0.28096323941E+03  0.11007824990E+04  0.11509427076E+04  0.90086966580E+02 0.  0.
         23    2    4    4    0    0 -0.46370635901E+03  0.36439386932E+03  0.12513300427E+04  0.13864744998E+04  0.93156769103E+02 0.  0.
          4    1    3    3  502    0  0.24142839492E+03 -0.42802731670E+02  0.90140126703E+03  0.93415415640E+03  0.00000000000E+00 0. -1.
         -3    1    3    3    0  502  0.61371150291E+02 -0.40627898244E+02  0.17139178885E+03  0.18652664552E+03  0.00000000000E+00 0.  1.
         11    1    5    5    0    0  0.49744699138E+02 -0.14825681985E+03  0.41031815240E+03  0.43910773839E+03  0.00000000000E+00 0.  1.
        -11    1    5    5    0    0  0.11116211466E+03 -0.13270641956E+03  0.69046434659E+03  0.71183496925E+03  0.00000000000E+00 0. -1.
          3    1    6    6  503    0 -0.69566294757E+02  0.24499847427E+02  0.11488848805E+03  0.13652500349E+03  0.00000000000E+00 0. -1.
         -3    1    6    6    0  503 -0.39414006425E+03  0.33989402190E+03  0.11364415546E+04  0.12499494963E+04  0.00000000000E+00 0.  1.
<mgrwt>
<rscale>  0 0.12851859E+04</rscale>
<asrwt>0</asrwt>
<pdfrwt beam="1">  1        2 0.54484635E+00 0.12851859E+04</pdfrwt>
<pdfrwt beam="2">  1       -1 0.17937880E-01 0.12851859E+04</pdfrwt>
<totfact> 0.21301246E+01</totfact>
</mgrwt>
</event>
<event>
12    6  0.1542110E-007  0.2784957E+04  0.7818608E-02  0.8307954E-01
          2   -1    0    0  501    0  0.00000000000E+00  0.00000000000E+00  0.29729687645E+04  0.29729687645E+04  0.00000000000E+00 0. -1.
         -1   -1    0    0    0  501 -0.00000000000E+00 -0.00000000000E+00 -0.65220877690E+03  0.65220877690E+03  0.00000000000E+00 0.  1.
         24    2    1    2    0    0 -0.52804949811E+03 -0.10034590261E+04  0.36930228809E+03  0.11952834188E+04  0.80944313299E+02 0.  0.
        254    2    1    2    0    0  0.52804949811E+03  0.10034590261E+04  0.19514576995E+04  0.24298941225E+04  0.90023997041E+03 0.  0.
         23    2    4    4    0    0 -0.10117739691E+03  0.29164974220E+03  0.11157672622E+04  0.11612010496E+04  0.90304243481E+02 0.  0.
         23    2    4    4    0    0  0.62922689501E+03  0.71180928390E+03  0.83569043724E+03  0.12686930729E+04  0.92761329760E+02 0.  0.
          4    1    3    3  502    0 -0.28347271740E+03 -0.47003035065E+03  0.15244353081E+03  0.56967038024E+03  0.00000000000E+00 0. -1.
         -1    1    3    3    0  502 -0.24457678071E+03 -0.53342867545E+03  0.21685875728E+03  0.62561303859E+03  0.00000000000E+00 0.  1.
         11    1    5    5    0    0 -0.10823040237E+03  0.29172287641E+03  0.11072700454E+04  0.11501578196E+04  0.00000000000E+00 0.  1.
        -11    1    5    5    0    0  0.70530054630E+01 -0.73134214184E-01  0.84972168511E+01  0.11043230003E+02  0.00000000000E+00 0. -1.
          4    1    6    6  503    0  0.22174859360E+02  0.45583652883E+02  0.25417287433E+02  0.56706545462E+02  0.00000000000E+00 0. -1.
         -4    1    6    6    0  503  0.60705203565E+03  0.66622563101E+03  0.81027314981E+03  0.12119865274E+04  0.00000000000E+00 0.  1.
<mgrwt>
<rscale>  0 0.27849570E+04</rscale>
<asrwt>0</asrwt>
<pdfrwt beam="1">  1        2 0.45737980E+00 0.27849570E+04</pdfrwt>
<pdfrwt beam="2">  1       -1 0.10033981E+00 0.27849570E+04</pdfrwt>
<totfact> 0.16946782E+00</totfact>
</mgrwt>
</event>
<event>
12    6  0.1542110E-007  0.1899143E+04  0.7818608E-02  0.8655283E-01
         -1   -1    0    0    0  501 -0.00000000000E+00  0.00000000000E+00  0.69400608280E+03  0.69400608280E+03  0.00000000000E+00 0.  1.
          2   -1    0    0  501    0  0.00000000000E+00 -0.00000000000E+00 -0.12992474413E+04  0.12992474413E+04  0.00000000000E+00 0. -1.
         24    2    1    2    0    0 -0.54092279370E+03  0.40985583064E+03  0.66073378679E+02  0.68627521443E+03  0.77644754564E+02 0.  0.
        254    2    1    2    0    0  0.54092279370E+03 -0.40985583064E+03 -0.67131473719E+03  0.13069783097E+04  0.89272031172E+03 0.  0.
         23    2    4    4    0    0  0.64840927579E+03  0.33829039493E+02 -0.38538884557E+03  0.76058400623E+03  0.91566781103E+02 0.  0.
         23    2    4    4    0    0 -0.10748648209E+03 -0.44368487014E+03 -0.28592589163E+03  0.54639430346E+03  0.91561517727E+02 0.  0.
          4    1    3    3  502    0 -0.10897402589E+02  0.24683605092E+02 -0.42469366924E+01  0.27314285911E+02  0.00000000000E+00 0. -1.
         -1    1    3    3    0  502 -0.53002539111E+03  0.38517222555E+03  0.70320315371E+02  0.65896092852E+03  0.00000000000E+00 0.  1.
         11    1    5    5    0    0  0.14079677889E+03  0.31842181781E+02 -0.12035073111E+03  0.18794136310E+03  0.00000000000E+00 0.  1.
        -11    1    5    5    0    0  0.50761249690E+03  0.19868577116E+01 -0.26503811446E+03  0.57264264313E+03  0.00000000000E+00 0. -1.
          4    1    6    6  503    0 -0.14456600262E+02 -0.95790573199E+02 -0.10678462579E+03  0.14417969174E+03  0.00000000000E+00 0. -1.
         -4    1    6    6    0  503 -0.93029881827E+02 -0.34789429694E+03 -0.17914126584E+03  0.40221461172E+03  0.00000000000E+00 0.  1.
<mgrwt>
<rscale>  0 0.18991426E+04</rscale>
<asrwt>0</asrwt>
<pdfrwt beam="1">  1        2 0.19988422E+00 0.18991426E+04</pdfrwt>
<pdfrwt beam="2">  1       -1 0.10677017E+00 0.18991426E+04</pdfrwt>
<totfact> 0.14466370E+01</totfact>
</mgrwt>
</event>
<event>
12    6  0.1542110E-007  0.1750604E+04  0.7818608E-02  0.8733018E-01
         -1   -1    0    0    0  501 -0.00000000000E+00  0.00000000000E+00  0.50496371117E+03  0.50496371117E+03  0.00000000000E+00 0.  1.
          2   -1    0    0  501    0  0.00000000000E+00 -0.00000000000E+00 -0.15172443919E+04  0.15172443919E+04  0.00000000000E+00 0. -1.
         24    2    1    2    0    0 -0.32958394625E+03  0.35521352176E+03 -0.85674187851E+03  0.98751734310E+03  0.79885122929E+02 0.  0.
        254    2    1    2    0    0  0.32958394625E+03 -0.35521352176E+03 -0.15553880225E+03  0.10346907600E+04  0.90088313679E+03 0.  0.
         23    2    4    4    0    0  0.56375811380E+03 -0.46241399584E+03 -0.37111105194E+02  0.73664800313E+03  0.98097563447E+02 0.  0.
         23    2    4    4    0    0 -0.23417416755E+03  0.10720047409E+03 -0.11842769706E+03  0.29804275687E+03  0.92059128267E+02 0.  0.
          2    1    3    3  502    0 -0.32884315891E+03  0.33594108273E+03 -0.80385430894E+03  0.93122284348E+03  0.00000000000E+00 0. -1.
         -1    1    3    3    0  502 -0.74078734314E+00  0.19272439028E+02 -0.52887569570E+02  0.56294499616E+02  0.00000000000E+00 0.  1.
         11    1    5    5    0    0  0.22371668589E+03 -0.13463125223E+03 -0.41165386851E+02  0.26432805128E+03  0.00000000000E+00 0. -1.
        -11    1    5    5    0    0  0.34004142792E+03 -0.32778274362E+03  0.40542816562E+01  0.47231995185E+03  0.00000000000E+00 0.  1.
          3    1    6    6  503    0  0.74513012206E+01  0.11275142115E+02 -0.51026029080E+01  0.14446012461E+02  0.00000000000E+00 0. -1.
         -3    1    6    6    0  503 -0.24162546877E+03  0.95925331973E+02 -0.11332509415E+03  0.28359674441E+03  0.00000000000E+00 0.  1.
<mgrwt>
<rscale>  0 0.17506037E+04</rscale>
<asrwt>0</asrwt>
<pdfrwt beam="1">  1        2 0.23342220E+00 0.17506037E+04</pdfrwt>
<pdfrwt beam="2">  1       -1 0.77686728E-01 0.17506037E+04</pdfrwt>
<totfact> 0.22254379E+01</totfact>
</mgrwt>
</event>
<event>
12    6  0.1542110E-007  0.1799643E+04  0.7818608E-02  0.8706489E-01
         -1   -1    0    0    0  501 -0.00000000000E+00  0.00000000000E+00  0.76852736353E+03  0.76852736353E+03  0.00000000000E+00 0.  1.
          2   -1    0    0  501    0  0.00000000000E+00 -0.00000000000E+00 -0.10535459119E+04  0.10535459119E+04  0.00000000000E+00 0. -1.
         24    2    1    2    0    0  0.12269039374E+03  0.30236079085E+03 -0.69978745487E+03  0.77606833191E+03  0.78131896499E+02 0.  0.
        254    2    1    2    0    0 -0.12269039374E+03 -0.30236079085E+03  0.41476890651E+03  0.10460049435E+04  0.90311578187E+03 0.  0.
         23    2    4    4    0    0 -0.18736590414E+03 -0.34495765502E+03  0.65963420272E+03  0.77284139389E+03  0.89804080721E+02 0.  0.
         23    2    4    4    0    0  0.64675510404E+02  0.42596864175E+02 -0.24486529621E+03  0.27316354961E+03  0.93069313225E+02 0.  0.
          2    1    3    3  502    0  0.60920204627E+02  0.61143151506E+02 -0.19251856974E+03  0.21098141151E+03  0.00000000000E+00 0. -1.
         -1    1    3    3    0  502  0.61770189113E+02  0.24121763934E+03 -0.50726888513E+03  0.56508692040E+03  0.00000000000E+00 0.  1.
         11    1    5    5    0    0 -0.12415959443E+03 -0.29808661788E+03  0.55198317202E+03  0.63949719221E+03  0.00000000000E+00 0.  1.
        -11    1    5    5    0    0 -0.63206309719E+02 -0.46871037138E+02  0.10765103070E+03  0.13334420168E+03  0.00000000000E+00 0. -1.
          4    1    6    6  503    0 -0.14565757695E+02  0.13038079905E+02 -0.70899085216E+01  0.20794701914E+02  0.00000000000E+00 0. -1.
         -4    1    6    6    0  503  0.79241268099E+02  0.29558784270E+02 -0.23777538769E+03  0.25236884770E+03  0.00000000000E+00 0.  1.
<mgrwt>
<rscale>  0 0.17996431E+04</rscale>
<asrwt>0</asrwt>
<pdfrwt beam="1">  1        2 0.16208399E+00 0.17996431E+04</pdfrwt>
<pdfrwt beam="2">  1       -1 0.11823498E+00 0.17996431E+04</pdfrwt>
<totfact> 0.16101769E+01</totfact>
</mgrwt>
</event>
<event>
12    6  0.1542110E-007  0.1911476E+04  0.7818608E-02  0.8649165E-01
         -1   -1    0    0    0  501 -0.00000000000E+00  0.00000000000E+00  0.10734175895E+04  0.10734175895E+04  0.00000000000E+00 0.  1.
          2   -1    0    0  501    0  0.00000000000E+00 -0.00000000000E+00 -0.85095998461E+03  0.85095998461E+03  0.00000000000E+00 0. -1.
         24    2    1    2    0    0  0.42734925370E+03  0.19597038049E+03  0.66221354353E+03  0.81638747837E+03  0.83246398950E+02 0.  0.
        254    2    1    2    0    0 -0.42734925370E+03 -0.19597038049E+03 -0.43975593869E+03  0.11079900957E+04  0.90178988234E+03 0.  0.
         23    2    4    4    0    0 -0.39412469597E+03 -0.51600592784E+03 -0.16301808658E+03  0.67585920109E+03  0.92813628340E+02 0.  0.
         23    2    4    4    0    0 -0.33224557729E+02  0.32003554735E+03 -0.27673785211E+03  0.43213089461E+03  0.81404228888E+02 0.  0.
          4    1    3    3  502    0  0.84598436135E+02  0.23991297761E+02  0.77906783287E+02  0.11748167792E+03  0.00000000000E+00 0. -1.
         -3    1    3    3    0  502  0.34275081757E+03  0.17197908272E+03  0.58430676024E+03  0.69890580045E+03  0.00000000000E+00 0.  1.
         11    1    5    5    0    0 -0.37500903145E+03 -0.51371691011E+03 -0.15308519404E+03  0.65419562368E+03  0.00000000000E+00 0.  1.
        -11    1    5    5    0    0 -0.19115664520E+02 -0.22890177306E+01 -0.99328925370E+01  0.21663577414E+02  0.00000000000E+00 0. -1.
          1    1    6    6  503    0 -0.39939599157E+02  0.66895305158E+02 -0.53092220579E+02  0.94281160997E+02  0.00000000000E+00 0. -1.
         -1    1    6    6    0  503  0.67150414276E+01  0.25314024220E+03 -0.22364563153E+03  0.33784973361E+03  0.00000000000E+00 0.  1.
<mgrwt>
<rscale>  0 0.19114763E+04</rscale>
<asrwt>0</asrwt>
<pdfrwt beam="1">  1        2 0.13091692E+00 0.19114763E+04</pdfrwt>
<pdfrwt beam="2">  1       -1 0.16514117E+00 0.19114763E+04</pdfrwt>
<totfact> 0.90465457E+00</totfact>
</mgrwt>
</event>
<event>
12    6  0.1542110E-007  0.1772751E+04  0.7818608E-02  0.8720926E-01
          2   -1    0    0  501    0  0.00000000000E+00  0.00000000000E+00  0.11321554973E+04  0.11321554973E+04  0.00000000000E+00 0. -1.
         -1   -1    0    0    0  501 -0.00000000000E+00 -0.00000000000E+00 -0.69395208630E+03  0.69395208630E+03  0.00000000000E+00 0.  1.
         24    2    1    2    0    0  0.42023586712E+03 -0.85929917111E+02 -0.34258620873E+03  0.55473990278E+03  0.79930686530E+02 0.  0.
        254    2    1    2    0    0 -0.42023586712E+03  0.85929917111E+02  0.78078961972E+03  0.12713676808E+04  0.90706185836E+03 0.  0.
         23    2    4    4    0    0  0.66171537894E+02 -0.25881416759E+03 -0.24885090152E+01  0.28279270437E+03  0.92747372991E+02 0.  0.
         23    2    4    4    0    0 -0.48640740501E+03  0.34474408470E+03  0.78327812873E+03  0.98857497644E+03  0.91187770575E+02 0.  0.
          2    1    3    3  502    0  0.75906374126E+02 -0.43498496070E+01 -0.10038582013E+03  0.12592859765E+03  0.00000000000E+00 0. -1.
         -1    1    3    3    0  502  0.34432949299E+03 -0.81580067504E+02 -0.24220038860E+03  0.42881130512E+03  0.00000000000E+00 0.  1.
         11    1    5    5    0    0  0.82847537905E+02 -0.20918691319E+03  0.19855877772E+02  0.22586973030E+03  0.00000000000E+00 0.  1.
        -11    1    5    5    0    0 -0.16676000011E+02 -0.49627254406E+02 -0.22344386787E+02  0.56922974071E+02  0.00000000000E+00 0. -1.
          4    1    6    6  503    0 -0.34981681604E+03  0.25415617910E+03  0.63041224396E+03  0.76445193799E+03  0.00000000000E+00 0.  1.
         -4    1    6    6    0  503 -0.13659058897E+03  0.90587905605E+02  0.15286588477E+03  0.22412303845E+03  0.00000000000E+00 0. -1.
<mgrwt>
<rscale>  0 0.17727512E+04</rscale>
<asrwt>0</asrwt>
<pdfrwt beam="1">  1        2 0.17417777E+00 0.17727512E+04</pdfrwt>
<pdfrwt beam="2">  1       -1 0.10676186E+00 0.17727512E+04</pdfrwt>
<totfact> 0.18395586E+01</totfact>
</mgrwt>
</event>
<event>
12    6  0.1542110E-007  0.2800620E+04  0.7818608E-02  0.8303076E-01
         -1   -1    0    0    0  501 -0.00000000000E+00  0.00000000000E+00  0.11854184800E+04  0.11854184800E+04  0.00000000000E+00 0.  1.
          2   -1    0    0  501    0  0.00000000000E+00 -0.00000000000E+00 -0.16541574183E+04  0.16541574183E+04  0.00000000000E+00 0. -1.
         24    2    1    2    0    0  0.25589360086E+03  0.11826671054E+04 -0.53635256460E+03  0.13260823035E+04  0.81468919360E+02 0.  0.
        254    2    1    2    0    0 -0.25589360086E+03 -0.11826671054E+04  0.67613626321E+02  0.15134935948E+04  0.90659155184E+03 0.  0.
         23    2    4    4    0    0  0.18437494003E+00 -0.92394156925E+02  0.33471332957E+03  0.35848923271E+03  0.89133623001E+02 0.  0.
         23    2    4    4    0    0 -0.25607797580E+03 -0.10902729485E+04 -0.26709970325E+03  0.11550043621E+04  0.91770327824E+02 0.  0.
          2    1    3    3  502    0  0.55848214256E+02  0.24264861234E+03 -0.75193425393E+02  0.26009887222E+03  0.00000000000E+00 0. -1.
         -3    1    3    3    0  502  0.20004538661E+03  0.94001849311E+03 -0.46115913921E+03  0.10659834313E+04  0.00000000000E+00 0.  1.
         11    1    5    5    0    0  0.40207795586E+02 -0.53108434774E+02  0.23305016928E+03  0.24238307299E+03  0.00000000000E+00 0. -1.
        -11    1    5    5    0    0 -0.40023420646E+02 -0.39285722151E+02  0.10166316029E+03  0.11610615972E+03  0.00000000000E+00 0.  1.
          3    1    6    6  503    0 -0.25143129166E+03 -0.96106582577E+03 -0.22063028719E+03  0.10176163027E+04  0.00000000000E+00 0. -1.
         -3    1    6    6    0  503 -0.46466841480E+01 -0.12920712275E+03 -0.46469416058E+02  0.13738805942E+03  0.00000000000E+00 0.  1.
<mgrwt>
<rscale>  0 0.28006205E+04</rscale>
<asrwt>0</asrwt>
<pdfrwt beam="1">  1        2 0.25448576E+00 0.28006205E+04</pdfrwt>
<pdfrwt beam="2">  1       -1 0.18237207E+00 0.28006205E+04</pdfrwt>
<totfact> 0.20618786E+00</totfact>
</mgrwt>
</event>
<event>
12    6  0.1542110E-007  0.1459879E+04  0.7818608E-02  0.8911580E-01
          2   -1    0    0  501    0  0.00000000000E+00  0.00000000000E+00  0.21764329332E+04  0.21764329332E+04  0.00000000000E+00 0. -1.
         -1   -1    0    0    0  501 -0.00000000000E+00 -0.00000000000E+00 -0.24480944625E+03  0.24480944625E+03  0.00000000000E+00 0.  1.
         24    2    1    2    0    0 -0.44536032667E+03  0.75928866688E+02  0.59215932646E+03  0.74922191413E+03  0.81054273977E+02 0.  0.
        254    2    1    2    0    0  0.44536032667E+03 -0.75928866688E+02  0.13394641605E+04  0.16720204654E+04  0.89295978961E+03 0.  0.
         23    2    4    4    0    0  0.58919565108E+03 -0.30093244614E+03  0.11537007852E+04  0.13330297554E+04  0.90724719495E+02 0.  0.
         23    2    4    4    0    0 -0.14383532441E+03  0.22500357945E+03  0.18576337533E+03  0.33899070992E+03  0.95349139919E+02 0.  0.
          4    1    3    3  502    0 -0.56517396741E+02  0.19142517563E+01  0.12310354762E+03  0.13547089698E+03  0.00000000000E+00 0. -1.
         -3    1    3    3    0  502 -0.38884292993E+03  0.74014614932E+02  0.46905577884E+03  0.61375101714E+03  0.00000000000E+00 0.  1.
         11    1    5    5    0    0  0.31360463995E+03 -0.12124527580E+03  0.64146229465E+03  0.72423902309E+03  0.00000000000E+00 0. -1.
        -11    1    5    5    0    0  0.27559101113E+03 -0.17968717034E+03  0.51223849055E+03  0.60879073235E+03  0.00000000000E+00 0.  1.
          3    1    6    6  503    0 -0.15713540042E+03  0.21711082114E+03  0.17748020398E+03  0.32144652047E+03  0.00000000000E+00 0. -1.
         -3    1    6    6    0  503  0.13300076010E+02  0.78927583176E+01  0.82831713484E+01  0.17544189446E+02  0.00000000000E+00 0.  1.
<mgrwt>
<rscale>  0 0.14598785E+04</rscale>
<asrwt>0</asrwt>
<pdfrwt beam="1">  1        2 0.33483582E+00 0.14598785E+04</pdfrwt>
<pdfrwt beam="2">  1       -1 0.37662993E-01 0.14598785E+04</pdfrwt>
<totfact> 0.39992103E+01</totfact>
</mgrwt>
</event>
<event>
12    6  0.1542110E-007  0.1371489E+04  0.7818608E-02  0.8974719E-01
          2   -1    0    0  501    0  0.00000000000E+00  0.00000000000E+00  0.83256013113E+03  0.83256013113E+03  0.00000000000E+00 0. -1.
         -1   -1    0    0    0  501 -0.00000000000E+00 -0.00000000000E+00 -0.56481880196E+03  0.56481880196E+03  0.00000000000E+00 0.  1.
         24    2    1    2    0    0  0.25053186005E+03  0.22765758593E+03  0.26157602219E+03  0.43531979570E+03  0.80542658314E+02 0.  0.
        254    2    1    2    0    0 -0.25053186005E+03 -0.22765758593E+03  0.61653069760E+01  0.96205913739E+03  0.90051406624E+03 0.  0.
         23    2    4    4    0    0 -0.28497846663E+03 -0.25651360906E+03 -0.38838825010E+03  0.55338567808E+03  0.91533151435E+02 0.  0.
         23    2    4    4    0    0  0.34446606577E+02  0.28856023127E+02  0.39455355708E+03  0.40867345931E+03  0.96551790076E+02 0.  0.
          2    1    3    3  502    0  0.17670743059E+03  0.19008012930E+03  0.22963433500E+03  0.34653701013E+03  0.00000000000E+00 0. -1.
         -1    1    3    3    0  502  0.73824429465E+02  0.37577456637E+02  0.31941687191E+02  0.88782785571E+02  0.00000000000E+00 0.  1.
         11    1    5    5    0    0 -0.22690184597E+03 -0.23294469761E+03 -0.35828263994E+03  0.48385341782E+03  0.00000000000E+00 0. -1.
        -11    1    5    5    0    0 -0.58076620658E+02 -0.23568911449E+02 -0.30105610156E+02  0.69532260260E+02  0.00000000000E+00 0.  1.
          2    1    6    6  503    0 -0.26780560701E+01 -0.33021758887E+02  0.15432602270E+03  0.15784210410E+03  0.00000000000E+00 0. -1.
         -2    1    6    6    0  503  0.37124662647E+02  0.61877782014E+02  0.24022753438E+03  0.25083135521E+03  0.00000000000E+00 0.  1.
<mgrwt>
<rscale>  0 0.13714891E+04</rscale>
<asrwt>0</asrwt>
<pdfrwt beam="1">  1        2 0.12808617E+00 0.13714891E+04</pdfrwt>
<pdfrwt beam="2">  1       -1 0.86895201E-01 0.13714891E+04</pdfrwt>
<totfact> 0.47448564E+01</totfact>
</mgrwt>
</event>
<event>
12    6  0.1542110E-007  0.2243943E+04  0.7818608E-02  0.8500358E-01
          2   -1    0    0  501    0  0.00000000000E+00  0.00000000000E+00  0.28299478978E+04  0.28299478978E+04  0.00000000000E+00 0. -1.
         -1   -1    0    0    0  501 -0.00000000000E+00 -0.00000000000E+00 -0.44482081937E+03  0.44482081937E+03  0.00000000000E+00 0.  1.
         24    2    1    2    0    0  0.89115743479E+02  0.40728186144E+03 -0.22126847244E+03  0.47815667286E+03  0.76511022114E+02 0.  0.
        254    2    1    2    0    0 -0.89115743479E+02 -0.40728186144E+03  0.26063955509E+04  0.27966120443E+04  0.92407847522E+03 0.  0.
         23    2    4    4    0    0  0.34164721024E+03 -0.29988524922E+03  0.19175139590E+04  0.19727157690E+04  0.89965234782E+02 0.  0.
         23    2    4    4    0    0 -0.43076295372E+03 -0.10739661222E+03  0.68888159187E+03  0.82389627527E+03  0.84595922926E+02 0.  0.
          2    1    3    3  502    0 -0.86698322878E+01  0.84742906261E+02 -0.62151129959E+02  0.10544803985E+03  0.00000000000E+00 0. -1.
         -1    1    3    3    0  502  0.97785575767E+02  0.32253895518E+03 -0.15911734249E+03  0.37270863301E+03  0.00000000000E+00 0.  1.
         11    1    5    5    0    0  0.16449728314E+03 -0.10626785690E+03  0.96750441415E+03  0.98712562776E+03  0.00000000000E+00 0. -1.
        -11    1    5    5    0    0  0.17714992710E+03 -0.19361739232E+03  0.95000954486E+03  0.98559014129E+03  0.00000000000E+00 0.  1.
          4    1    6    6  503    0 -0.31667614015E+03 -0.92333193267E+02  0.44206723699E+03  0.55157287672E+03  0.00000000000E+00 0. -1.
         -4    1    6    6    0  503 -0.11408681357E+03 -0.15063418955E+02  0.24681435488E+03  0.27232339855E+03  0.00000000000E+00 0.  1.
<mgrwt>
<rscale>  0 0.22439427E+04</rscale>
<asrwt>0</asrwt>
<pdfrwt beam="1">  1        2 0.43537659E+00 0.22439427E+04</pdfrwt>
<pdfrwt beam="2">  1       -1 0.68433974E-01 0.22439427E+04</pdfrwt>
<totfact> 0.49695219E+00</totfact>
</mgrwt>
</event>
<event>
12    6  0.1542110E-007  0.1405047E+04  0.7818608E-02  0.8950174E-01
         -1   -1    0    0    0  501 -0.00000000000E+00  0.00000000000E+00  0.78463554488E+03  0.78463554488E+03  0.00000000000E+00 0.  1.
          2   -1    0    0  501    0  0.00000000000E+00 -0.00000000000E+00 -0.62900424725E+03  0.62900424725E+03  0.00000000000E+00 0. -1.
         24    2    1    2    0    0  0.28328677219E+03  0.53440069771E+02 -0.21634562933E+03  0.36938646862E+03  0.80831278080E+02 0.  0.
        254    2    1    2    0    0 -0.28328677219E+03 -0.53440069771E+02  0.37197692696E+03  0.10442533235E+04  0.93219683175E+03 0.  0.
         23    2    4    4    0    0 -0.16610405134E+03 -0.43156253646E+03 -0.27737948038E+02  0.47452159388E+03  0.10278409673E+03 0.  0.
         23    2    4    4    0    0 -0.11718272084E+03  0.37812246669E+03  0.39971487500E+03  0.56973172964E+03  0.90077036889E+02 0.  0.
          2    1    3    3  502    0  0.23105693200E+03  0.73982968010E+02 -0.18501845141E+03  0.30511082043E+03  0.00000000000E+00 0. -1.
         -1    1    3    3    0  502  0.52229840183E+02 -0.20542898239E+02 -0.31327177925E+02  0.64275648191E+02  0.00000000000E+00 0.  1.
         11    1    5    5    0    0  0.18666067057E+01 -0.70771495142E+02 -0.29101426350E+02  0.76543985791E+02  0.00000000000E+00 0.  1.
        -11    1    5    5    0    0 -0.16797065805E+03 -0.36079104132E+03  0.13634783114E+01  0.39797760809E+03  0.00000000000E+00 0. -1.
          2    1    6    6  503    0 -0.76870059584E+02  0.30778182808E+03  0.35875576108E+03  0.47889910823E+03  0.00000000000E+00 0. -1.
         -2    1    6    6    0  503 -0.40312661260E+02  0.70340638612E+02  0.40959113926E+02  0.90832621408E+02  0.00000000000E+00 0.  1.
<mgrwt>
<rscale>  0 0.14050467E+04</rscale>
<asrwt>0</asrwt>
<pdfrwt beam="1">  1        2 0.96769884E-01 0.14050467E+04</pdfrwt>
<pdfrwt beam="2">  1       -1 0.12071316E+00 0.14050467E+04</pdfrwt>
<totfact> 0.31768855E+01</totfact>
</mgrwt>
</event>
<event>
12    6  0.1542110E-007  0.1879746E+04  0.7818608E-02  0.8665004E-01
         -3   -1    0    0    0  501 -0.00000000000E+00  0.00000000000E+00  0.17438090013E+04  0.17438090013E+04  0.00000000000E+00 0.  1.
          2   -1    0    0  501    0  0.00000000000E+00 -0.00000000000E+00 -0.50656971889E+03  0.50656971889E+03  0.00000000000E+00 0. -1.
         24    2    1    2    0    0  0.22939207607E+03 -0.50811426330E+03  0.10239101690E+04  0.11685627602E+04  0.79662169024E+02 0.  0.
        254    2    1    2    0    0 -0.22939207607E+03  0.50811426330E+03  0.21332911342E+03  0.10818159600E+04  0.90222814830E+03 0.  0.
         23    2    4    4    0    0 -0.20514586547E+03  0.26591746856E+03  0.55353305780E+03  0.65365580353E+03  0.89833942408E+02 0.  0.
         23    2    4    4    0    0 -0.24246210596E+02  0.24219679474E+03 -0.34020394438E+03  0.42816015649E+03  0.91297479262E+02 0.  0.
          2    1    3    3  502    0  0.36951575337E+01 -0.67956789303E+02  0.13973507330E+03  0.15542737890E+03  0.00000000000E+00 0. -1.
         -1    1    3    3    0  502  0.22569691853E+03 -0.44015747400E+03  0.88417509568E+03  0.10131353813E+04  0.00000000000E+00 0.  1.
         11    1    5    5    0    0 -0.10727915505E+03  0.78366792877E+02  0.17123767942E+03  0.21673143332E+03  0.00000000000E+00 0.  1.
        -11    1    5    5    0    0 -0.97866710420E+02  0.18755067569E+03  0.38229537838E+03  0.43692437021E+03  0.00000000000E+00 0. -1.
          1    1    6    6  503    0 -0.17021082228E+02  0.24129354136E+03 -0.34353497238E+03  0.42015302878E+03  0.00000000000E+00 0. -1.
         -1    1    6    6    0  503 -0.72251283678E+01  0.90325337466E+00  0.33310279985E+01  0.80071277070E+01  0.00000000000E+00 0.  1.
<mgrwt>
<rscale>  0 0.18797456E+04</rscale>
<asrwt>0</asrwt>
<pdfrwt beam="1">  1        2 0.77933804E-01 0.18797456E+04</pdfrwt>
<pdfrwt beam="2">  1       -3 0.26827830E+00 0.18797456E+04</pdfrwt>
<totfact> 0.20390604E+00</totfact>
</mgrwt>
</event>
<event>
12    6  0.1542110E-007  0.2080078E+04  0.7818608E-02  0.8570071E-01
          2   -1    0    0  501    0  0.00000000000E+00  0.00000000000E+00  0.85351967384E+03  0.85351967384E+03  0.00000000000E+00 0. -1.
         -1   -1    0    0    0  501 -0.00000000000E+00 -0.00000000000E+00 -0.12673177492E+04  0.12673177492E+04  0.00000000000E+00 0.  1.
         24    2    1    2    0    0 -0.49050494980E+03  0.50099636624E+03 -0.65473107067E+03  0.96260774271E+03  0.79677014608E+02 0.  0.
        254    2    1    2    0    0  0.49050494980E+03 -0.50099636624E+03  0.24093299532E+03  0.11582296803E+04  0.88986224743E+03 0.  0.
         23    2    4    4    0    0  0.58386545093E+03 -0.14406344458E+03 -0.13553781309E+03  0.62306442463E+03  0.90474513553E+02 0.  0.
         23    2    4    4    0    0 -0.93360501136E+02 -0.35693292167E+03  0.37647080841E+03  0.53516525571E+03  0.92489391775E+02 0.  0.
          2    1    3    3  502    0 -0.81030867391E+02  0.10591220574E+03 -0.89655488212E+02  0.16069070714E+03  0.00000000000E+00 0. -1.
         -1    1    3    3    0  502 -0.40947408241E+03  0.39508416050E+03 -0.56507558245E+03  0.80191703556E+03  0.00000000000E+00 0.  1.
         11    1    5    5    0    0  0.40888822684E+03 -0.14281513540E+03 -0.10016068186E+03  0.44454235697E+03  0.00000000000E+00 0. -1.
        -11    1    5    5    0    0  0.17497722409E+03 -0.12483091723E+01 -0.35377131225E+02  0.17852206765E+03  0.00000000000E+00 0.  1.
          2    1    6    6  503    0 -0.35320046197E+02 -0.11514535272E+03  0.18750548681E+03  0.22285480812E+03  0.00000000000E+00 0. -1.
         -2    1    6    6    0  503 -0.58040454939E+02 -0.24178756895E+03  0.18896532159E+03  0.31231044759E+03  0.00000000000E+00 0.  1.
<mgrwt>
<rscale>  0 0.20800775E+04</rscale>
<asrwt>0</asrwt>
<pdfrwt beam="1">  1        2 0.13131072E+00 0.20800775E+04</pdfrwt>
<pdfrwt beam="2">  1       -1 0.19497196E+00 0.20800775E+04</pdfrwt>
<totfact> 0.54204905E+00</totfact>
</mgrwt>
</event>
<event>
12    6  0.1542110E-007  0.2131647E+04  0.7818608E-02  0.8547429E-01
         -1   -1    0    0    0  501 -0.00000000000E+00  0.00000000000E+00  0.47968528557E+03  0.47968528557E+03  0.00000000000E+00 0.  1.
          2   -1    0    0  501    0  0.00000000000E+00 -0.00000000000E+00 -0.23681770663E+04  0.23681770663E+04  0.00000000000E+00 0. -1.
         24    2    1    2    0    0 -0.26393970796E+03  0.13545003647E+03  0.31956195551E+03  0.44326977927E+03  0.79733129790E+02 0.  0.
        254    2    1    2    0    0  0.26393970796E+03 -0.13545003647E+03 -0.22080537363E+04  0.24045925726E+04  0.90473933056E+03 0.  0.
         23    2    4    4    0    0 -0.26227085861E+02  0.14003878577E+03 -0.97064840049E+01  0.16838756869E+03  0.89226878823E+02 0.  0.
         23    2    4    4    0    0  0.29016679382E+03 -0.27548882224E+03 -0.21983472523E+04  0.22362050040E+04  0.88268446726E+02 0.  0.
          2    1    3    3  502    0 -0.41029522042E+02  0.20469189073E+01  0.16930573380E+02  0.44432599193E+02  0.00000000000E+00 0. -1.
         -1    1    3    3    0  502 -0.22291018592E+03  0.13340311756E+03  0.30263138213E+03  0.39883718008E+03  0.00000000000E+00 0.  1.
         11    1    5    5    0    0 -0.36462425752E+02  0.67446535079E+02  0.33081501424E+02  0.83504067700E+02  0.00000000000E+00 0. -1.
        -11    1    5    5    0    0  0.10235339891E+02  0.72592250689E+02 -0.42787985429E+02  0.84883500987E+02  0.00000000000E+00 0.  1.
          4    1    6    6  503    0  0.10289692891E+03 -0.49710245662E+02 -0.72354615364E+03  0.73251479367E+03  0.00000000000E+00 0. -1.
         -4    1    6    6    0  503  0.18726986491E+03 -0.22577857658E+03 -0.14748010986E+04  0.15036902103E+04  0.00000000000E+00 0.  1.
<mgrwt>
<rscale>  0 0.21316470E+04</rscale>
<asrwt>0</asrwt>
<pdfrwt beam="1">  1        2 0.36433492E+00 0.21316470E+04</pdfrwt>
<pdfrwt beam="2">  1       -1 0.73797738E-01 0.21316470E+04</pdfrwt>
<totfact> 0.80213213E+00</totfact>
</mgrwt>
</event>
<event>
12    6  0.1542110E-007  0.1402781E+04  0.7818608E-02  0.8951808E-01
          2   -1    0    0  501    0  0.00000000000E+00  0.00000000000E+00  0.65178475704E+03  0.65178475704E+03  0.00000000000E+00 0. -1.
         -1   -1    0    0    0  501 -0.00000000000E+00 -0.00000000000E+00 -0.75477164792E+03  0.75477164792E+03  0.00000000000E+00 0.  1.
         24    2    1    2    0    0  0.16067620036E+03  0.26411456555E+03 -0.29798699070E+03  0.43662554491E+03  0.79197694045E+02 0.  0.
        254    2    1    2    0    0 -0.16067620036E+03 -0.26411456555E+03  0.19500009982E+03  0.96993086006E+03  0.89842500481E+03 0.  0.
         23    2    4    4    0    0 -0.22590918915E+03 -0.47851167089E+03 -0.14199929262E+03  0.55523168721E+03  0.90055796361E+02 0.  0.
         23    2    4    4    0    0  0.65232988787E+02  0.21439710534E+03  0.33699939245E+03  0.41469917285E+03  0.90472934316E+02 0.  0.
          2    1    3    3  502    0  0.73585539524E+01  0.45926329527E+02 -0.17745553337E+02  0.49782333446E+02  0.00000000000E+00 0. -1.
         -1    1    3    3    0  502  0.15331764641E+03  0.21818823602E+03 -0.28024143737E+03  0.38684321146E+03  0.00000000000E+00 0.  1.
         11    1    5    5    0    0  0.62543939186E+01 -0.29106086463E+02  0.27791675209E+00  0.29771781106E+02  0.00000000000E+00 0. -1.
        -11    1    5    5    0    0 -0.23216358307E+03 -0.44940558443E+03 -0.14227720938E+03  0.52545990611E+03  0.00000000000E+00 0.  1.
          2    1    6    6  503    0  0.18535496494E+02 -0.28581788917E+01  0.35584743817E+02  0.40224467795E+02  0.00000000000E+00 0. -1.
         -2    1    6    6    0  503  0.46697492293E+02  0.21725528423E+03  0.30141464863E+03  0.37447470505E+03  0.00000000000E+00 0.  1.
<mgrwt>
<rscale>  0 0.14027810E+04</rscale>
<asrwt>0</asrwt>
<pdfrwt beam="1">  1        2 0.10027458E+00 0.14027810E+04</pdfrwt>
<pdfrwt beam="2">  1       -1 0.11611871E+00 0.14027810E+04</pdfrwt>
<totfact> 0.33420086E+01</totfact>
</mgrwt>
</event>
<event>
12    6  0.1542110E-007  0.2582262E+04  0.7818608E-02  0.8374252E-01
          2   -1    0    0  501    0  0.00000000000E+00  0.00000000000E+00  0.77101672781E+03  0.77101672781E+03  0.00000000000E+00 0. -1.
         -1   -1    0    0    0  501 -0.00000000000E+00 -0.00000000000E+00 -0.21621048910E+04  0.21621048910E+04  0.00000000000E+00 0.  1.
         24    2    1    2    0    0 -0.11322994057E+04  0.68766910044E+02 -0.71553283857E+03  0.13435712636E+04  0.79785118870E+02 0.  0.
        254    2    1    2    0    0  0.11322994057E+04 -0.68766910044E+02 -0.67555532463E+03  0.15895503552E+04  0.88513530215E+03 0.  0.
         23    2    4    4    0    0  0.12864469754E+03  0.30518262403E+03 -0.28574190982E+03  0.44634883879E+03  0.88842302162E+02 0.  0.
         23    2    4    4    0    0  0.10036547082E+04 -0.37394953407E+03 -0.38981341482E+03  0.11432015164E+04  0.88284662086E+02 0.  0.
          4    1    3    3  502    0 -0.33437526352E+03  0.17944482438E+01 -0.17429442969E+03  0.37707901708E+03  0.00000000000E+00 0. -1.
         -3    1    3    3    0  502 -0.79792414219E+03  0.66972461801E+02 -0.54123840888E+03  0.96649224651E+03  0.00000000000E+00 0.  1.
         11    1    5    5    0    0  0.10965892887E+03  0.30184176554E+03 -0.28043683927E+03  0.42635472664E+03  0.00000000000E+00 0. -1.
        -11    1    5    5    0    0  0.18985768672E+02  0.33408584884E+01 -0.53050705469E+01  0.19994112159E+02  0.00000000000E+00 0.  1.
          1    1    6    6  503    0  0.75023437098E+03 -0.24421864978E+03 -0.26441071840E+03  0.83211020202E+03  0.00000000000E+00 0. -1.
         -1    1    6    6    0  503  0.25342033719E+03 -0.12973088429E+03 -0.12540269642E+03  0.31109131443E+03  0.00000000000E+00 0.  1.
<mgrwt>
<rscale>  0 0.25822618E+04</rscale>
<asrwt>0</asrwt>
<pdfrwt beam="1">  1        2 0.11861796E+00 0.25822618E+04</pdfrwt>
<pdfrwt beam="2">  1       -1 0.33263151E+00 0.25822618E+04</pdfrwt>
<totfact> 0.73940003E-01</totfact>
</mgrwt>
</event>
<event>
12    6  0.1542110E-007  0.1692453E+04  0.7818608E-02  0.8765681E-01
          2   -1    0    0  501    0  0.00000000000E+00  0.00000000000E+00  0.64332903456E+03  0.64332903456E+03  0.00000000000E+00 0. -1.
         -1   -1    0    0    0  501 -0.00000000000E+00 -0.00000000000E+00 -0.11131146778E+04  0.11131146778E+04  0.00000000000E+00 0.  1.
         24    2    1    2    0    0  0.53731932165E+03  0.16426242394E+03 -0.27628775021E+03  0.63180149325E+03  0.84522237442E+02 0.  0.
        254    2    1    2    0    0 -0.53731932165E+03 -0.16426242394E+03 -0.19349789304E+03  0.11246422191E+04  0.95482170539E+03 0.  0.
         23    2    4    4    0    0 -0.24851718723E+02 -0.46066878057E+03 -0.22815892680E+03  0.52429774291E+03  0.99991469738E+02 0.  0.
         23    2    4    4    0    0 -0.51246760293E+03  0.29640635663E+03  0.34661033769E+02  0.60034447621E+03  0.93446939811E+02 0.  0.
          4    1    3    3  502    0  0.15064179292E+03  0.11441452459E+02 -0.93065334853E+02  0.17744016783E+03  0.00000000000E+00 0. -1.
         -3    1    3    3    0  502  0.38667752873E+03  0.15282097148E+03 -0.18322241536E+03  0.45436132542E+03  0.00000000000E+00 0.  1.
         11    1    5    5    0    0  0.25073941747E+02 -0.59982538628E+02 -0.11376715534E+02  0.66000281448E+02  0.00000000000E+00 0. -1.
        -11    1    5    5    0    0 -0.49925660469E+02 -0.40068624194E+03 -0.21678221127E+03  0.45829746146E+03  0.00000000000E+00 0.  1.
          4    1    6    6  503    0 -0.21584195777E+02  0.12196086400E+02  0.21741259903E+02  0.32974299280E+02  0.00000000000E+00 0. -1.
         -4    1    6    6    0  503 -0.49088340715E+03  0.28421027023E+03  0.12919773866E+02  0.56737017693E+03  0.00000000000E+00 0.  1.
<mgrwt>
<rscale>  0 0.16924526E+04</rscale>
<asrwt>0</asrwt>
<pdfrwt beam="1">  1        2 0.98973698E-01 0.16924526E+04</pdfrwt>
<pdfrwt beam="2">  1       -1 0.17124841E+00 0.16924526E+04</pdfrwt>
<totfact> 0.11931054E+01</totfact>
</mgrwt>
</event>
<event>
12    6  0.1542110E-007  0.1347992E+04  0.7818608E-02  0.8992350E-01
         -1   -1    0    0    0  501 -0.00000000000E+00  0.00000000000E+00  0.16265446077E+04  0.16265446077E+04  0.00000000000E+00 0.  1.
          2   -1    0    0  501    0  0.00000000000E+00 -0.00000000000E+00 -0.27928560202E+03  0.27928560202E+03  0.00000000000E+00 0. -1.
         24    2    1    2    0    0  0.17063760047E+03  0.28829216465E+03  0.16372090836E+03  0.38222689655E+03  0.84043451357E+02 0.  0.
        254    2    1    2    0    0 -0.17063760047E+03 -0.28829216465E+03  0.11835380973E+04  0.15236033132E+04  0.89909680526E+03 0.  0.
         23    2    4    4    0    0  0.16043592400E+03  0.22086075609E+03  0.16262685532E+03  0.33216967714E+03  0.96798972352E+02 0.  0.
         23    2    4    4    0    0 -0.33107352447E+03 -0.50915292075E+03  0.10209112420E+04  0.11914336360E+04  0.91694982053E+02 0.  0.
          4    1    3    3  502    0  0.93987492160E+02  0.23187608303E+03  0.11705637521E+03  0.27622882098E+03  0.00000000000E+00 0. -1.
         -3    1    3    3    0  502  0.76650108313E+02  0.56416081626E+02  0.46664533143E+02  0.10599807557E+03  0.00000000000E+00 0.  1.
         11    1    5    5    0    0  0.16307341085E+03  0.22535231842E+03  0.16777496731E+03  0.32484618575E+03  0.00000000000E+00 0. -1.
        -11    1    5    5    0    0 -0.26374868492E+01 -0.44915623240E+01 -0.51481119932E+01  0.73234913863E+01  0.00000000000E+00 0.  1.
          1    1    6    6  503    0 -0.18238801601E+03 -0.21788497972E+03  0.41594336555E+03  0.50373419193E+03  0.00000000000E+00 0. -1.
         -1    1    6    6    0  503 -0.14868550846E+03 -0.29126794103E+03  0.60496787646E+03  0.68769944412E+03  0.00000000000E+00 0.  1.
<mgrwt>
<rscale>  0 0.13479918E+04</rscale>
<asrwt>0</asrwt>
<pdfrwt beam="1">  1        2 0.42967017E-01 0.13479918E+04</pdfrwt>
<pdfrwt beam="2">  1       -1 0.25023763E+00 0.13479918E+04</pdfrwt>
<totfact> 0.92586437E+00</totfact>
</mgrwt>
</event>
<event>
12    6  0.1542110E-007  0.1525670E+04  0.7818608E-02  0.8867560E-01
          2   -1    0    0  501    0  0.00000000000E+00  0.00000000000E+00  0.22140907831E+04  0.22140907831E+04  0.00000000000E+00 0. -1.
         -1   -1    0    0    0  501 -0.00000000000E+00 -0.00000000000E+00 -0.26282451207E+03  0.26282451207E+03  0.00000000000E+00 0.  1.
         24    2    1    2    0    0 -0.19849630920E+03  0.24587038835E+03  0.12568847504E+04  0.12985000106E+04  0.80560344706E+02 0.  0.
        254    2    1    2    0    0  0.19849630920E+03 -0.24587038835E+03  0.69438152064E+03  0.11784152846E+04  0.89813353912E+03 0.  0.
         23    2    4    4    0    0 -0.22804864576E+03 -0.35798195905E+03  0.55688686918E+03  0.70732171160E+03  0.10011868357E+03 0.  0.
         23    2    4    4    0    0  0.42654495496E+03  0.11211157070E+03  0.13749465147E+03  0.47109357298E+03  0.92275524566E+02 0.  0.
          4    1    3    3  502    0 -0.66939227007E+02  0.11924260747E+03  0.41172316342E+03  0.43383824503E+03  0.00000000000E+00 0. -1.
         -1    1    3    3    0  502 -0.13155708220E+03  0.12662778088E+03  0.84516158694E+03  0.86466176555E+03  0.00000000000E+00 0.  1.
         11    1    5    5    0    0 -0.19748565644E+03 -0.28859769443E+03  0.38881235886E+03  0.52293810736E+03  0.00000000000E+00 0.  1.
        -11    1    5    5    0    0 -0.30562989321E+02 -0.69384264621E+02  0.16807451032E+03  0.18438360424E+03  0.00000000000E+00 0. -1.
          2    1    6    6  503    0  0.11900310393E+03  0.90741316919E+01  0.14063648119E+01  0.11935684511E+03  0.00000000000E+00 0. -1.
         -2    1    6    6    0  503  0.30754185103E+03  0.10303743901E+03  0.13608828665E+03  0.35173672788E+03  0.00000000000E+00 0.  1.
<mgrwt>
<rscale>  0 0.15256701E+04</rscale>
<asrwt>0</asrwt>
<pdfrwt beam="1">  1        2 0.34062934E+00 0.15256701E+04</pdfrwt>
<pdfrwt beam="2">  1       -1 0.40434542E-01 0.15256701E+04</pdfrwt>
<totfact> 0.33288283E+01</totfact>
</mgrwt>
</event>
<event>
12    6  0.1542110E-007  0.3181712E+04  0.7818608E-02  0.8193664E-01
          2   -1    0    0  501    0  0.00000000000E+00  0.00000000000E+00  0.23939805565E+04  0.23939805565E+04  0.00000000000E+00 0. -1.
         -1   -1    0    0    0  501 -0.00000000000E+00 -0.00000000000E+00 -0.10571612230E+04  0.10571612230E+04  0.00000000000E+00 0.  1.
         24    2    1    2    0    0  0.23807159697E+03  0.13893580944E+04  0.20950350863E+03  0.14271752096E+04  0.77093184588E+02 0.  0.
        254    2    1    2    0    0 -0.23807159697E+03 -0.13893580944E+04  0.11273158249E+04  0.20239665698E+04  0.91575417397E+03 0.  0.
         23    2    4    4    0    0  0.17460603468E+03 -0.28731339248E+03 -0.55534960636E+02  0.35293241470E+03  0.91874396066E+02 0.  0.
         23    2    4    4    0    0 -0.41267763165E+03 -0.11020447019E+04  0.11828507855E+04  0.16710341551E+04  0.91726845661E+02 0.  0.
          2    1    3    3  502    0  0.73046140599E+02  0.29948292435E+03  0.69729026598E+02  0.31605046715E+03  0.00000000000E+00 0. -1.
         -1    1    3    3    0  502  0.16502545637E+03  0.10898751700E+04  0.13977448203E+03  0.11111247424E+04  0.00000000000E+00 0.  1.
         11    1    5    5    0    0  0.12523724989E+03 -0.19363220570E+03 -0.80295376715E+02  0.24418261070E+03  0.00000000000E+00 0. -1.
        -11    1    5    5    0    0  0.49368784792E+02 -0.93681186772E+02  0.24760416079E+02  0.10874980401E+03  0.00000000000E+00 0.  1.
          4    1    6    6  503    0 -0.34714697539E+02 -0.17903946219E+03  0.16432018180E+03  0.24548189626E+03  0.00000000000E+00 0. -1.
         -4    1    6    6    0  503 -0.37796293411E+03 -0.92300523969E+03  0.10185306037E+04  0.14255522589E+04  0.00000000000E+00 0.  1.
<mgrwt>
<rscale>  0 0.31817124E+04</rscale>
<asrwt>0</asrwt>
<pdfrwt beam="1">  1        2 0.36830470E+00 0.31817124E+04</pdfrwt>
<pdfrwt beam="2">  1       -1 0.16264019E+00 0.31817124E+04</pdfrwt>
<totfact> 0.10720306E+00</totfact>
</mgrwt>
</event>
<event>
12    6  0.1542110E-007  0.1996262E+04  0.7818608E-02  0.8608371E-01
          2   -1    0    0  501    0  0.00000000000E+00  0.00000000000E+00  0.31913076004E+04  0.31913076004E+04  0.00000000000E+00 0. -1.
         -1   -1    0    0    0  501 -0.00000000000E+00 -0.00000000000E+00 -0.31218082565E+03  0.31218082565E+03  0.00000000000E+00 0.  1.
         24    2    1    2    0    0 -0.41770090465E+02 -0.45145423337E+03  0.65958630201E+01  0.46052866097E+03  0.80544874921E+02 0.  0.
        254    2    1    2    0    0  0.41770090465E+02  0.45145423337E+03  0.28725309117E+04  0.30429597651E+04  0.89588762004E+03 0.  0.
         23    2    4    4    0    0 -0.15960501860E+02  0.12147124260E+03  0.25926511179E+04  0.25970363231E+04  0.88021836988E+02 0.  0.
         23    2    4    4    0    0  0.57730592325E+02  0.32998299078E+03  0.27987979379E+03  0.44592344197E+03  0.91068225151E+02 0.  0.
          4    1    3    3  502    0 -0.20088902332E+01  0.30472676444E+01  0.22166381709E+01  0.42702417784E+01  0.00000000000E+00 0. -1.
         -3    1    3    3    0  502 -0.39761200232E+02 -0.45450150102E+03  0.43792248492E+01  0.45625841919E+03  0.00000000000E+00 0.  1.
         11    1    5    5    0    0 -0.32831230403E+02  0.76695134782E+01  0.42546811169E+03  0.42680185706E+03  0.00000000000E+00 0. -1.
        -11    1    5    5    0    0  0.16870728543E+02  0.11380172912E+03  0.21671830063E+04  0.21702344660E+04  0.00000000000E+00 0.  1.
          3    1    6    6  503    0  0.18732346814E+02  0.44620562096E+02  0.86163174140E+02  0.98823013295E+02  0.00000000000E+00 0. -1.
         -3    1    6    6    0  503  0.38998245511E+02  0.28536242868E+03  0.19371661965E+03  0.34710042867E+03  0.00000000000E+00 0.  1.
<mgrwt>
<rscale>  0 0.19962615E+04</rscale>
<asrwt>0</asrwt>
<pdfrwt beam="1">  1        2 0.49097038E+00 0.19962615E+04</pdfrwt>
<pdfrwt beam="2">  1       -1 0.48027821E-01 0.19962615E+04</pdfrwt>
<totfact> 0.60424038E+00</totfact>
</mgrwt>
</event>
<event>
12    6  0.1542110E-007  0.2106828E+04  0.7818608E-02  0.8558242E-01
          2   -1    0    0  501    0  0.00000000000E+00  0.00000000000E+00  0.41656253727E+04  0.41656253727E+04  0.00000000000E+00 0. -1.
         -1   -1    0    0    0  501 -0.00000000000E+00 -0.00000000000E+00 -0.26638994395E+03  0.26638994395E+03  0.00000000000E+00 0.  1.
         24    2    1    2    0    0 -0.23275299206E+03  0.70288773011E+03  0.70149148979E+03  0.10230748229E+04  0.79791393634E+02 0.  0.
        254    2    1    2    0    0  0.23275299206E+03 -0.70288773011E+03  0.31977439390E+04  0.34089404938E+04  0.92037159584E+03 0.  0.
         23    2    4    4    0    0  0.11177890680E+03 -0.17390439293E+03  0.75265265330E+02  0.23836419213E+03  0.91735304228E+02 0.  0.
         23    2    4    4    0    0  0.12097408527E+03 -0.52898333719E+03  0.31224786736E+04  0.31705763016E+04  0.90680300437E+02 0.  0.
          2    1    3    3  502    0 -0.54015587555E+02  0.22810722751E+03  0.18016959514E+03  0.29565465319E+03  0.00000000000E+00 0. -1.
         -1    1    3    3    0  502 -0.17873740451E+03  0.47478050261E+03  0.52132189465E+03  0.72742016969E+03  0.00000000000E+00 0.  1.
         11    1    5    5    0    0  0.11764337446E+03 -0.17735762761E+03  0.59186392165E+02  0.22090432464E+03  0.00000000000E+00 0.  1.
        -11    1    5    5    0    0 -0.58644676641E+01  0.34532346810E+01  0.16078873165E+02  0.17459867497E+02  0.00000000000E+00 0. -1.
          3    1    6    6  503    0  0.30509771373E+02 -0.53003554631E+02  0.49906081040E+03  0.50279410839E+03  0.00000000000E+00 0. -1.
         -3    1    6    6    0  503  0.90464313892E+02 -0.47597978255E+03  0.26234178632E+04  0.26677821932E+04  0.00000000000E+00 0.  1.
<mgrwt>
<rscale>  0 0.21068277E+04</rscale>
<asrwt>0</asrwt>
<pdfrwt beam="1">  1        2 0.64086539E+00 0.21068277E+04</pdfrwt>
<pdfrwt beam="2">  1       -1 0.40983071E-01 0.21068277E+04</pdfrwt>
<totfact> 0.15359159E+00</totfact>
</mgrwt>
</event>
<event>
12    6  0.1542110E-007  0.1323362E+04  0.7818608E-02  0.9011242E-01
          2   -1    0    0  501    0  0.00000000000E+00  0.00000000000E+00  0.11006567749E+04  0.11006567749E+04  0.00000000000E+00 0. -1.
         -1   -1    0    0    0  501 -0.00000000000E+00 -0.00000000000E+00 -0.39778201104E+03  0.39778201104E+03  0.00000000000E+00 0.  1.
         24    2    1    2    0    0 -0.31518927209E+03  0.77328305327E+01  0.37540858831E+03  0.49683166474E+03  0.80659909524E+02 0.  0.
        254    2    1    2    0    0  0.31518927209E+03 -0.77328305327E+01  0.32746617557E+03  0.10016071212E+04  0.89251255186E+03 0.  0.
         23    2    4    4    0    0  0.24255784127E+03 -0.14826929649E+03 -0.25386288003E+03  0.39182362316E+03  0.90891689151E+02 0.  0.
         23    2    4    4    0    0  0.72631430818E+02  0.14053646596E+03  0.58132905560E+03  0.60978349806E+03  0.94162734753E+02 0.  0.
          4    1    3    3  502    0 -0.20053470926E+03  0.43737100995E+02  0.23449502138E+03  0.31163282670E+03  0.00000000000E+00 0. -1.
         -3    1    3    3    0  502 -0.11465456283E+03 -0.36004270462E+02  0.14091356692E+03  0.18519883804E+03  0.00000000000E+00 0.  1.
         11    1    5    5    0    0  0.22804432907E+03 -0.15886371684E+03 -0.22393469782E+03  0.35691545979E+03  0.00000000000E+00 0. -1.
        -11    1    5    5    0    0  0.14513512201E+02  0.10594420344E+02 -0.29928182211E+02  0.34908163362E+02  0.00000000000E+00 0.  1.
          1    1    6    6  503    0  0.54809600236E+02  0.15262980803E+03  0.49945578783E+03  0.52512478000E+03  0.00000000000E+00 0. -1.
         -1    1    6    6    0  503  0.17821830583E+02 -0.12093342071E+02  0.81873267772E+02  0.84658718059E+02  0.00000000000E+00 0.  1.
<mgrwt>
<rscale>  0 0.13233616E+04</rscale>
<asrwt>0</asrwt>
<pdfrwt beam="1">  1        2 0.16933181E+00 0.13233616E+04</pdfrwt>
<pdfrwt beam="2">  1       -1 0.61197233E-01 0.13233616E+04</pdfrwt>
<totfact> 0.65785229E+01</totfact>
</mgrwt>
</event>
<event>
12    6  0.1542110E-007  0.2566979E+04  0.7818608E-02  0.8379505E-01
         -1   -1    0    0    0  501 -0.00000000000E+00  0.00000000000E+00  0.73986047136E+03  0.73986047136E+03  0.00000000000E+00 0.  1.
          2   -1    0    0  501    0  0.00000000000E+00 -0.00000000000E+00 -0.22265623670E+04  0.22265623670E+04  0.00000000000E+00 0. -1.
         24    2    1    2    0    0 -0.48058741805E+03  0.11975550464E+03  0.51215677203E+03  0.71680204248E+03  0.78708078904E+02 0.  0.
        254    2    1    2    0    0  0.48058741805E+03 -0.11975550464E+03 -0.19988586676E+04  0.22496207959E+04  0.90556728336E+03 0.  0.
         23    2    4    4    0    0  0.46858102304E+03  0.16983708832E+03 -0.18371637872E+04  0.19052118201E+04  0.79047370618E+02 0.  0.
         23    2    4    4    0    0  0.12006395011E+02 -0.28959259296E+03 -0.16169488047E+03  0.34440897577E+03  0.92001547826E+02 0.  0.
          2    1    3    3  502    0 -0.17179165854E+03  0.77097428222E+02  0.16664633837E+03  0.25145057063E+03  0.00000000000E+00 0. -1.
         -1    1    3    3    0  502 -0.30879575951E+03  0.42658076422E+02  0.34551043366E+03  0.46535147184E+03  0.00000000000E+00 0.  1.
         11    1    5    5    0    0  0.33116156670E+01 -0.31464089507E+01 -0.41364182189E+01  0.61625192326E+01  0.00000000000E+00 0. -1.
        -11    1    5    5    0    0  0.46526940737E+03  0.17298349727E+03 -0.18330273689E+04  0.18990493008E+04  0.00000000000E+00 0.  1.
          3    1    6    6  503    0 -0.31287525305E+02 -0.44387344747E+02 -0.38740680421E+02  0.66708214883E+02  0.00000000000E+00 0. -1.
         -3    1    6    6    0  503  0.43293920316E+02 -0.24520524822E+03 -0.12295420005E+03  0.27770076089E+03  0.00000000000E+00 0.  1.
<mgrwt>
<rscale>  0 0.25669791E+04</rscale>
<asrwt>0</asrwt>
<pdfrwt beam="1">  1        2 0.34254805E+00 0.25669791E+04</pdfrwt>
<pdfrwt beam="2">  1       -1 0.11382469E+00 0.25669791E+04</pdfrwt>
<totfact> 0.35405747E+00</totfact>
</mgrwt>
</event>
<event>
12    6  0.1542110E-007  0.2618539E+04  0.7818608E-02  0.8361931E-01
         -1   -1    0    0    0  501 -0.00000000000E+00  0.00000000000E+00  0.79248891392E+03  0.79248891392E+03  0.00000000000E+00 0.  1.
          2   -1    0    0  501    0  0.00000000000E+00 -0.00000000000E+00 -0.21630415230E+04  0.21630415230E+04  0.00000000000E+00 0. -1.
         24    2    1    2    0    0  0.87940951083E+03  0.67054336268E+03 -0.23513919564E+03  0.11333260652E+04  0.78409436852E+02 0.  0.
        254    2    1    2    0    0 -0.87940951083E+03 -0.67054336268E+03 -0.11354134134E+04  0.18222043717E+04  0.89904152512E+03 0.  0.
         23    2    4    4    0    0  0.16603248293E+03 -0.40339367457E+02 -0.22472890506E+03  0.29672963325E+03  0.91385691041E+02 0.  0.
         23    2    4    4    0    0 -0.10454419938E+04 -0.63020399523E+03 -0.91068450839E+03  0.15254747385E+04  0.87297571344E+02 0.  0.
          2    1    3    3  502    0  0.22807314622E+03  0.17614555508E+03 -0.96715828437E+02  0.30397132772E+03  0.00000000000E+00 0. -1.
         -1    1    3    3    0  502  0.65133636461E+03  0.49439780761E+03 -0.13842336720E+03  0.82935473750E+03  0.00000000000E+00 0.  1.
         11    1    5    5    0    0  0.12422250840E+03 -0.28941366888E+02 -0.92442877324E+02  0.15752625139E+03  0.00000000000E+00 0. -1.
        -11    1    5    5    0    0  0.41809974529E+02 -0.11398000569E+02 -0.13228602773E+03  0.13920338186E+03  0.00000000000E+00 0.  1.
          4    1    6    6  503    0 -0.91938296473E+03 -0.55721260360E+03 -0.83551688302E+03  0.13615577047E+04  0.00000000000E+00 0. -1.
         -4    1    6    6    0  503 -0.12605902903E+03 -0.72991391630E+02 -0.75167625372E+02  0.16391703376E+03  0.00000000000E+00 0.  1.
<mgrwt>
<rscale>  0 0.26185389E+04</rscale>
<asrwt>0</asrwt>
<pdfrwt beam="1">  1        2 0.33277562E+00 0.26185389E+04</pdfrwt>
<pdfrwt beam="2">  1       -1 0.12192137E+00 0.26185389E+04</pdfrwt>
<totfact> 0.32395234E+00</totfact>
</mgrwt>
</event>
<event>
12    6  0.1542110E-007  0.1645051E+04  0.7818608E-02  0.8793340E-01
          2   -1    0    0  501    0  0.00000000000E+00  0.00000000000E+00  0.29815228163E+03  0.29815228163E+03  0.00000000000E+00 0. -1.
         -1   -1    0    0    0  501 -0.00000000000E+00 -0.00000000000E+00 -0.22691354675E+04  0.22691354675E+04  0.00000000000E+00 0.  1.
         24    2    1    2    0    0  0.12485728380E+03 -0.38648144794E+01  0.18047705442E+03  0.23329844329E+03  0.79069073353E+02 0.  0.
        254    2    1    2    0    0 -0.12485728380E+03  0.38648144794E+01 -0.21514602403E+04  0.23339893058E+04  0.89616998172E+03 0.  0.
         23    2    4    4    0    0 -0.34777501884E+03 -0.24624547297E+03 -0.58357930697E+03  0.72826839969E+03  0.90695963339E+02 0.  0.
         23    2    4    4    0    0  0.22291773505E+03  0.25011028745E+03 -0.15678809333E+04  0.16057209061E+04  0.88552441661E+02 0.  0.
          4    1    3    3  502    0  0.12977250213E+03 -0.14934852679E+02  0.14193327052E+03  0.19289635925E+03  0.00000000000E+00 0. -1.
         -3    1    3    3    0  502 -0.49152183317E+01  0.11070038200E+02  0.38543783900E+02  0.40402084034E+02  0.00000000000E+00 0.  1.
         11    1    5    5    0    0 -0.73895998715E+02 -0.87304146509E+02 -0.11083767131E+03  0.15927216331E+03  0.00000000000E+00 0.  1.
        -11    1    5    5    0    0 -0.27387902013E+03 -0.15894132646E+03 -0.47274163566E+03  0.56899623638E+03  0.00000000000E+00 0. -1.
          2    1    6    6  503    0  0.56381246141E+01 -0.45952310554E+01 -0.94608914273E+02  0.94888098608E+02  0.00000000000E+00 0. -1.
         -2    1    6    6    0  503  0.21727961043E+03  0.25470551851E+03 -0.14732720190E+04  0.15108328075E+04  0.00000000000E+00 0.  1.
<mgrwt>
<rscale>  0 0.16450507E+04</rscale>
<asrwt>0</asrwt>
<pdfrwt beam="1">  1        2 0.45869584E-01 0.16450507E+04</pdfrwt>
<pdfrwt beam="2">  1       -1 0.34909775E+00 0.16450507E+04</pdfrwt>
<totfact> 0.19118464E+00</totfact>
</mgrwt>
</event>
<event>
12    6  0.1542110E-007  0.2546865E+04  0.7818608E-02  0.8386477E-01
         -1   -1    0    0    0  501 -0.00000000000E+00  0.00000000000E+00  0.56231209903E+03  0.56231209903E+03  0.00000000000E+00 0.  1.
          2   -1    0    0  501    0  0.00000000000E+00 -0.00000000000E+00 -0.28838617223E+04  0.28838617223E+04  0.00000000000E+00 0. -1.
         24    2    1    2    0    0  0.60352812993E+03 -0.68283923613E+03 -0.15306212083E+03  0.92756761716E+03  0.80237432426E+02 0.  0.
        254    2    1    2    0    0 -0.60352812993E+03  0.68283923613E+03 -0.21684875024E+04  0.25186062041E+04  0.90029080714E+03 0.  0.
         23    2    4    4    0    0 -0.17790537173E+03 -0.17052617484E+03 -0.83941071490E+03  0.87963017237E+03  0.91702749440E+02 0.  0.
         23    2    4    4    0    0 -0.42562275820E+03  0.85336541096E+03 -0.13290767875E+04  0.16389760318E+04  0.10202974418E+03 0.  0.
          2    1    3    3  502    0  0.11892847236E+03 -0.10760225385E+03 -0.52308988468E+02  0.16869634509E+03  0.00000000000E+00 0. -1.
         -1    1    3    3    0  502  0.48459965756E+03 -0.57523698228E+03 -0.10075313236E+03  0.75887127207E+03  0.00000000000E+00 0.  1.
         11    1    5    5    0    0 -0.13299446572E+03 -0.64851941530E+02 -0.48765727554E+03  0.50961055780E+03  0.00000000000E+00 0.  1.
        -11    1    5    5    0    0 -0.44910906006E+02 -0.10567423331E+03 -0.35175343936E+03  0.37001961457E+03  0.00000000000E+00 0. -1.
          3    1    6    6  503    0 -0.18525024490E+03  0.39978240930E+03 -0.69861360443E+03  0.82595677629E+03  0.00000000000E+00 0. -1.
         -3    1    6    6    0  503 -0.24037251330E+03  0.45358300167E+03 -0.63046318308E+03  0.81301925548E+03  0.00000000000E+00 0.  1.
<mgrwt>
<rscale>  0 0.25468650E+04</rscale>
<asrwt>0</asrwt>
<pdfrwt beam="1">  1        2 0.44367104E+00 0.25468650E+04</pdfrwt>
<pdfrwt beam="2">  1       -1 0.86509552E-01 0.25468650E+04</pdfrwt>
<totfact> 0.27360311E+00</totfact>
</mgrwt>
</event>
<event>
12    6  0.1542110E-007  0.1606434E+04  0.7818608E-02  0.8816605E-01
          2   -1    0    0  501    0  0.00000000000E+00  0.00000000000E+00  0.14631512817E+04  0.14631512817E+04  0.00000000000E+00 0. -1.
         -1   -1    0    0    0  501 -0.00000000000E+00 -0.00000000000E+00 -0.44093695140E+03  0.44093695140E+03  0.00000000000E+00 0.  1.
         24    2    1    2    0    0 -0.50835183346E+03  0.23386229289E+02  0.60605326020E+03  0.79542082213E+03  0.80157518516E+02 0.  0.
        254    2    1    2    0    0  0.50835183346E+03 -0.23386229289E+02  0.41616107006E+03  0.11086674109E+04  0.89274010190E+03 0.  0.
         23    2    4    4    0    0 -0.80867170063E+02  0.24356166836E+03 -0.85042386235E+02  0.28523000762E+03  0.90896448240E+02 0.  0.
         23    2    4    4    0    0  0.58921900353E+03 -0.26694789765E+03  0.50120345630E+03  0.82343740332E+03  0.91673542575E+02 0.  0.
          2    1    3    3  502    0 -0.37934129651E+03 -0.40301565190E+01  0.40459577061E+03  0.55462942492E+03  0.00000000000E+00 0. -1.
         -1    1    3    3    0  502 -0.12901053696E+03  0.27416385808E+02  0.20145748959E+03  0.24079139721E+03  0.00000000000E+00 0.  1.
         11    1    5    5    0    0 -0.95785150603E+02  0.21013817442E+03 -0.90857878537E+02  0.24816930011E+03  0.00000000000E+00 0.  1.
        -11    1    5    5    0    0  0.14917980540E+02  0.33423493933E+02  0.58154923027E+01  0.37060707506E+02  0.00000000000E+00 0. -1.
          1    1    6    6  503    0  0.45939312529E+01 -0.16139609023E+02  0.17749555337E+02  0.24426172406E+02  0.00000000000E+00 0. -1.
         -1    1    6    6    0  503  0.58462507227E+03 -0.25080828862E+03  0.48345390096E+03  0.79901123092E+03  0.00000000000E+00 0.  1.
<mgrwt>
<rscale>  0 0.16064339E+04</rscale>
<asrwt>0</asrwt>
<pdfrwt beam="1">  1        2 0.22510020E+00 0.16064339E+04</pdfrwt>
<pdfrwt beam="2">  1       -1 0.67836455E-01 0.16064339E+04</pdfrwt>
<totfact> 0.32009074E+01</totfact>
</mgrwt>
</event>
<event>
12    6  0.1542110E-007  0.2612741E+04  0.7818608E-02  0.8363886E-01
         -1   -1    0    0    0  501 -0.00000000000E+00  0.00000000000E+00  0.11911358071E+04  0.11911358071E+04  0.00000000000E+00 0.  1.
          2   -1    0    0  501    0  0.00000000000E+00 -0.00000000000E+00 -0.14327534816E+04  0.14327534816E+04  0.00000000000E+00 0. -1.
         24    2    1    2    0    0  0.10685309825E+03  0.81353498656E+03 -0.92140902084E+03  0.12363806953E+04  0.79911707852E+02 0.  0.
        254    2    1    2    0    0 -0.10685309825E+03 -0.81353498656E+03  0.67979134635E+03  0.13875085935E+04  0.88871089981E+03 0.  0.
         23    2    4    4    0    0  0.38214319548E+03 -0.37090510527E+03  0.35875607320E+03  0.64844004356E+03  0.90357905317E+02 0.  0.
         23    2    4    4    0    0 -0.48899629374E+03 -0.44262988129E+03  0.32103527315E+03  0.73906854993E+03  0.90111529700E+02 0.  0.
          4    1    3    3  502    0  0.11139524971E+03  0.56768646058E+03 -0.64760500879E+03  0.86837150264E+03  0.00000000000E+00 0. -1.
         -3    1    3    3    0  502 -0.45421514537E+01  0.24584852598E+03 -0.27380401205E+03  0.36800919266E+03  0.00000000000E+00 0.  1.
         11    1    5    5    0    0  0.35025734050E+03 -0.36496490226E+03  0.32304403199E+03  0.60019749338E+03  0.00000000000E+00 0.  1.
        -11    1    5    5    0    0  0.31885854981E+02 -0.59402030148E+01  0.35712041210E+02  0.48242550173E+02  0.00000000000E+00 0. -1.
          1    1    6    6  503    0 -0.18619156518E+03 -0.12140911840E+03  0.13471316487E+03  0.25991365829E+03  0.00000000000E+00 0. -1.
         -1    1    6    6    0  503 -0.30280472855E+03 -0.32122076289E+03  0.18632210828E+03  0.47915489163E+03  0.00000000000E+00 0.  1.
<mgrwt>
<rscale>  0 0.26127411E+04</rscale>
<asrwt>0</asrwt>
<pdfrwt beam="1">  1        2 0.22042361E+00 0.26127411E+04</pdfrwt>
<pdfrwt beam="2">  1       -1 0.18325166E+00 0.26127411E+04</pdfrwt>
<totfact> 0.27517374E+00</totfact>
</mgrwt>
</event>
<event>
12    6  0.1542110E-007  0.1289137E+04  0.7818608E-02  0.9038224E-01
          2   -1    0    0  501    0  0.00000000000E+00  0.00000000000E+00  0.26589258536E+04  0.26589258536E+04  0.00000000000E+00 0. -1.
         -1   -1    0    0    0  501 -0.00000000000E+00 -0.00000000000E+00 -0.15625430321E+03  0.15625430321E+03  0.00000000000E+00 0.  1.
         24    2    1    2    0    0  0.28587324534E+03  0.64052836519E+02  0.10935135289E+04  0.11349565410E+04  0.80797486196E+02 0.  0.
        254    2    1    2    0    0 -0.28587324534E+03 -0.64052836519E+02  0.14091580215E+04  0.16802236158E+04  0.86694797503E+03 0.  0.
         23    2    4    4    0    0 -0.13838004028E+03  0.39042711045E+03  0.70949361116E+03  0.82766000020E+03  0.10028722515E+03 0.  0.
         23    2    4    4    0    0 -0.14749320506E+03 -0.45447994697E+03  0.69966441035E+03  0.85256361565E+03  0.95016650556E+02 0.  0.
          2    1    3    3  502    0  0.24376850786E+03  0.25059023315E+02  0.92644657574E+03  0.95830803909E+03  0.00000000000E+00 0. -1.
         -1    1    3    3    0  502  0.42104737476E+02  0.38993813203E+02  0.16706695317E+03  0.17664850191E+03  0.00000000000E+00 0.  1.
         11    1    5    5    0    0 -0.85165285123E+01  0.17119503442E+02  0.95868049764E+02  0.97756286864E+02  0.00000000000E+00 0. -1.
        -11    1    5    5    0    0 -0.12986351176E+03  0.37330760701E+03  0.61362556140E+03  0.72990371333E+03  0.00000000000E+00 0.  1.
          1    1    6    6  503    0 -0.17270041679E+02 -0.27750375258E+02  0.16493812464E+02  0.36611248492E+02  0.00000000000E+00 0. -1.
         -1    1    6    6    0  503 -0.13022316338E+03 -0.42672957171E+03  0.68317059788E+03  0.81595236716E+03  0.00000000000E+00 0.  1.
<mgrwt>
<rscale>  0 0.12891371E+04</rscale>
<asrwt>0</asrwt>
<pdfrwt beam="1">  1        2 0.40906548E+00 0.12891371E+04</pdfrwt>
<pdfrwt beam="2">  1       -1 0.24039126E-01 0.12891371E+04</pdfrwt>
<totfact> 0.47332909E+01</totfact>
</mgrwt>
</event>
<event>
12    6  0.1542110E-007  0.1663363E+04  0.7818608E-02  0.8782540E-01
          2   -1    0    0  501    0  0.00000000000E+00  0.00000000000E+00  0.36883129091E+04  0.36883129091E+04  0.00000000000E+00 0. -1.
         -1   -1    0    0    0  501 -0.00000000000E+00 -0.00000000000E+00 -0.18753676410E+03  0.18753676410E+03  0.00000000000E+00 0.  1.
         24    2    1    2    0    0 -0.34549796359E+03  0.17937206464E+03  0.22521830710E+04  0.22871758629E+04  0.85449764915E+02 0.  0.
        254    2    1    2    0    0  0.34549796359E+03 -0.17937206464E+03  0.12485930740E+04  0.15886738103E+04  0.90186286682E+03 0.  0.
         23    2    4    4    0    0  0.42853262745E+03 -0.40867902288E+03  0.11741596096E+04  0.13181934929E+04  0.91238914296E+02 0.  0.
         23    2    4    4    0    0 -0.83034663858E+02  0.22930695824E+03  0.74433464467E+02  0.27048031738E+03  0.90237602796E+02 0.  0.
          4    1    3    3  502    0 -0.27090105645E+03  0.10946747242E+03  0.18017301621E+04  0.18252676754E+04  0.00000000000E+00 0. -1.
         -3    1    3    3    0  502 -0.74596907133E+02  0.69904592223E+02  0.45045290885E+03  0.46190818748E+03  0.00000000000E+00 0.  1.
         11    1    5    5    0    0  0.43605718182E+02 -0.85233820428E+02  0.16642668391E+03  0.19200027062E+03  0.00000000000E+00 0.  1.
        -11    1    5    5    0    0  0.38492690926E+03 -0.32344520245E+03  0.10077329256E+04  0.11261932223E+04  0.00000000000E+00 0. -1.
          3    1    6    6  503    0 -0.61004965267E+02  0.16573855765E+03  0.93228006523E+01  0.17685527951E+03  0.00000000000E+00 0. -1.
         -3    1    6    6    0  503 -0.22029698591E+02  0.63568400591E+02  0.65110663815E+02  0.93625037870E+02  0.00000000000E+00 0.  1.
<mgrwt>
<rscale>  0 0.16633632E+04</rscale>
<asrwt>0</asrwt>
<pdfrwt beam="1">  1        2 0.56743270E+00 0.16633632E+04</pdfrwt>
<pdfrwt beam="2">  1       -1 0.28851813E-01 0.16633632E+04</pdfrwt>
<totfact> 0.71627182E+00</totfact>
</mgrwt>
</event>
<event>
12    6  0.1542110E-007  0.1371966E+04  0.7818608E-02  0.8974364E-01
          2   -1    0    0  501    0  0.00000000000E+00  0.00000000000E+00  0.19711851924E+04  0.19711851924E+04  0.00000000000E+00 0. -1.
         -1   -1    0    0    0  501 -0.00000000000E+00 -0.00000000000E+00 -0.23872589337E+03  0.23872589337E+03  0.00000000000E+00 0.  1.
         24    2    1    2    0    0  0.37539810207E+03 -0.56746988342E+02  0.59219184359E+03  0.70778724025E+03  0.78279257322E+02 0.  0.
        254    2    1    2    0    0 -0.37539810207E+03  0.56746988342E+02  0.11402674554E+04  0.15021238455E+04  0.90112275612E+03 0.  0.
         23    2    4    4    0    0 -0.12204833451E+03  0.39448350890E+03  0.93102900405E+03  0.10224870829E+04  0.90287284071E+02 0.  0.
         23    2    4    4    0    0 -0.25334976756E+03 -0.33773652056E+03  0.20923845139E+03  0.47963676257E+03  0.89546816930E+02 0.  0.
          4    1    3    3  502    0  0.47920515072E+02 -0.12425409885E+02  0.37449418602E+02  0.62074354844E+02  0.00000000000E+00 0. -1.
         -3    1    3    3    0  502  0.32747758700E+03 -0.44321578457E+02  0.55474242499E+03  0.64571288541E+03  0.00000000000E+00 0.  1.
         11    1    5    5    0    0 -0.81703634295E+02  0.24349693718E+03  0.46871295893E+03  0.53446990574E+03  0.00000000000E+00 0.  1.
        -11    1    5    5    0    0 -0.40344700214E+02  0.15098657172E+03  0.46231604512E+03  0.48801717721E+03  0.00000000000E+00 0. -1.
          3    1    6    6  503    0 -0.85715757347E+02 -0.72878589940E+02  0.90718813630E+02  0.14452813939E+03  0.00000000000E+00 0. -1.
         -3    1    6    6    0  503 -0.16763401022E+03 -0.26485793062E+03  0.11851963776E+03  0.33510862318E+03  0.00000000000E+00 0.  1.
<mgrwt>
<rscale>  0 0.13719664E+04</rscale>
<asrwt>0</asrwt>
<pdfrwt beam="1">  1        2 0.30325925E+00 0.13719664E+04</pdfrwt>
<pdfrwt beam="2">  1       -1 0.36727062E-01 0.13719664E+04</pdfrwt>
<totfact> 0.54827143E+01</totfact>
</mgrwt>
</event>
<event>
12    6  0.1542110E-007  0.2119320E+04  0.7818608E-02  0.8552780E-01
          2   -1    0    0  501    0  0.00000000000E+00  0.00000000000E+00  0.15795975152E+04  0.15795975152E+04  0.00000000000E+00 0. -1.
         -1   -1    0    0    0  501 -0.00000000000E+00 -0.00000000000E+00 -0.71086439473E+03  0.71086439473E+03  0.00000000000E+00 0.  1.
         24    2    1    2    0    0  0.13993669739E+03  0.38270041777E+03 -0.48575000163E+03  0.63908664379E+03  0.80229577726E+02 0.  0.
        254    2    1    2    0    0 -0.13993669739E+03 -0.38270041777E+03  0.13544831221E+04  0.16513752661E+04  0.85227569043E+03 0.  0.
         23    2    4    4    0    0  0.63922050005E+02  0.19856857951E+03  0.94590408053E+02  0.24600580078E+03  0.89755219775E+02 0.  0.
         23    2    4    4    0    0 -0.20385874739E+03 -0.58126899728E+03  0.12598927140E+04  0.14053694653E+04  0.91113375310E+02 0.  0.
          2    1    3    3  502    0  0.72466992601E+02  0.12439818502E+03 -0.12753796430E+03  0.19233383943E+03  0.00000000000E+00 0. -1.
         -1    1    3    3    0  502  0.67469704784E+02  0.25830223275E+03 -0.35821203733E+03  0.44675280435E+03  0.00000000000E+00 0.  1.
         11    1    5    5    0    0  0.23226840759E+02  0.10918388042E+03  0.29302652785E+01  0.11166553779E+03  0.00000000000E+00 0.  1.
        -11    1    5    5    0    0  0.40695209246E+02  0.89384699086E+02  0.91660142775E+02  0.13434026299E+03  0.00000000000E+00 0. -1.
          2    1    6    6  503    0 -0.46630750564E+02 -0.98994867121E+02  0.15650038414E+03  0.19096277347E+03  0.00000000000E+00 0. -1.
         -2    1    6    6    0  503 -0.15722799683E+03 -0.48227413015E+03  0.11033923299E+04  0.12144066919E+04  0.00000000000E+00 0.  1.
<mgrwt>
<rscale>  0 0.21193203E+04</rscale>
<asrwt>0</asrwt>
<pdfrwt beam="1">  1        2 0.24301500E+00 0.21193203E+04</pdfrwt>
<pdfrwt beam="2">  1       -1 0.10936375E+00 0.21193203E+04</pdfrwt>
<totfact> 0.92847037E+00</totfact>
</mgrwt>
</event>
<event>
12    6  0.1542110E-007  0.1504295E+04  0.7818608E-02  0.8881602E-01
          2   -1    0    0  501    0  0.00000000000E+00  0.00000000000E+00  0.95487479596E+03  0.95487479596E+03  0.00000000000E+00 0. -1.
         -1   -1    0    0    0  501 -0.00000000000E+00 -0.00000000000E+00 -0.59246062635E+03  0.59246062635E+03  0.00000000000E+00 0.  1.
         24    2    1    2    0    0 -0.70625676288E+02 -0.30379191280E+03  0.48889694418E+03  0.58542937329E+03  0.80186137477E+02 0.  0.
        254    2    1    2    0    0  0.70625676288E+02  0.30379191280E+03 -0.12648277457E+03  0.96190604903E+03  0.90110368020E+03 0.  0.
         23    2    4    4    0    0 -0.83637632901E+02 -0.10243513217E+03 -0.40604189993E+03  0.43724246367E+03  0.93929428797E+02 0.  0.
         23    2    4    4    0    0  0.15426330919E+03  0.40622704498E+03  0.27955912536E+03  0.52466358536E+03  0.91109783228E+02 0.  0.
          4    1    3    3  502    0 -0.63524479852E+02 -0.30730297628E+03  0.47236070232E+03  0.56709356536E+03  0.00000000000E+00 0. -1.
         -3    1    3    3    0  502 -0.71011964359E+01  0.35110634812E+01  0.16536241861E+02  0.18335807931E+02  0.00000000000E+00 0.  1.
         11    1    5    5    0    0 -0.35803207335E+02 -0.86545532422E+02 -0.15427278048E+03  0.18047739370E+03  0.00000000000E+00 0. -1.
        -11    1    5    5    0    0 -0.47834425566E+02 -0.15889599752E+02 -0.25176911945E+03  0.25676506997E+03  0.00000000000E+00 0.  1.
          1    1    6    6  503    0  0.13929500159E+03  0.32041664898E+03  0.18224741048E+03  0.39406096614E+03  0.00000000000E+00 0. -1.
         -1    1    6    6    0  503  0.14968307597E+02  0.85810395998E+02  0.97311714881E+02  0.13060261922E+03  0.00000000000E+00 0.  1.
<mgrwt>
<rscale>  0 0.15042948E+04</rscale>
<asrwt>0</asrwt>
<pdfrwt beam="1">  1        2 0.14690381E+00 0.15042948E+04</pdfrwt>
<pdfrwt beam="2">  1       -1 0.91147789E-01 0.15042948E+04</pdfrwt>
<totfact> 0.34896234E+01</totfact>
</mgrwt>
</event>
<event>
12    6  0.1542110E-007  0.1050980E+04  0.7818608E-02  0.9254332E-01
         -3   -1    0    0    0  501 -0.00000000000E+00  0.00000000000E+00  0.31168307805E+03  0.31168307805E+03  0.00000000000E+00 0.  1.
          2   -1    0    0  501    0  0.00000000000E+00 -0.00000000000E+00 -0.88596404757E+03  0.88596404757E+03  0.00000000000E+00 0. -1.
         24    2    1    2    0    0  0.77641327937E+02  0.35934815897E+02 -0.31550246177E+00  0.11649097457E+03  0.79060488338E+02 0.  0.
        254    2    1    2    0    0 -0.77641327937E+02 -0.35934815897E+02 -0.57396546706E+03  0.10811561511E+04  0.91221860252E+03 0.  0.
         23    2    4    4    0    0  0.28127109138E+03 -0.45169590414E+02  0.98847690001E+02  0.31442174110E+03  0.89086737008E+02 0.  0.
         23    2    4    4    0    0 -0.35891241932E+03  0.92347745174E+01 -0.67281315706E+03  0.76673440996E+03  0.79376982147E+02 0.  0.
          2    1    3    3  502    0  0.47144025866E+02  0.45525176272E+02 -0.30712993739E+02  0.72376714721E+02  0.00000000000E+00 0. -1.
         -1    1    3    3    0  502  0.30497302071E+02 -0.95903603750E+01  0.30397491277E+02  0.44114259845E+02  0.00000000000E+00 0.  1.
         11    1    5    5    0    0  0.21269965174E+03 -0.47282360069E+02  0.34963393540E+02  0.22067895756E+03  0.00000000000E+00 0. -1.
        -11    1    5    5    0    0  0.68571439644E+02  0.21127696550E+01  0.63884296461E+02  0.93742783534E+02  0.00000000000E+00 0.  1.
          2    1    6    6  503    0 -0.18058576917E+03 -0.33807551480E+01 -0.25700790831E+03  0.31412690821E+03  0.00000000000E+00 0. -1.
         -2    1    6    6    0  503 -0.17832665015E+03  0.12615529665E+02 -0.41580524875E+03  0.45260750174E+03  0.00000000000E+00 0.  1.
<mgrwt>
<rscale>  0 0.10509805E+04</rscale>
<asrwt>0</asrwt>
<pdfrwt beam="1">  1        2 0.13630216E+00 0.10509805E+04</pdfrwt>
<pdfrwt beam="2">  1       -3 0.47951244E-01 0.10509805E+04</pdfrwt>
<totfact> 0.82108428E+01</totfact>
</mgrwt>
</event>
<event>
12    6  0.1542110E-007  0.3067746E+04  0.7818608E-02  0.8224646E-01
         -1   -1    0    0    0  501 -0.00000000000E+00  0.00000000000E+00  0.16582979874E+04  0.16582979874E+04  0.00000000000E+00 0.  1.
          2   -1    0    0  501    0  0.00000000000E+00 -0.00000000000E+00 -0.14187836434E+04  0.14187836434E+04  0.00000000000E+00 0. -1.
         24    2    1    2    0    0  0.64935990302E+03  0.92466581090E+03 -0.71811787831E+03  0.13412705697E+04  0.81475815912E+02 0.  0.
        254    2    1    2    0    0 -0.64935990302E+03 -0.92466581090E+03  0.95763222236E+03  0.17358110611E+04  0.90515491541E+03 0.  0.
         23    2    4    4    0    0 -0.74549395290E+03 -0.73579752008E+03  0.38653190237E+03  0.11197913354E+04  0.85828311101E+02 0.  0.
         23    2    4    4    0    0  0.96134049885E+02 -0.18886829082E+03  0.57110031999E+03  0.61601972563E+03  0.91715538716E+02 0.  0.
          2    1    3    3  502    0  0.58176376667E+03  0.84907418052E+03 -0.62879534488E+03  0.12061341675E+04  0.00000000000E+00 0. -1.
         -1    1    3    3    0  502  0.67596136349E+02  0.75591630379E+02 -0.89322533430E+02  0.13513640224E+03  0.00000000000E+00 0.  1.
         11    1    5    5    0    0 -0.49082086230E+03 -0.48251807830E+03  0.29698432747E+03  0.74961890686E+03  0.00000000000E+00 0. -1.
        -11    1    5    5    0    0 -0.25467309060E+03 -0.25327944179E+03  0.89547574898E+02  0.37017242857E+03  0.00000000000E+00 0.  1.
          1    1    6    6  503    0  0.14359608345E+02  0.84205901298E+01  0.30188799741E+02  0.34474168877E+02  0.00000000000E+00 0. -1.
         -1    1    6    6    0  503  0.81774441540E+02 -0.19728888095E+03  0.54091152025E+03  0.58154555675E+03  0.00000000000E+00 0.  1.
<mgrwt>
<rscale>  0 0.30677458E+04</rscale>
<asrwt>0</asrwt>
<pdfrwt beam="1">  1        2 0.21827441E+00 0.30677458E+04</pdfrwt>
<pdfrwt beam="2">  1       -1 0.25512277E+00 0.30677458E+04</pdfrwt>
<totfact> 0.88337773E-01</totfact>
</mgrwt>
</event>
<event>
12    6  0.1542110E-007  0.1733915E+04  0.7818608E-02  0.8742254E-01
          2   -1    0    0  501    0  0.00000000000E+00  0.00000000000E+00  0.24573905431E+04  0.24573905431E+04  0.00000000000E+00 0. -1.
         -1   -1    0    0    0  501 -0.00000000000E+00 -0.00000000000E+00 -0.30585910913E+03  0.30585910913E+03  0.00000000000E+00 0.  1.
         24    2    1    2    0    0 -0.34078301022E+03 -0.48542971194E+03  0.84294777227E+03  0.10336980042E+04  0.78711827196E+02 0.  0.
        254    2    1    2    0    0  0.34078301022E+03  0.48542971194E+03  0.13085836617E+04  0.17295516480E+04  0.96290323418E+03 0.  0.
         23    2    4    4    0    0  0.62889837927E+03  0.52437228803E+03  0.10037291737E+04  0.12985431338E+04  0.90898560442E+02 0.  0.
         23    2    4    4    0    0 -0.28811536905E+03 -0.38942576093E+02  0.30485448791E+03  0.43100851421E+03  0.91132268711E+02 0.  0.
          2    1    3    3  502    0 -0.60624091480E+02 -0.12593463692E+03  0.24208163105E+03  0.27953234041E+03  0.00000000000E+00 0. -1.
         -1    1    3    3    0  502 -0.28015891874E+03 -0.35949507502E+03  0.60086614122E+03  0.75416566374E+03  0.00000000000E+00 0.  1.
         11    1    5    5    0    0  0.22229845376E+03  0.24304573842E+03  0.39460474595E+03  0.51400460993E+03  0.00000000000E+00 0. -1.
        -11    1    5    5    0    0  0.40659992551E+03  0.28132654961E+03  0.60912442780E+03  0.78453852390E+03  0.00000000000E+00 0.  1.
          1    1    6    6  503    0 -0.45677454971E+02  0.22150306963E+02  0.80029847293E+02  0.94772582792E+02  0.00000000000E+00 0. -1.
         -1    1    6    6    0  503 -0.24243791408E+03 -0.61092883056E+02  0.22482464062E+03  0.33623593142E+03  0.00000000000E+00 0.  1.
<mgrwt>
<rscale>  0 0.17339150E+04</rscale>
<asrwt>0</asrwt>
<pdfrwt beam="1">  1        2 0.37806007E+00 0.17339150E+04</pdfrwt>
<pdfrwt beam="2">  1       -1 0.47055249E-01 0.17339150E+04</pdfrwt>
<totfact> 0.17954105E+01</totfact>
</mgrwt>
</event>
<event>
12    6  0.1542110E-007  0.1743985E+04  0.7818608E-02  0.8736668E-01
          2   -1    0    0  501    0  0.00000000000E+00  0.00000000000E+00  0.59796657105E+03  0.59796657105E+03  0.00000000000E+00 0. -1.
         -1   -1    0    0    0  501 -0.00000000000E+00 -0.00000000000E+00 -0.12715950288E+04  0.12715950288E+04  0.00000000000E+00 0.  1.
         24    2    1    2    0    0  0.15495131271E+03 -0.59297995114E+02  0.40942452467E+03  0.44884243006E+03  0.79403552092E+02 0.  0.
        254    2    1    2    0    0 -0.15495131271E+03  0.59297995114E+02 -0.10830529824E+04  0.14207191698E+04  0.90438544614E+03 0.  0.
         23    2    4    4    0    0  0.32878539530E+03  0.14688076869E+03 -0.24769349084E+03  0.44707115540E+03  0.94057196501E+02 0.  0.
         23    2    4    4    0    0 -0.48373670802E+03 -0.87582773576E+02 -0.83535949160E+03  0.97364801442E+03  0.92157641355E+02 0.  0.
          2    1    3    3  502    0  0.35934219146E+02 -0.53881515072E+02  0.14788636595E+03  0.16144616132E+03  0.00000000000E+00 0. -1.
         -1    1    3    3    0  502  0.11901709357E+03 -0.54164800423E+01  0.26153815872E+03  0.28739626874E+03  0.00000000000E+00 0.  1.
         11    1    5    5    0    0  0.26181424808E+02 -0.10904470772E+02 -0.34586612538E+02  0.44728159527E+02  0.00000000000E+00 0.  1.
        -11    1    5    5    0    0  0.30260397050E+03  0.15778523946E+03 -0.21310687830E+03  0.40234299588E+03  0.00000000000E+00 0. -1.
          3    1    6    6  503    0 -0.38973313643E+03 -0.10431907025E+03 -0.64734315400E+03  0.76277620904E+03  0.00000000000E+00 0. -1.
         -3    1    6    6    0  503 -0.94003571585E+02  0.16736296671E+02 -0.18801633761E+03  0.21087180538E+03  0.00000000000E+00 0.  1.
<mgrwt>
<rscale>  0 0.17439855E+04</rscale>
<asrwt>0</asrwt>
<pdfrwt beam="1">  1        2 0.91994857E-01 0.17439855E+04</pdfrwt>
<pdfrwt beam="2">  1       -1 0.19563000E+00 0.17439855E+04</pdfrwt>
<totfact> 0.87044902E+00</totfact>
</mgrwt>
</event>
<event>
12    6  0.1542110E-007  0.1336921E+04  0.7818608E-02  0.9000788E-01
          2   -1    0    0  501    0  0.00000000000E+00  0.00000000000E+00  0.18668046540E+04  0.18668046540E+04  0.00000000000E+00 0. -1.
         -1   -1    0    0    0  501 -0.00000000000E+00 -0.00000000000E+00 -0.23936049419E+03  0.23936049419E+03  0.00000000000E+00 0.  1.
         24    2    1    2    0    0  0.25448454963E+02 -0.18534158097E+03 -0.37341637951E+02  0.20631291413E+03  0.78558864024E+02 0.  0.
        254    2    1    2    0    0 -0.25448454963E+02  0.18534158097E+03  0.16647857978E+04  0.18998522341E+04  0.89606229321E+03 0.  0.
         23    2    4    4    0    0  0.25902484446E+03 -0.22284750556E+03  0.38122199441E+03  0.52012246694E+03  0.91881939528E+02 0.  0.
         23    2    4    4    0    0 -0.28447329943E+03  0.40818908653E+03  0.12835638034E+04  0.13797297672E+04  0.92600240447E+02 0.  0.
          4    1    3    3  502    0 -0.61892361258E+00 -0.33821121822E+02  0.23261958500E+02  0.41053258836E+02  0.00000000000E+00 0. -1.
         -3    1    3    3    0  502  0.26067378575E+02 -0.15152045915E+03 -0.60603596451E+02  0.16525965530E+03  0.00000000000E+00 0.  1.
         11    1    5    5    0    0  0.22427217513E+03 -0.15277308395E+03  0.32708287601E+03  0.42499509585E+03  0.00000000000E+00 0. -1.
        -11    1    5    5    0    0  0.34752669335E+02 -0.70074421609E+02  0.54139118399E+02  0.95127371091E+02  0.00000000000E+00 0.  1.
          1    1    6    6  503    0 -0.14385029898E+03  0.15708982509E+03  0.64626385397E+03  0.68046093981E+03  0.00000000000E+00 0. -1.
         -1    1    6    6    0  503 -0.14062300045E+03  0.25109926144E+03  0.63729994942E+03  0.69926882734E+03  0.00000000000E+00 0.  1.
<mgrwt>
<rscale>  0 0.13369208E+04</rscale>
<asrwt>0</asrwt>
<pdfrwt beam="1">  1        2 0.28720071E+00 0.13369208E+04</pdfrwt>
<pdfrwt beam="2">  1       -1 0.36824693E-01 0.13369208E+04</pdfrwt>
<totfact> 0.62497012E+01</totfact>
</mgrwt>
</event>
<event>
12    6  0.1542110E-007  0.1695579E+04  0.7818608E-02  0.8763890E-01
         -1   -1    0    0    0  501 -0.00000000000E+00  0.00000000000E+00  0.66836253769E+03  0.66836253769E+03  0.00000000000E+00 0.  1.
          2   -1    0    0  501    0  0.00000000000E+00 -0.00000000000E+00 -0.10753849549E+04  0.10753849549E+04  0.00000000000E+00 0. -1.
         24    2    1    2    0    0  0.44992313376E+03 -0.36743135663E+03  0.36531047240E+02  0.58723663593E+03  0.77946911699E+02 0.  0.
        254    2    1    2    0    0 -0.44992313376E+03  0.36743135663E+03 -0.44355346448E+03  0.11565108567E+04  0.89629295304E+03 0.  0.
         23    2    4    4    0    0  0.25732726993E+03  0.15701003032E+03 -0.62673088537E+02  0.32157125846E+03  0.92793775492E+02 0.  0.
         23    2    4    4    0    0 -0.70725040369E+03  0.21042132630E+03 -0.38088037594E+03  0.83493959824E+03  0.87028752933E+02 0.  0.
          2    1    3    3  502    0  0.87010121459E+02 -0.11408787886E+03  0.66119430366E+01  0.14363329395E+03  0.00000000000E+00 0. -1.
         -1    1    3    3    0  502  0.36291301230E+03 -0.25334347776E+03  0.29919104203E+02  0.44360334199E+03  0.00000000000E+00 0.  1.
         11    1    5    5    0    0  0.66059343457E+02 -0.16434776679E+01 -0.22715309166E+02  0.69875053827E+02  0.00000000000E+00 0.  1.
        -11    1    5    5    0    0  0.19126792647E+03  0.15865350799E+03 -0.39957779371E+02  0.25169620463E+03  0.00000000000E+00 0. -1.
          1    1    6    6  503    0 -0.11734311101E+03  0.44496064339E+02 -0.10175499896E+03  0.16156542098E+03  0.00000000000E+00 0. -1.
         -1    1    6    6    0  503 -0.58990729269E+03  0.16592526196E+03 -0.27912537698E+03  0.67337417726E+03  0.00000000000E+00 0.  1.
<mgrwt>
<rscale>  0 0.16955790E+04</rscale>
<asrwt>0</asrwt>
<pdfrwt beam="1">  1        2 0.16544384E+00 0.16955790E+04</pdfrwt>
<pdfrwt beam="2">  1       -1 0.10282501E+00 0.16955790E+04</pdfrwt>
<totfact> 0.21903913E+01</totfact>
</mgrwt>
</event>
<event>
12    6  0.1542110E-007  0.2743985E+04  0.7818608E-02  0.8320873E-01
          2   -1    0    0  501    0  0.00000000000E+00  0.00000000000E+00  0.87888634712E+03  0.87888634712E+03  0.00000000000E+00 0. -1.
         -3   -1    0    0    0  501 -0.00000000000E+00 -0.00000000000E+00 -0.21417592818E+04  0.21417592818E+04  0.00000000000E+00 0.  1.
         24    2    1    2    0    0  0.49470620040E+03  0.84469923705E+03  0.24354817056E+03  0.10116855246E+04  0.77076997094E+02 0.  0.
        254    2    1    2    0    0 -0.49470620040E+03 -0.84469923705E+03 -0.15064211052E+04  0.20089601043E+04  0.89909127939E+03 0.  0.
         23    2    4    4    0    0 -0.12171992121E+02 -0.53513156885E+03 -0.12719974155E+04  0.13829815371E+04  0.90258261404E+02 0.  0.
         23    2    4    4    0    0 -0.48253420828E+03 -0.30956766819E+03 -0.23442368975E+03  0.62597856716E+03  0.90682395673E+02 0.  0.
          2    1    3    3  502    0  0.48588506078E+03  0.83473329201E+03  0.23034094736E+03  0.99293550299E+03  0.00000000000E+00 0. -1.
         -1    1    3    3    0  502  0.88211396175E+01  0.99659450407E+01  0.13207223208E+02  0.18750021589E+02  0.00000000000E+00 0.  1.
         11    1    5    5    0    0 -0.44076145932E+02 -0.15429447457E+03 -0.39297630171E+03  0.42447598899E+03  0.00000000000E+00 0. -1.
        -11    1    5    5    0    0  0.31904153811E+02 -0.38083709429E+03 -0.87902111376E+03  0.95850554815E+03  0.00000000000E+00 0.  1.
          3    1    6    6  503    0 -0.10979912400E+03 -0.11448727296E+03 -0.47219282012E+02  0.16550783636E+03  0.00000000000E+00 0. -1.
         -3    1    6    6    0  503 -0.37273508428E+03 -0.19508039523E+03 -0.18720440773E+03  0.46047073080E+03  0.00000000000E+00 0.  1.
<mgrwt>
<rscale>  0 0.27439847E+04</rscale>
<asrwt>0</asrwt>
<pdfrwt beam="1">  1        2 0.13521329E+00 0.27439847E+04</pdfrwt>
<pdfrwt beam="2">  1       -3 0.32950142E+00 0.27439847E+04</pdfrwt>
<totfact> 0.43048181E-01</totfact>
</mgrwt>
</event>
<event>
12    6  0.1542110E-007  0.1620743E+04  0.7818608E-02  0.8807905E-01
          2   -1    0    0  501    0  0.00000000000E+00  0.00000000000E+00  0.15275028232E+04  0.15275028232E+04  0.00000000000E+00 0. -1.
         -1   -1    0    0    0  501 -0.00000000000E+00 -0.00000000000E+00 -0.42991849121E+03  0.42991849121E+03  0.00000000000E+00 0.  1.
         24    2    1    2    0    0 -0.33559767908E+03 -0.36262322772E+03  0.65771994282E+02  0.50480718784E+03  0.79893267404E+02 0.  0.
        254    2    1    2    0    0  0.33559767908E+03  0.36262322772E+03  0.10318123377E+04  0.14526141266E+04  0.89517020336E+03 0.  0.
         23    2    4    4    0    0  0.38012921189E+03 -0.40429197609E+02  0.95126631164E+03  0.10293299091E+04  0.92085440763E+02 0.  0.
         23    2    4    4    0    0 -0.44531532811E+02  0.40305242533E+03  0.80546026060E+02  0.42328421745E+03  0.90816030797E+02 0.  0.
          4    1    3    3  502    0 -0.81452824389E+02 -0.83512939358E+02 -0.18280748092E+02  0.11808115596E+03  0.00000000000E+00 0. -1.
         -3    1    3    3    0  502 -0.25414485469E+03 -0.27911028836E+03  0.84052742374E+02  0.38672603188E+03  0.00000000000E+00 0.  1.
         11    1    5    5    0    0  0.17887291413E+03 -0.46912620592E+02  0.36001979960E+03  0.40473518439E+03  0.00000000000E+00 0. -1.
        -11    1    5    5    0    0  0.20125629776E+03  0.64834229831E+01  0.59124651204E+03  0.62459472473E+03  0.00000000000E+00 0.  1.
          3    1    6    6  503    0 -0.69418834212E+02  0.21882802496E+03  0.40447392678E+02  0.23311085480E+03  0.00000000000E+00 0. -1.
         -3    1    6    6    0  503  0.24887301400E+02  0.18422440036E+03  0.40098633382E+02  0.19017336264E+03  0.00000000000E+00 0.  1.
<mgrwt>
<rscale>  0 0.16207427E+04</rscale>
<asrwt>0</asrwt>
<pdfrwt beam="1">  1        2 0.23500043E+00 0.16207427E+04</pdfrwt>
<pdfrwt beam="2">  1       -1 0.66141307E-01 0.16207427E+04</pdfrwt>
<totfact> 0.30953265E+01</totfact>
</mgrwt>
</event>
<event>
12    6  0.1542110E-007  0.2670762E+04  0.7818608E-02  0.8344554E-01
          2   -1    0    0  501    0  0.00000000000E+00  0.00000000000E+00  0.10133774154E+04  0.10133774154E+04  0.00000000000E+00 0. -1.
         -1   -1    0    0    0  501 -0.00000000000E+00 -0.00000000000E+00 -0.17597027309E+04  0.17597027309E+04  0.00000000000E+00 0.  1.
         24    2    1    2    0    0  0.99637367610E+03 -0.21676679026E+03  0.28715481963E+03  0.10623812670E+04  0.80297710653E+02 0.  0.
        254    2    1    2    0    0 -0.99637367610E+03  0.21676679026E+03 -0.10334801351E+04  0.17106988793E+04  0.90479894021E+03 0.  0.
         23    2    4    4    0    0 -0.11487013322E+04  0.25518709874E+03 -0.86679087299E+03  0.14643675989E+04  0.91710638359E+02 0.  0.
         23    2    4    4    0    0  0.15232765613E+03 -0.38420308484E+02 -0.16668926210E+03  0.24633128040E+03  0.90630870442E+02 0.  0.
          4    1    3    3  502    0  0.70783604052E+03 -0.12660251534E+03  0.22800515742E+03  0.75435164808E+03  0.00000000000E+00 0. -1.
         -3    1    3    3    0  502  0.28853763558E+03 -0.90164274917E+02  0.59149662211E+02  0.30802961897E+03  0.00000000000E+00 0.  1.
         11    1    5    5    0    0 -0.11330876423E+03  0.39260223614E+02 -0.59849977521E+02  0.13402335997E+03  0.00000000000E+00 0. -1.
        -11    1    5    5    0    0 -0.10353925680E+04  0.21592687513E+03 -0.80694089547E+03  0.13303442389E+04  0.00000000000E+00 0.  1.
          3    1    6    6  503    0  0.15647210978E+02  0.12114303492E+01 -0.75948381188E+02  0.77552945656E+02  0.00000000000E+00 0. -1.
         -3    1    6    6    0  503  0.13668044515E+03 -0.39631738833E+02 -0.90740880915E+02  0.16877833474E+03  0.00000000000E+00 0.  1.
<mgrwt>
<rscale>  0 0.26707624E+04</rscale>
<asrwt>0</asrwt>
<pdfrwt beam="1">  1        2 0.15590422E+00 0.26707624E+04</pdfrwt>
<pdfrwt beam="2">  1       -1 0.27072349E+00 0.26707624E+04</pdfrwt>
<totfact> 0.12652792E+00</totfact>
</mgrwt>
</event>
<event>
12    6  0.1542110E-007  0.1590293E+04  0.7818608E-02  0.8826534E-01
         -1   -1    0    0    0  501 -0.00000000000E+00  0.00000000000E+00  0.11517247507E+04  0.11517247507E+04  0.00000000000E+00 0.  1.
          2   -1    0    0  501    0  0.00000000000E+00 -0.00000000000E+00 -0.54896614024E+03  0.54896614024E+03  0.00000000000E+00 0. -1.
         24    2    1    2    0    0  0.91435877926E+02  0.47397890684E+03  0.47690951941E+02  0.49169153038E+03  0.80433887479E+02 0.  0.
        254    2    1    2    0    0 -0.91435877926E+02 -0.47397890684E+03  0.55506765855E+03  0.12089993606E+04  0.95945965232E+03 0.  0.
         23    2    4    4    0    0  0.88832396912E+02 -0.73232458170E+03  0.42491468656E+03  0.85601469053E+03  0.89544245224E+02 0.  0.
         23    2    4    4    0    0 -0.18026827484E+03  0.25834567486E+03  0.13015297199E+03  0.35298467005E+03  0.91756430517E+02 0.  0.
          2    1    3    3  502    0  0.10381119259E+03  0.43961832285E+03  0.35139693796E+02  0.45307375953E+03  0.00000000000E+00 0. -1.
         -1    1    3    3    0  502 -0.12375314661E+02  0.34360583989E+02  0.12551258145E+02  0.38617770858E+02  0.00000000000E+00 0.  1.
         11    1    5    5    0    0  0.37598709832E+02 -0.48054731522E+03  0.31951993934E+03  0.57830128547E+03  0.00000000000E+00 0.  1.
        -11    1    5    5    0    0  0.51233687080E+02 -0.25177726648E+03  0.10539474722E+03  0.27771340506E+03  0.00000000000E+00 0. -1.
          4    1    6    6  503    0 -0.92734326923E+02  0.18425027725E+03  0.11805358568E+03  0.23766461484E+03  0.00000000000E+00 0. -1.
         -4    1    6    6    0  503 -0.87533947915E+02  0.74095397617E+02  0.12099386314E+02  0.11532005521E+03  0.00000000000E+00 0.  1.
<mgrwt>
<rscale>  0 0.15902929E+04</rscale>
<asrwt>0</asrwt>
<pdfrwt beam="1">  1        2 0.84456329E-01 0.15902929E+04</pdfrwt>
<pdfrwt beam="2">  1       -1 0.17718842E+00 0.15902929E+04</pdfrwt>
<totfact> 0.13193610E+01</totfact>
</mgrwt>
</event>
<event>
12    6  0.1542110E-007  0.1216671E+04  0.7818608E-02  0.9098388E-01
         -1   -1    0    0    0  501 -0.00000000000E+00  0.00000000000E+00  0.38658758047E+03  0.38658758047E+03  0.00000000000E+00 0.  1.
          2   -1    0    0  501    0  0.00000000000E+00 -0.00000000000E+00 -0.95727900146E+03  0.95727900146E+03  0.00000000000E+00 0. -1.
         24    2    1    2    0    0  0.39387822927E+02  0.25313677932E+03 -0.42000915788E+02  0.27140286831E+03  0.79156871839E+02 0.  0.
        254    2    1    2    0    0 -0.39387822927E+02 -0.25313677932E+03 -0.52869050520E+03  0.10724637136E+04  0.89723750319E+03 0.  0.
         23    2    4    4    0    0  0.38781745300E+03  0.41189421941E+02 -0.29154216579E+03  0.49528765753E+03  0.90631583575E+02 0.  0.
         23    2    4    4    0    0 -0.42720527592E+03 -0.29432620126E+03 -0.23714833941E+03  0.57717605610E+03  0.88094292248E+02 0.  0.
          2    1    3    3  502    0 -0.97024027213E+01  0.17822500556E+03 -0.31106217129E+02  0.18117915435E+03  0.00000000000E+00 0. -1.
         -1    1    3    3    0  502  0.49090225648E+02  0.74911773753E+02 -0.10894698659E+02  0.90223713956E+02  0.00000000000E+00 0.  1.
         11    1    5    5    0    0  0.37747875084E+03  0.34604232143E+02 -0.29730318961E+03  0.48174354876E+03  0.00000000000E+00 0. -1.
        -11    1    5    5    0    0  0.10338702155E+02  0.65851897985E+01  0.57610238218E+01  0.13544108771E+02  0.00000000000E+00 0.  1.
          1    1    6    6  503    0 -0.33915096656E+03 -0.19197607485E+03 -0.15690988940E+03  0.42011772733E+03  0.00000000000E+00 0. -1.
         -1    1    6    6    0  503 -0.88054309368E+02 -0.10235012641E+03 -0.80238450012E+02  0.15705832877E+03  0.00000000000E+00 0.  1.
<mgrwt>
<rscale>  0 0.12166712E+04</rscale>
<asrwt>0</asrwt>
<pdfrwt beam="1">  1        2 0.14727369E+00 0.12166712E+04</pdfrwt>
<pdfrwt beam="2">  1       -1 0.59475013E-01 0.12166712E+04</pdfrwt>
<totfact> 0.86543261E+01</totfact>
</mgrwt>
</event>
<event>
12    6  0.1542110E-007  0.2037920E+04  0.7818608E-02  0.8589094E-01
         -1   -1    0    0    0  501 -0.00000000000E+00  0.00000000000E+00  0.75065353375E+03  0.75065353375E+03  0.00000000000E+00 0.  1.
          2   -1    0    0  501    0  0.00000000000E+00 -0.00000000000E+00 -0.13831672160E+04  0.13831672160E+04  0.00000000000E+00 0. -1.
         24    2    1    2    0    0  0.19514750665E+03  0.50630900776E+03 -0.89591122332E+03  0.10503847548E+04  0.78866041031E+02 0.  0.
        254    2    1    2    0    0 -0.19514750665E+03 -0.50630900776E+03  0.26339754107E+03  0.10834359949E+04  0.90001329421E+03 0.  0.
         23    2    4    4    0    0  0.28770385954E+03 -0.10286678826E+02 -0.69259411901E+02  0.31057904352E+03  0.93718459123E+02 0.  0.
         23    2    4    4    0    0 -0.48285136619E+03 -0.49602232893E+03  0.33265695297E+03  0.77285695141E+03  0.86392281752E+02 0.  0.
          2    1    3    3  502    0  0.14739709657E+03  0.40480394618E+03 -0.76521967488E+03  0.87815334068E+03  0.00000000000E+00 0. -1.
         -1    1    3    3    0  502  0.47750410079E+02  0.10150506158E+03 -0.13069154844E+03  0.17223141416E+03  0.00000000000E+00 0.  1.
         11    1    5    5    0    0  0.17851993158E+03  0.24548129236E+02 -0.76452698729E+02  0.19574726502E+03  0.00000000000E+00 0.  1.
        -11    1    5    5    0    0  0.10918392796E+03 -0.34834808062E+02  0.71932868280E+01  0.11483177849E+03  0.00000000000E+00 0. -1.
          2    1    6    6  503    0 -0.90238118951E+01 -0.22019924540E+02 -0.17183942878E+01  0.23859152055E+02  0.00000000000E+00 0. -1.
         -2    1    6    6    0  503 -0.47382755429E+03 -0.47400240439E+03  0.33437534726E+03  0.74899779935E+03  0.00000000000E+00 0.  1.
<mgrwt>
<rscale>  0 0.20379199E+04</rscale>
<asrwt>0</asrwt>
<pdfrwt beam="1">  1        2 0.21279495E+00 0.20379199E+04</pdfrwt>
<pdfrwt beam="2">  1       -1 0.11548516E+00 0.20379199E+04</pdfrwt>
<totfact> 0.10612861E+01</totfact>
</mgrwt>
</event>
<event>
12    6  0.1542110E-007  0.1737638E+04  0.7818608E-02  0.8740184E-01
         -1   -1    0    0    0  501 -0.00000000000E+00  0.00000000000E+00  0.73176282851E+03  0.73176282851E+03  0.00000000000E+00 0.  1.
          2   -1    0    0  501    0  0.00000000000E+00 -0.00000000000E+00 -0.10315453796E+04  0.10315453796E+04  0.00000000000E+00 0. -1.
         24    2    1    2    0    0  0.42765519375E+03 -0.11424675690E+03 -0.57581603190E+03  0.73080833212E+03  0.81089022037E+02 0.  0.
        254    2    1    2    0    0 -0.42765519375E+03  0.11424675690E+03  0.27603348083E+03  0.10324998760E+04  0.89102201158E+03 0.  0.
         23    2    4    4    0    0 -0.39872250018E+02 -0.14975895800E+03 -0.25898622855E+03  0.31512279631E+03  0.90614393724E+02 0.  0.
         23    2    4    4    0    0 -0.38778294373E+03  0.26400571490E+03  0.53501970939E+03  0.71737707966E+03  0.91154572197E+02 0.  0.
          4    1    3    3  502    0  0.14881958278E+03 -0.35675212978E+00 -0.19096814287E+03  0.24210788315E+03  0.00000000000E+00 0. -1.
         -3    1    3    3    0  502  0.27883561096E+03 -0.11389000477E+03 -0.38484788903E+03  0.48870044897E+03  0.00000000000E+00 0.  1.
         11    1    5    5    0    0 -0.25838003305E+02 -0.15254424159E+02 -0.10952725537E+03  0.11356284401E+03  0.00000000000E+00 0. -1.
        -11    1    5    5    0    0 -0.14034246712E+02 -0.13450453384E+03 -0.14945897319E+03  0.20155995230E+03  0.00000000000E+00 0.  1.
          4    1    6    6  503    0 -0.64578542352E+01 -0.73270166765E+01  0.13365411746E+02  0.16553648717E+02  0.00000000000E+00 0. -1.
         -4    1    6    6    0  503 -0.38132508950E+03  0.27133273158E+03  0.52165429764E+03  0.70082343094E+03  0.00000000000E+00 0.  1.
<mgrwt>
<rscale>  0 0.17376381E+04</rscale>
<asrwt>0</asrwt>
<pdfrwt beam="1">  1        2 0.15869929E+00 0.17376381E+04</pdfrwt>
<pdfrwt beam="2">  1       -1 0.11257890E+00 0.17376381E+04</pdfrwt>
<totfact> 0.18800565E+01</totfact>
</mgrwt>
</event>
<event>
12    6  0.1542110E-007  0.2742465E+04  0.7818608E-02  0.8321357E-01
         -1   -1    0    0    0  501 -0.00000000000E+00  0.00000000000E+00  0.46449227671E+03  0.46449227671E+03  0.00000000000E+00 0.  1.
          2   -1    0    0  501    0  0.00000000000E+00 -0.00000000000E+00 -0.40480296976E+04  0.40480296976E+04  0.00000000000E+00 0. -1.
         24    2    1    2    0    0 -0.75597839228E+03 -0.71932935814E+03 -0.26770006454E+04  0.28744877240E+04  0.86076505426E+02 0.  0.
        254    2    1    2    0    0  0.75597839228E+03  0.71932935814E+03 -0.90653677545E+03  0.16380342503E+04  0.87886814984E+03 0.  0.
         23    2    4    4    0    0 -0.21957446268E+02  0.51576386515E+03 -0.53022734496E+03  0.74548811710E+03  0.90094402428E+02 0.  0.
         23    2    4    4    0    0  0.77793583855E+03  0.20356549299E+03 -0.37630943049E+03  0.89254613319E+03  0.91688241131E+02 0.  0.
          4    1    3    3  502    0 -0.50524687688E+03 -0.52171427899E+03 -0.19301857343E+04  0.20622989998E+04  0.00000000000E+00 0. -1.
         -3    1    3    3    0  502 -0.25073151540E+03 -0.19761507915E+03 -0.74681491113E+03  0.81218872425E+03  0.00000000000E+00 0.  1.
         11    1    5    5    0    0 -0.45780466883E+02  0.15470661840E+03 -0.14419569967E+03  0.21638481630E+03  0.00000000000E+00 0.  1.
        -11    1    5    5    0    0  0.23823020615E+02  0.36105724675E+03 -0.38603164530E+03  0.52910330080E+03  0.00000000000E+00 0. -1.
          3    1    6    6  503    0  0.24984077658E+03  0.22205443900E+02 -0.10886814956E+03  0.27343329967E+03  0.00000000000E+00 0. -1.
         -3    1    6    6    0  503  0.52809506198E+03  0.18136004909E+03 -0.26744128093E+03  0.61911283352E+03  0.00000000000E+00 0.  1.
<mgrwt>
<rscale>  0 0.27424650E+04</rscale>
<asrwt>0</asrwt>
<pdfrwt beam="1">  1        2 0.62277380E+00 0.27424650E+04</pdfrwt>
<pdfrwt beam="2">  1       -1 0.71460350E-01 0.27424650E+04</pdfrwt>
<totfact> 0.61494466E-01</totfact>
</mgrwt>
</event>
<event>
12    6  0.1542110E-007  0.1311909E+04  0.7818608E-02  0.9020174E-01
          2   -1    0    0  501    0  0.00000000000E+00  0.00000000000E+00  0.13941595339E+04  0.13941595339E+04  0.00000000000E+00 0. -1.
         -1   -1    0    0    0  501 -0.00000000000E+00 -0.00000000000E+00 -0.30862795964E+03  0.30862795964E+03  0.00000000000E+00 0.  1.
         24    2    1    2    0    0  0.17176621836E+03 -0.28756521236E+03  0.21694371429E+03  0.40696193503E+03  0.79724878606E+02 0.  0.
        254    2    1    2    0    0 -0.17176621836E+03  0.28756521236E+03  0.86858785995E+03  0.12958255585E+04  0.90139981275E+03 0.  0.
         23    2    4    4    0    0 -0.38569377728E+02  0.59612556615E+03  0.63364840488E+03  0.87565320696E+03  0.91678516213E+02 0.  0.
         23    2    4    4    0    0 -0.13319684064E+03 -0.30856035380E+03  0.23493945507E+03  0.42017235151E+03  0.91637149336E+02 0.  0.
          4    1    3    3  502    0  0.17444426677E+03 -0.29006952186E+03  0.20797229300E+03  0.39727019064E+03  0.00000000000E+00 0. -1.
         -3    1    3    3    0  502 -0.26780484034E+01  0.25043095024E+01  0.89714212929E+01  0.96917443914E+01  0.00000000000E+00 0.  1.
         11    1    5    5    0    0  0.76708247808E+01  0.36904283984E+03  0.43424879074E+03  0.56993286574E+03  0.00000000000E+00 0. -1.
        -11    1    5    5    0    0 -0.46240202509E+02  0.22708272632E+03  0.19939961414E+03  0.30572034122E+03  0.00000000000E+00 0.  1.
          3    1    6    6  503    0 -0.74467258498E+02 -0.16546991003E+03  0.71184813841E+02  0.19491778122E+03  0.00000000000E+00 0. -1.
         -3    1    6    6    0  503 -0.58729582137E+02 -0.14309044376E+03  0.16375464122E+03  0.22525457029E+03  0.00000000000E+00 0.  1.
<mgrwt>
<rscale>  0 0.13119095E+04</rscale>
<asrwt>0</asrwt>
<pdfrwt beam="1">  1        2 0.21448608E+00 0.13119095E+04</pdfrwt>
<pdfrwt beam="2">  1       -1 0.47481225E-01 0.13119095E+04</pdfrwt>
<totfact> 0.72045076E+01</totfact>
</mgrwt>
</event>
<event>
12    6  0.1542110E-007  0.1708165E+04  0.7818608E-02  0.8756721E-01
          2   -1    0    0  501    0  0.00000000000E+00  0.00000000000E+00  0.43986515970E+04  0.43986515970E+04  0.00000000000E+00 0. -1.
         -3   -1    0    0    0  501 -0.00000000000E+00 -0.00000000000E+00 -0.16583645047E+03  0.16583645047E+03  0.00000000000E+00 0.  1.
         24    2    1    2    0    0  0.46410605449E+03  0.33997168449E+03  0.19064871313E+04  0.19932648016E+04  0.86233470176E+02 0.  0.
        254    2    1    2    0    0 -0.46410605449E+03 -0.33997168449E+03  0.23263280152E+04  0.25712232459E+04  0.93188613556E+03 0.  0.
         23    2    4    4    0    0  0.22730174732E+02 -0.25934099754E+03  0.10657257643E+03  0.29555552866E+03  0.90669413950E+02 0.  0.
         23    2    4    4    0    0 -0.48683622922E+03 -0.80630686950E+02  0.22197554388E+04  0.22756677172E+04  0.88535469549E+02 0.  0.
          4    1    3    3  502    0  0.40605847192E+03  0.32152045542E+03  0.16370996336E+04  0.17170771957E+04  0.00000000000E+00 0. -1.
         -3    1    3    3    0  502  0.58047582569E+02  0.18451229068E+02  0.26938749770E+03  0.27618760582E+03  0.00000000000E+00 0.  1.
         11    1    5    5    0    0  0.41757541675E+02 -0.48608973257E+02  0.24422105387E+02  0.68578158326E+02  0.00000000000E+00 0.  1.
        -11    1    5    5    0    0 -0.19027366943E+02 -0.21073202428E+03  0.82150471043E+02  0.22697737033E+03  0.00000000000E+00 0. -1.
          4    1    6    6  503    0 -0.26375829835E+03 -0.30526827700E+02  0.13818906444E+04  0.14071681066E+04  0.00000000000E+00 0. -1.
         -4    1    6    6    0  503 -0.22307793087E+03 -0.50103859250E+02  0.83786479440E+03  0.86849961062E+03  0.00000000000E+00 0.  1.
<mgrwt>
<rscale>  0 0.17081648E+04</rscale>
<asrwt>0</asrwt>
<pdfrwt beam="1">  1        2 0.67671554E+00 0.17081648E+04</pdfrwt>
<pdfrwt beam="2">  1       -3 0.25513303E-01 0.17081648E+04</pdfrwt>
<totfact> 0.14417308E+00</totfact>
</mgrwt>
</event>
<event>
12    6  0.1542110E-007  0.2464312E+04  0.7818608E-02  0.8415811E-01
          2   -1    0    0  501    0  0.00000000000E+00  0.00000000000E+00  0.13232784068E+04  0.13232784068E+04  0.00000000000E+00 0. -1.
         -1   -1    0    0    0  501 -0.00000000000E+00 -0.00000000000E+00 -0.11473086923E+04  0.11473086923E+04  0.00000000000E+00 0.  1.
         24    2    1    2    0    0  0.11531053159E+03 -0.56600600418E+02  0.11385027230E+04  0.11483142231E+04  0.77051658261E+02 0.  0.
        254    2    1    2    0    0 -0.11531053159E+03  0.56600600418E+02 -0.96253300842E+03  0.13222728760E+04  0.89746065079E+03 0.  0.
         23    2    4    4    0    0 -0.39650654815E+03 -0.35082360911E+01 -0.93227986924E+03  0.10172048326E+04  0.91269745411E+02 0.  0.
         23    2    4    4    0    0  0.28119601656E+03  0.60108836509E+02 -0.30253139174E+02  0.30506804343E+03  0.97298441595E+02 0.  0.
          2    1    3    3  502    0  0.67780411883E+02 -0.59251702975E+02  0.50007021850E+03  0.50810940945E+03  0.00000000000E+00 0. -1.
         -1    1    3    3    0  502  0.47530119708E+02  0.26511025568E+01  0.63843250449E+03  0.64020481364E+03  0.00000000000E+00 0.  1.
         11    1    5    5    0    0 -0.18873038923E+03 -0.43535904355E+02 -0.49081986418E+03  0.52765393380E+03  0.00000000000E+00 0. -1.
        -11    1    5    5    0    0 -0.20777615892E+03  0.40027668264E+02 -0.44146000506E+03  0.48955089880E+03  0.00000000000E+00 0.  1.
          2    1    6    6  503    0  0.12872221655E+03  0.58292019355E+02  0.23780336285E+02  0.14329296196E+03  0.00000000000E+00 0.  1.
         -2    1    6    6    0  503  0.15247380000E+03  0.18168171541E+01 -0.54033475459E+02  0.16177508146E+03  0.00000000000E+00 0. -1.
<mgrwt>
<rscale>  0 0.24643123E+04</rscale>
<asrwt>0</asrwt>
<pdfrwt beam="1">  1        2 0.20358129E+00 0.24643123E+04</pdfrwt>
<pdfrwt beam="2">  1       -1 0.17650903E+00 0.24643123E+04</pdfrwt>
<totfact> 0.36020104E+00</totfact>
</mgrwt>
</event>
<event>
12    6  0.1542110E-007  0.1279814E+04  0.7818608E-02  0.9045728E-01
         -1   -1    0    0    0  501 -0.00000000000E+00  0.00000000000E+00  0.17128428727E+03  0.17128428727E+03  0.00000000000E+00 0.  1.
          2   -1    0    0  501    0  0.00000000000E+00 -0.00000000000E+00 -0.23906503240E+04  0.23906503240E+04  0.00000000000E+00 0. -1.
         24    2    1    2    0    0 -0.17230978041E+03 -0.19634993122E+03 -0.93380466339E+03  0.97133111559E+03  0.57000270372E+02 0.  0.
        254    2    1    2    0    0  0.17230978041E+03  0.19634993122E+03 -0.12855613733E+04  0.15906034956E+04  0.89950401883E+03 0.  0.
         23    2    4    4    0    0  0.41900169865E+03 -0.96525288645E+02 -0.30404085516E+03  0.53312514411E+03  0.83078413915E+02 0.  0.
         23    2    4    4    0    0 -0.24669191823E+03  0.29287521987E+03 -0.98152051815E+03  0.10574783515E+04  0.90802750410E+02 0.  0.
          4    1    3    3  502    0 -0.37942133191E+02 -0.36330839399E+02 -0.28206732491E+03  0.28691725487E+03  0.00000000000E+00 0. -1.
         -3    1    3    3    0  502 -0.13436764722E+03 -0.16001909182E+03 -0.65173733848E+03  0.68441386072E+03  0.00000000000E+00 0.  1.
         11    1    5    5    0    0  0.34395401340E+03 -0.10621973732E+03 -0.27084368876E+03  0.45049228592E+03  0.00000000000E+00 0. -1.
        -11    1    5    5    0    0  0.75047685248E+02  0.96944486727E+01 -0.33197166398E+02  0.82632858192E+02  0.00000000000E+00 0.  1.
          4    1    6    6  503    0 -0.20974181177E+03  0.27794466145E+03 -0.92460289824E+03  0.98799563858E+03  0.00000000000E+00 0. -1.
         -4    1    6    6    0  503 -0.36950106466E+02  0.14930558417E+02 -0.56917619911E+02  0.69482712949E+02  0.00000000000E+00 0.  1.
<mgrwt>
<rscale>  0 0.12798138E+04</rscale>
<asrwt>0</asrwt>
<pdfrwt beam="1">  1        2 0.36779232E+00 0.12798138E+04</pdfrwt>
<pdfrwt beam="2">  1       -1 0.26351432E-01 0.12798138E+04</pdfrwt>
<totfact> 0.57785485E+01</totfact>
</mgrwt>
</event>
<event>
12    6  0.1542110E-007  0.2777650E+04  0.7818608E-02  0.8310241E-01
          2   -1    0    0  501    0  0.00000000000E+00  0.00000000000E+00  0.10382446193E+04  0.10382446193E+04  0.00000000000E+00 0. -1.
         -1   -1    0    0    0  501 -0.00000000000E+00 -0.00000000000E+00 -0.18577846991E+04  0.18577846991E+04  0.00000000000E+00 0.  1.
         24    2    1    2    0    0  0.10404491631E+04 -0.43730860559E+03 -0.85554988228E+03  0.14185003011E+04  0.80026405004E+02 0.  0.
        254    2    1    2    0    0 -0.10404491631E+04  0.43730860559E+03  0.36009802464E+02  0.14775290174E+04  0.95290189090E+03 0.  0.
         23    2    4    4    0    0  0.90243986510E+02  0.17549407736E+03 -0.19280393372E+03  0.29097600359E+03  0.92474480354E+02 0.  0.
         23    2    4    4    0    0 -0.11306931496E+04  0.26181452823E+03  0.22881373618E+03  0.11865530138E+04  0.92403911104E+02 0.  0.
          4    1    3    3  502    0  0.41290475691E+03 -0.17326282746E+03 -0.29079757048E+03  0.53392281526E+03  0.00000000000E+00 0. -1.
         -3    1    3    3    0  502  0.62754440623E+03 -0.26404577813E+03 -0.56475231180E+03  0.88457748582E+03  0.00000000000E+00 0.  1.
         11    1    5    5    0    0  0.80307537252E+01 -0.10988308944E+02 -0.75689287799E+01  0.15573202038E+02  0.00000000000E+00 0.  1.
        -11    1    5    5    0    0  0.82213232785E+02  0.18648238630E+03 -0.18523500494E+03  0.27540280155E+03  0.00000000000E+00 0. -1.
          1    1    6    6  503    0 -0.88335095962E+03  0.21290371114E+03  0.14073745306E+03  0.91948025470E+03  0.00000000000E+00 0. -1.
         -1    1    6    6    0  503 -0.24734219002E+03  0.48910817095E+02  0.88076283120E+02  0.26707275908E+03  0.00000000000E+00 0.  1.
<mgrwt>
<rscale>  0 0.27776501E+04</rscale>
<asrwt>0</asrwt>
<pdfrwt beam="1">  1        2 0.15972994E+00 0.27776501E+04</pdfrwt>
<pdfrwt beam="2">  1       -1 0.28581303E+00 0.27776501E+04</pdfrwt>
<totfact> 0.96550722E-01</totfact>
</mgrwt>
</event>
<event>
12    6  0.1542110E-007  0.1104962E+04  0.7818608E-02  0.9200369E-01
         -1   -1    0    0    0  501 -0.00000000000E+00  0.00000000000E+00  0.24009944518E+03  0.24009944518E+03  0.00000000000E+00 0.  1.
          2   -1    0    0  501    0  0.00000000000E+00 -0.00000000000E+00 -0.12712872818E+04  0.12712872818E+04  0.00000000000E+00 0. -1.
         24    2    1    2    0    0  0.15702937881E+03  0.60210361644E+02 -0.19426041698E+03  0.26904712474E+03  0.79785539210E+02 0.  0.
        254    2    1    2    0    0 -0.15702937881E+03 -0.60210361644E+02 -0.83692741961E+03  0.12423396022E+04  0.90259440950E+03 0.  0.
         23    2    4    4    0    0 -0.12135539124E+03 -0.45550095787E+03 -0.29066343748E+03  0.56103092651E+03  0.89789826895E+02 0.  0.
         23    2    4    4    0    0 -0.35673987566E+02  0.39529059622E+03 -0.54626398213E+03  0.68130867569E+03  0.90828875110E+02 0.  0.
          2    1    3    3  502    0  0.79112519775E+02  0.60006773189E+02 -0.14864534355E+03  0.17875973197E+03  0.00000000000E+00 0. -1.
         -3    1    3    3    0  502  0.77916859030E+02  0.20358845419E+00 -0.45615073431E+02  0.90287392772E+02  0.00000000000E+00 0.  1.
         11    1    5    5    0    0 -0.85880647333E+02 -0.20460062039E+03 -0.97320986207E+02  0.24229790302E+03  0.00000000000E+00 0.  1.
        -11    1    5    5    0    0 -0.35474743906E+02 -0.25090033748E+03 -0.19334245127E+03  0.31873302349E+03  0.00000000000E+00 0. -1.
          3    1    6    6  503    0  0.82360069029E+01  0.18204055155E+03 -0.31330824207E+03  0.36244813252E+03  0.00000000000E+00 0. -1.
         -3    1    6    6    0  503 -0.43909994469E+02  0.21325004467E+03 -0.23295574006E+03  0.31886054317E+03  0.00000000000E+00 0.  1.
<mgrwt>
<rscale>  0 0.11049622E+04</rscale>
<asrwt>0</asrwt>
<pdfrwt beam="1">  1        2 0.19558266E+00 0.11049622E+04</pdfrwt>
<pdfrwt beam="2">  1       -1 0.36938376E-01 0.11049622E+04</pdfrwt>
<totfact> 0.13676054E+02</totfact>
</mgrwt>
</event>
<event>
12    6  0.1542110E-007  0.4053205E+04  0.7818608E-02  0.7993899E-01
         -1   -1    0    0    0  501 -0.00000000000E+00  0.00000000000E+00  0.15517253180E+04  0.15517253180E+04  0.00000000000E+00 0.  1.
          2   -1    0    0  501    0  0.00000000000E+00 -0.00000000000E+00 -0.26468074816E+04  0.26468074816E+04  0.00000000000E+00 0. -1.
         24    2    1    2    0    0 -0.18350269408E+04  0.49894796556E+03 -0.83080782059E+03  0.20767652569E+04  0.80245570173E+02 0.  0.
        254    2    1    2    0    0  0.18350269408E+04 -0.49894796556E+03 -0.26427434304E+03  0.21217675427E+04  0.90320741300E+03 0.  0.
         23    2    4    4    0    0  0.11313934997E+04 -0.43241009328E+01 -0.47702307489E+03  0.12313723822E+04  0.93042897052E+02 0.  0.
         23    2    4    4    0    0  0.70363344112E+03 -0.49462386463E+03  0.21274873185E+03  0.89039516046E+03  0.88253792818E+02 0.  0.
          2    1    3    3  502    0 -0.33810948096E+03  0.72097673325E+02 -0.12473887246E+03  0.36752670912E+03  0.00000000000E+00 0. -1.
         -1    1    3    3    0  502 -0.14969174599E+04  0.42685029223E+03 -0.70606894813E+03  0.17092385478E+04  0.00000000000E+00 0.  1.
         11    1    5    5    0    0  0.32778328476E+03  0.38411170899E+02 -0.15454261064E+03  0.36441832874E+03  0.00000000000E+00 0.  1.
        -11    1    5    5    0    0  0.80361021497E+03 -0.42735271832E+02 -0.32248046425E+03  0.86695405350E+03  0.00000000000E+00 0. -1.
          4    1    6    6  503    0  0.26093010452E+03 -0.22372766783E+03  0.11360479570E+03  0.36200088177E+03  0.00000000000E+00 0. -1.
         -4    1    6    6    0  503  0.44270333660E+03 -0.27089619680E+03  0.99143936150E+02  0.52839427869E+03  0.00000000000E+00 0.  1.
<mgrwt>
<rscale>  0 0.40532052E+04</rscale>
<asrwt>0</asrwt>
<pdfrwt beam="1">  1        2 0.40720115E+00 0.40532052E+04</pdfrwt>
<pdfrwt beam="2">  1       -1 0.23872697E+00 0.40532052E+04</pdfrwt>
<totfact> 0.21067416E-01</totfact>
</mgrwt>
</event>
<event>
12    6  0.1542110E-007  0.1407940E+04  0.7818608E-02  0.8948091E-01
          2   -1    0    0  501    0  0.00000000000E+00  0.00000000000E+00  0.25231469874E+04  0.25231469874E+04  0.00000000000E+00 0. -1.
         -1   -1    0    0    0  501 -0.00000000000E+00 -0.00000000000E+00 -0.19641086151E+03  0.19641086151E+03  0.00000000000E+00 0.  1.
         24    2    1    2    0    0  0.77028349962E+02 -0.18147362318E+03  0.13774990978E+04  0.13938614809E+04  0.80498576008E+02 0.  0.
        254    2    1    2    0    0 -0.77028349962E+02  0.18147362318E+03  0.94923702803E+03  0.13256963680E+04  0.90418686241E+03 0.  0.
         23    2    4    4    0    0  0.52794861844E+02  0.48884491941E+02 -0.15963870899E+03  0.19759345089E+03  0.91551425100E+02 0.  0.
         23    2    4    4    0    0 -0.12982321181E+03  0.13258913124E+03  0.11088757370E+04  0.11281029171E+04  0.92611270470E+02 0.  0.
          4    1    3    3  502    0  0.51319795105E+02 -0.77113485636E+02  0.88134620976E+03  0.88620051484E+03  0.00000000000E+00 0. -1.
         -3    1    3    3    0  502  0.25708554857E+02 -0.10436013754E+03  0.49615288807E+03  0.50766096604E+03  0.00000000000E+00 0.  1.
         11    1    5    5    0    0 -0.61893206330E+01  0.50530460517E+02 -0.10711100583E+03  0.11859343447E+03  0.00000000000E+00 0.  1.
        -11    1    5    5    0    0  0.58984182477E+02 -0.16459685758E+01 -0.52527703159E+02  0.79000016419E+02  0.00000000000E+00 0. -1.
          1    1    6    6  503    0 -0.45969127450E+02  0.62714013675E+02  0.23720075557E+03  0.24962052527E+03  0.00000000000E+00 0. -1.
         -1    1    6    6    0  503 -0.83854084356E+02  0.69875117560E+02  0.87167498144E+03  0.87848239185E+03  0.00000000000E+00 0.  1.
<mgrwt>
<rscale>  0 0.14079396E+04</rscale>
<asrwt>0</asrwt>
<pdfrwt beam="1">  1        2 0.38817643E+00 0.14079396E+04</pdfrwt>
<pdfrwt beam="2">  1       -1 0.30217058E-01 0.14079396E+04</pdfrwt>
<totfact> 0.37815169E+01</totfact>
</mgrwt>
</event>
<event>
12    6  0.1542110E-007  0.1884424E+04  0.7818608E-02  0.8662649E-01
         -1   -1    0    0    0  501 -0.00000000000E+00  0.00000000000E+00  0.38820049728E+03  0.38820049728E+03  0.00000000000E+00 0.  1.
          2   -1    0    0  501    0  0.00000000000E+00 -0.00000000000E+00 -0.22868673780E+04  0.22868673780E+04  0.00000000000E+00 0. -1.
         24    2    1    2    0    0 -0.51216748374E+03 -0.21905850098E+03 -0.13862511720E+04  0.14960425322E+04  0.78414208191E+02 0.  0.
        254    2    1    2    0    0  0.51216748374E+03  0.21905850098E+03 -0.51241570870E+03  0.11790253431E+04  0.90400704798E+03 0.  0.
         23    2    4    4    0    0  0.65430645802E+03  0.39421665911E+03 -0.22355541062E+03  0.80110574804E+03  0.90937795155E+02 0.  0.
         23    2    4    4    0    0 -0.14213897428E+03 -0.17515815813E+03 -0.28886029809E+03  0.37791959502E+03  0.92190455681E+02 0.  0.
          2    1    3    3  502    0 -0.33266396778E+03 -0.11822485733E+03 -0.95490931504E+03  0.10180836077E+04  0.00000000000E+00 0. -1.
         -1    1    3    3    0  502 -0.17950351596E+03 -0.10083364365E+03 -0.43134185694E+03  0.47795892447E+03  0.00000000000E+00 0.  1.
         11    1    5    5    0    0  0.21962772183E+03  0.17038722176E+03 -0.11154317659E+03  0.29951631304E+03  0.00000000000E+00 0.  1.
        -11    1    5    5    0    0  0.43467873620E+03  0.22382943735E+03 -0.11201223403E+03  0.50158943499E+03  0.00000000000E+00 0. -1.
          3    1    6    6  503    0 -0.15138865149E+03 -0.17738559726E+03 -0.26980748222E+03  0.35662340273E+03  0.00000000000E+00 0. -1.
         -3    1    6    6    0  503  0.92496772012E+01  0.22274391326E+01 -0.19052815871E+02  0.21296192290E+02  0.00000000000E+00 0.  1.
<mgrwt>
<rscale>  0 0.18844236E+04</rscale>
<asrwt>0</asrwt>
<pdfrwt beam="1">  1        2 0.35182576E+00 0.18844236E+04</pdfrwt>
<pdfrwt beam="2">  1       -1 0.59723153E-01 0.18844236E+04</pdfrwt>
<totfact> 0.14001242E+01</totfact>
</mgrwt>
</event>
<event>
12    6  0.1542110E-007  0.1464905E+04  0.7818608E-02  0.8908132E-01
          2   -1    0    0  501    0  0.00000000000E+00  0.00000000000E+00  0.14419105520E+04  0.14419105520E+04  0.00000000000E+00 0. -1.
         -1   -1    0    0    0  501 -0.00000000000E+00 -0.00000000000E+00 -0.37206671373E+03  0.37206671373E+03  0.00000000000E+00 0.  1.
         24    2    1    2    0    0  0.23658847779E+03  0.50924984319E+02  0.80148015614E+03  0.84113223609E+03  0.81027995440E+02 0.  0.
        254    2    1    2    0    0 -0.23658847779E+03 -0.50924984319E+02  0.26836368209E+03  0.97284502960E+03  0.90323912886E+03 0.  0.
         23    2    4    4    0    0 -0.36668313341E+03  0.31048015643E+02  0.53290747543E+03  0.65367452160E+03  0.88766565907E+02 0.  0.
         23    2    4    4    0    0  0.13009465562E+03 -0.81972999963E+02 -0.26454379334E+03  0.31917050801E+03  0.90786576346E+02 0.  0.
          2    1    3    3  502    0  0.19497872881E+03  0.72484700197E+02  0.67008415158E+03  0.70162918030E+03  0.00000000000E+00 0. -1.
         -1    1    3    3    0  502  0.41609748975E+02 -0.21559715878E+02  0.13139600456E+03  0.13950305578E+03  0.00000000000E+00 0.  1.
         11    1    5    5    0    0 -0.14996293114E+03 -0.22211155670E+02  0.26183728381E+03  0.30255739843E+03  0.00000000000E+00 0.  1.
        -11    1    5    5    0    0 -0.21672020227E+03  0.53259171314E+02  0.27107019162E+03  0.35111712317E+03  0.00000000000E+00 0. -1.
          4    1    6    6  503    0  0.13100175091E+03 -0.65157143744E+02 -0.17522351415E+03  0.22827656917E+03  0.00000000000E+00 0. -1.
         -4    1    6    6    0  503 -0.90709529351E+00 -0.16815856219E+02 -0.89320279190E+02  0.90893938834E+02  0.00000000000E+00 0.  1.
<mgrwt>
<rscale>  0 0.14649053E+04</rscale>
<asrwt>0</asrwt>
<pdfrwt beam="1">  1        2 0.22183239E+00 0.14649053E+04</pdfrwt>
<pdfrwt beam="2">  1       -1 0.57241034E-01 0.14649053E+04</pdfrwt>
<totfact> 0.46720013E+01</totfact>
</mgrwt>
</event>
<event>
12    6  0.1542110E-007  0.2549320E+04  0.7818608E-02  0.8385623E-01
         -1   -1    0    0    0  501 -0.00000000000E+00  0.00000000000E+00  0.23559504784E+04  0.23559504784E+04  0.00000000000E+00 0.  1.
          2   -1    0    0  501    0  0.00000000000E+00 -0.00000000000E+00 -0.68964023634E+03  0.68964023634E+03  0.00000000000E+00 0. -1.
         24    2    1    2    0    0  0.44354448131E+03 -0.17190934327E+03 -0.49712317942E+03  0.69209512248E+03  0.74697214443E+02 0.  0.
        254    2    1    2    0    0 -0.44354448131E+03  0.17190934327E+03  0.21634334215E+04  0.23534955923E+04  0.79511810721E+03 0.  0.
         23    2    4    4    0    0  0.21153815886E+03 -0.33905062863E+02  0.46057804980E+03  0.51513256343E+03  0.85624015360E+02 0.  0.
         23    2    4    4    0    0 -0.65508264017E+03  0.20581440614E+03  0.17028553717E+04  0.18383630288E+04  0.91484281033E+02 0.  0.
          4    1    3    3  502    0  0.19866672532E+03 -0.97324125425E+02 -0.27687324239E+03  0.35439983845E+03  0.00000000000E+00 0. -1.
         -3    1    3    3    0  502  0.24487775599E+03 -0.74585217848E+02 -0.22024993703E+03  0.33769528404E+03  0.00000000000E+00 0.  1.
         11    1    5    5    0    0  0.42729432060E+02 -0.21150261973E+02  0.41707772093E+02  0.63345688082E+02  0.00000000000E+00 0.  1.
        -11    1    5    5    0    0  0.16880872680E+03 -0.12754800890E+02  0.41887027771E+03  0.45178687535E+03  0.00000000000E+00 0. -1.
          2    1    6    6  503    0 -0.55628454629E+03  0.16963139919E+03  0.13447564888E+04  0.14651270669E+04  0.00000000000E+00 0. -1.
         -2    1    6    6    0  503 -0.98798093886E+02  0.36183006947E+02  0.35809888291E+03  0.37323596194E+03  0.00000000000E+00 0.  1.
<mgrwt>
<rscale>  0 0.25493201E+04</rscale>
<asrwt>0</asrwt>
<pdfrwt beam="1">  1        2 0.10609850E+00 0.25493201E+04</pdfrwt>
<pdfrwt beam="2">  1       -1 0.36245392E+00 0.25493201E+04</pdfrwt>
<totfact> 0.54320734E-01</totfact>
</mgrwt>
</event>
<event>
12    6  0.1542110E-007  0.2381552E+04  0.7818608E-02  0.8446443E-01
         -1   -1    0    0    0  501 -0.00000000000E+00  0.00000000000E+00  0.10474014006E+04  0.10474014006E+04  0.00000000000E+00 0.  1.
          2   -1    0    0  501    0  0.00000000000E+00 -0.00000000000E+00 -0.13537769600E+04  0.13537769600E+04  0.00000000000E+00 0. -1.
         24    2    1    2    0    0  0.23637740109E+02 -0.50840061247E+03  0.75915446776E+03  0.91769408581E+03  0.82565148193E+02 0.  0.
        254    2    1    2    0    0 -0.23637740109E+02  0.50840061247E+03 -0.10655300272E+04  0.14834842748E+04  0.89796516034E+03 0.  0.
         23    2    4    4    0    0 -0.70775803520E+01  0.61025764204E+03 -0.11633520753E+04  0.13167461863E+04  0.89263577351E+02 0.  0.
         23    2    4    4    0    0 -0.16560159757E+02 -0.10185702957E+03  0.97822048126E+02  0.16673808847E+03  0.87082395932E+02 0.  0.
          4    1    3    3  502    0 -0.60542506355E+01 -0.24130820128E+03  0.29301814712E+03  0.37963921886E+03  0.00000000000E+00 0. -1.
         -3    1    3    3    0  502  0.29691990745E+02 -0.26709241119E+03  0.46613632064E+03  0.53805486695E+03  0.00000000000E+00 0.  1.
         11    1    5    5    0    0  0.69991059021E+01  0.11926663189E+03 -0.16072961559E+03  0.20026863532E+03  0.00000000000E+00 0.  1.
        -11    1    5    5    0    0 -0.14076686254E+02  0.49099101016E+03 -0.10026224597E+04  0.11164775510E+04  0.00000000000E+00 0. -1.
          4    1    6    6  503    0 -0.28579006973E+01 -0.11419688844E+03  0.72078737430E+02  0.13507198568E+03  0.00000000000E+00 0. -1.
         -4    1    6    6    0  503 -0.13702259060E+02  0.12339858866E+02  0.25743310696E+02  0.31666102788E+02  0.00000000000E+00 0.  1.
<mgrwt>
<rscale>  0 0.23815523E+04</rscale>
<asrwt>0</asrwt>
<pdfrwt beam="1">  1        2 0.20827338E+00 0.23815523E+04</pdfrwt>
<pdfrwt beam="2">  1       -1 0.16113868E+00 0.23815523E+04</pdfrwt>
<totfact> 0.45231622E+00</totfact>
</mgrwt>
</event>
<event>
12    6  0.1542110E-007  0.1760129E+04  0.7818608E-02  0.8727795E-01
         -1   -1    0    0    0  501 -0.00000000000E+00  0.00000000000E+00  0.58600431809E+03  0.58600431809E+03  0.00000000000E+00 0.  1.
          2   -1    0    0  501    0  0.00000000000E+00 -0.00000000000E+00 -0.13216852983E+04  0.13216852983E+04  0.00000000000E+00 0. -1.
         24    2    1    2    0    0  0.49123059831E+03  0.28761060622E+03  0.57110286757E+02  0.57751120880E+03  0.78931932174E+02 0.  0.
        254    2    1    2    0    0 -0.49123059831E+03 -0.28761060622E+03 -0.79279126695E+03  0.13301784076E+04  0.90378605957E+03 0.  0.
         23    2    4    4    0    0 -0.42226253944E+03 -0.58929271334E+03 -0.64691968447E+03  0.97589430845E+03  0.91066288552E+02 0.  0.
         23    2    4    4    0    0 -0.68968058866E+02  0.30168210711E+03 -0.14587158248E+03  0.35428409912E+03  0.92032697524E+02 0.  0.
          4    1    3    3  502    0  0.43222853269E+03  0.27214136166E+03  0.32701038080E+02  0.51181225375E+03  0.00000000000E+00 0. -1.
         -3    1    3    3    0  502  0.59002065613E+02  0.15469244566E+02  0.24409248677E+02  0.65698955053E+02  0.00000000000E+00 0.  1.
         11    1    5    5    0    0 -0.16558012672E+03 -0.22060118832E+03 -0.18876492326E+03  0.33423623219E+03  0.00000000000E+00 0. -1.
        -11    1    5    5    0    0 -0.25668241272E+03 -0.36869152501E+03 -0.45815476120E+03  0.64165807626E+03  0.00000000000E+00 0.  1.
          4    1    6    6  503    0 -0.89827562678E+02  0.23979476723E+03 -0.10214157619E+03  0.27568718322E+03  0.00000000000E+00 0. -1.
         -4    1    6    6    0  503  0.20859503811E+02  0.61887339885E+02 -0.43730006297E+02  0.78596915894E+02  0.00000000000E+00 0.  1.
<mgrwt>
<rscale>  0 0.17601287E+04</rscale>
<asrwt>0</asrwt>
<pdfrwt beam="1">  1        2 0.20333620E+00 0.17601287E+04</pdfrwt>
<pdfrwt beam="2">  1       -1 0.90154512E-01 0.17601287E+04</pdfrwt>
<totfact> 0.20862039E+01</totfact>
</mgrwt>
</event>
<event>
12    6  0.1542110E-007  0.1731183E+04  0.7818608E-02  0.8743777E-01
          4   -1    0    0  501    0  0.00000000000E+00  0.00000000000E+00  0.11729129654E+04  0.11729129654E+04  0.00000000000E+00 0. -1.
         -3   -1    0    0    0  501 -0.00000000000E+00 -0.00000000000E+00 -0.63879315663E+03  0.63879315663E+03  0.00000000000E+00 0.  1.
         24    2    1    2    0    0 -0.58271434522E+03  0.76305444581E+02 -0.11366154900E+02  0.59319954915E+03  0.79862297976E+02 0.  0.
        254    2    1    2    0    0  0.58271434522E+03 -0.76305444581E+02  0.54548596370E+03  0.12185065729E+04  0.91751011036E+03 0.  0.
         23    2    4    4    0    0  0.73654424645E+03  0.89201174838E+02  0.16366114221E+03  0.76508349692E+03  0.90075031025E+02 0.  0.
         23    2    4    4    0    0 -0.15382990123E+03 -0.16550661942E+03  0.38182482149E+03  0.45342307598E+03  0.93521184472E+02 0.  0.
          4    1    3    3  502    0 -0.20398026862E+03  0.29172872520E+02 -0.42085179462E+02  0.21030969737E+03  0.00000000000E+00 0. -1.
         -3    1    3    3    0  502 -0.37873407660E+03  0.47132572061E+02  0.30719024562E+02  0.38288985178E+03  0.00000000000E+00 0.  1.
         11    1    5    5    0    0  0.68718962624E+03  0.10562951908E+03  0.15537916248E+03  0.71241130104E+03  0.00000000000E+00 0. -1.
        -11    1    5    5    0    0  0.49354620211E+02 -0.16428344241E+02  0.82819797333E+01  0.52672195882E+02  0.00000000000E+00 0.  1.
          1    1    6    6  503    0 -0.13608528571E+03 -0.15381338882E+03  0.38018463316E+03  0.43210892013E+03  0.00000000000E+00 0. -1.
         -1    1    6    6    0  503 -0.17744615520E+02 -0.11693230601E+02  0.16401883273E+01  0.21314155850E+02  0.00000000000E+00 0.  1.
<mgrwt>
<rscale>  0 0.17311832E+04</rscale>
<asrwt>0</asrwt>
<pdfrwt beam="1">  1        4 0.18044815E+00 0.17311832E+04</pdfrwt>
<pdfrwt beam="2">  1       -3 0.98275870E-01 0.17311832E+04</pdfrwt>
<totfact> 0.35231153E-01</totfact>
</mgrwt>
</event>
<event>
12    6  0.1542110E-007  0.1340748E+04  0.7818608E-02  0.8997861E-01
         -1   -1    0    0    0  501 -0.00000000000E+00  0.00000000000E+00  0.16399839017E+04  0.16399839017E+04  0.00000000000E+00 0.  1.
          2   -1    0    0  501    0  0.00000000000E+00 -0.00000000000E+00 -0.27402796687E+03  0.27402796687E+03  0.00000000000E+00 0. -1.
         24    2    1    2    0    0 -0.30923751621E+03 -0.17985515593E+03  0.27018739389E+03  0.45543753565E+03  0.80289491965E+02 0.  0.
        254    2    1    2    0    0  0.30923751621E+03  0.17985515593E+03  0.10957685410E+04  0.14585743329E+04  0.89373075968E+03 0.  0.
         23    2    4    4    0    0  0.15900154768E+03 -0.13897969507E+03  0.10710136147E+04  0.10952278231E+04  0.88639571806E+02 0.  0.
         23    2    4    4    0    0  0.15023596853E+03  0.31883485100E+03  0.24754926239E+02  0.36334650988E+03  0.84742972649E+02 0.  0.
          2    1    3    3  502    0 -0.30153468732E+03 -0.18706273071E+03  0.25509125878E+03  0.43702080407E+03  0.00000000000E+00 0. -1.
         -1    1    3    3    0  502 -0.77028288828E+01  0.72075747828E+01  0.15096135109E+02  0.18416731585E+02  0.00000000000E+00 0.  1.
         11    1    5    5    0    0  0.15933959454E+03 -0.13979477617E+03  0.10726365730E+04  0.10933804935E+04  0.00000000000E+00 0.  1.
        -11    1    5    5    0    0 -0.33804686629E+00  0.81508110074E+00 -0.16229582862E+01  0.18473295546E+01  0.00000000000E+00 0. -1.
          3    1    6    6  503    0  0.65741683415E+01  0.10135629238E+03  0.44065531636E+00  0.10157023123E+03  0.00000000000E+00 0. -1.
         -3    1    6    6    0  503  0.14366180019E+03  0.21747855862E+03  0.24314270923E+02  0.26177627865E+03  0.00000000000E+00 0.  1.
<mgrwt>
<rscale>  0 0.13407482E+04</rscale>
<asrwt>0</asrwt>
<pdfrwt beam="1">  1        2 0.42158150E-01 0.13407482E+04</pdfrwt>
<pdfrwt beam="2">  1       -1 0.25230521E+00 0.13407482E+04</pdfrwt>
<totfact> 0.91741892E+00</totfact>
</mgrwt>
</event>
<event>
12    6  0.1542110E-007  0.1045096E+04  0.7818608E-02  0.9260422E-01
         -1   -1    0    0    0  501 -0.00000000000E+00  0.00000000000E+00  0.29036885659E+03  0.29036885659E+03  0.00000000000E+00 0.  1.
          2   -1    0    0  501    0  0.00000000000E+00 -0.00000000000E+00 -0.94037802919E+03  0.94037802919E+03  0.00000000000E+00 0. -1.
         24    2    1    2    0    0 -0.98584782360E+02  0.18948767911E+02 -0.19649834174E+02  0.12933823184E+03  0.79146996877E+02 0.  0.
        254    2    1    2    0    0  0.98584782360E+02 -0.18948767911E+02 -0.63035933842E+03  0.11014086539E+04  0.89759128355E+03 0.  0.
         23    2    4    4    0    0 -0.57227119160E+02 -0.36336763621E+03 -0.60213081986E+03  0.71146492823E+03  0.91158310990E+02 0.  0.
         23    2    4    4    0    0  0.15581190152E+03  0.34441886830E+03 -0.28228518564E+02  0.38994372571E+03  0.91419661237E+02 0.  0.
          4    1    3    3  502    0  0.61873864956E+01 -0.11736625677E+01  0.15725148432E+02  0.16939348531E+02  0.00000000000E+00 0. -1.
         -3    1    3    3    0  502 -0.10477216886E+03  0.20122430479E+02 -0.35374982606E+02  0.11239888331E+03  0.00000000000E+00 0.  1.
         11    1    5    5    0    0 -0.34223492877E+02 -0.90592737791E+02 -0.22946717905E+03  0.24906520806E+03  0.00000000000E+00 0.  1.
        -11    1    5    5    0    0 -0.23003626283E+02 -0.27277489842E+03 -0.37266364081E+03  0.46239972017E+03  0.00000000000E+00 0. -1.
          3    1    6    6  503    0  0.15318007538E+03  0.31100944105E+03 -0.49571176745E+02  0.35021180659E+03  0.00000000000E+00 0. -1.
         -3    1    6    6    0  503  0.26318261433E+01  0.33409427253E+02  0.21342658181E+02  0.39731919113E+02  0.00000000000E+00 0.  1.
<mgrwt>
<rscale>  0 0.10450962E+04</rscale>
<asrwt>0</asrwt>
<pdfrwt beam="1">  1        2 0.14467354E+00 0.10450962E+04</pdfrwt>
<pdfrwt beam="2">  1       -1 0.44672132E-01 0.10450962E+04</pdfrwt>
<totfact> 0.15529002E+02</totfact>
</mgrwt>
</event>
<event>
12    6  0.1542110E-007  0.2076656E+04  0.7818608E-02  0.8571597E-01
          2   -1    0    0  501    0  0.00000000000E+00  0.00000000000E+00  0.22903308290E+04  0.22903308290E+04  0.00000000000E+00 0. -1.
         -1   -1    0    0    0  501 -0.00000000000E+00 -0.00000000000E+00 -0.47072891249E+03  0.47072891249E+03  0.00000000000E+00 0.  1.
         24    2    1    2    0    0 -0.47598066668E+03 -0.56629584069E+03  0.20239416281E+03  0.77133549457E+03  0.82136921134E+02 0.  0.
        254    2    1    2    0    0  0.47598066668E+03  0.56629584069E+03  0.16172077537E+04  0.19897242469E+04  0.89240858687E+03 0.  0.
         23    2    4    4    0    0  0.59386552816E+03  0.39471654876E+03  0.56637931023E+03  0.91463617993E+03  0.85418962606E+02 0.  0.
         23    2    4    4    0    0 -0.11788486148E+03  0.17157929193E+03  0.10508284435E+04  0.10750880670E+04  0.90761446644E+02 0.  0.
          4    1    3    3  502    0 -0.18231245294E+03 -0.15793919133E+03  0.71830329234E+02  0.25167879301E+03  0.00000000000E+00 0. -1.
         -3    1    3    3    0  502 -0.29366821374E+03 -0.40835664936E+03  0.13056383358E+03  0.51965670156E+03  0.00000000000E+00 0.  1.
         11    1    5    5    0    0  0.48888720899E+03  0.36142549848E+03  0.48387902199E+03  0.77703153218E+03  0.00000000000E+00 0. -1.
        -11    1    5    5    0    0  0.10497831917E+03  0.33291050279E+02  0.82500288242E+02  0.13760464775E+03  0.00000000000E+00 0.  1.
          2    1    6    6  503    0 -0.10077396076E+03  0.67985232078E+02  0.60056221118E+03  0.61274166860E+03  0.00000000000E+00 0. -1.
         -2    1    6    6    0  503 -0.17110900717E+02  0.10359405985E+03  0.45026623231E+03  0.46234639840E+03  0.00000000000E+00 0.  1.
<mgrwt>
<rscale>  0 0.20766559E+04</rscale>
<asrwt>0</asrwt>
<pdfrwt beam="1">  1        2 0.35235858E+00 0.20766559E+04</pdfrwt>
<pdfrwt beam="2">  1       -1 0.72419834E-01 0.20766559E+04</pdfrwt>
<totfact> 0.92809397E+00</totfact>
</mgrwt>
</event>
<event>
12    6  0.1542110E-007  0.1534840E+04  0.7818608E-02  0.8861610E-01
         -1   -1    0    0    0  501 -0.00000000000E+00  0.00000000000E+00  0.27933033072E+03  0.27933033072E+03  0.00000000000E+00 0.  1.
          2   -1    0    0  501    0  0.00000000000E+00 -0.00000000000E+00 -0.21083758585E+04  0.21083758585E+04  0.00000000000E+00 0. -1.
         24    2    1    2    0    0  0.13816300384E+03 -0.40101697270E+03 -0.18161656600E+03  0.46843956067E+03  0.80916110483E+02 0.  0.
        254    2    1    2    0    0 -0.13816300384E+03  0.40101697270E+03 -0.16474289618E+04  0.19192666286E+04  0.88862735683E+03 0.  0.
         23    2    4    4    0    0  0.33990790477E+03  0.44617637962E+02 -0.83590503393E+03  0.90799279583E+03  0.90474163115E+02 0.  0.
         23    2    4    4    0    0 -0.47807090860E+03  0.35639933474E+03 -0.81152392788E+03  0.10112738327E+04  0.92365576972E+02 0.  0.
          4    1    3    3  502    0  0.21657371080E+02 -0.10301047132E+02 -0.78020175389E+01  0.25219531554E+02  0.00000000000E+00 0. -1.
         -3    1    3    3    0  502  0.11650563276E+03 -0.39071592557E+03 -0.17381454846E+03  0.44322002912E+03  0.00000000000E+00 0.  1.
         11    1    5    5    0    0  0.27051819478E+03 -0.18138593547E+01 -0.61669718108E+03  0.67342319306E+03  0.00000000000E+00 0.  1.
        -11    1    5    5    0    0  0.69389709983E+02  0.46431497317E+02 -0.21920785285E+03  0.23456960277E+03  0.00000000000E+00 0. -1.
          3    1    6    6  503    0 -0.17309583639E+03  0.94222001007E+02 -0.21309080481E+03  0.29025444896E+03  0.00000000000E+00 0. -1.
         -3    1    6    6    0  503 -0.30497507222E+03  0.26217733373E+03 -0.59843312307E+03  0.72101938378E+03  0.00000000000E+00 0.  1.
<mgrwt>
<rscale>  0 0.15348398E+04</rscale>
<asrwt>0</asrwt>
<pdfrwt beam="1">  1        2 0.32436553E+00 0.15348398E+04</pdfrwt>
<pdfrwt beam="2">  1       -1 0.42973896E-01 0.15348398E+04</pdfrwt>
<totfact> 0.34068307E+01</totfact>
</mgrwt>
</event>
<event>
12    6  0.1542110E-007  0.2355640E+04  0.7818608E-02  0.8456300E-01
          2   -1    0    0  501    0  0.00000000000E+00  0.00000000000E+00  0.14256890957E+04  0.14256890957E+04  0.00000000000E+00 0. -1.
         -1   -1    0    0    0  501 -0.00000000000E+00 -0.00000000000E+00 -0.97304547025E+03  0.97304547025E+03  0.00000000000E+00 0.  1.
         24    2    1    2    0    0 -0.35334314558E+03  0.75630270844E+03  0.76242424733E+03  0.11334557270E+04  0.81154093133E+02 0.  0.
        254    2    1    2    0    0  0.35334314558E+03 -0.75630270844E+03 -0.30978062186E+03  0.12652788390E+04  0.89895569488E+03 0.  0.
         23    2    4    4    0    0  0.77323129069E+02 -0.67433233866E+03 -0.55171570119E+03  0.87966893108E+03  0.93403662260E+02 0.  0.
         23    2    4    4    0    0  0.27602001652E+03 -0.81970369778E+02  0.24193507933E+03  0.38560990789E+03  0.85183492620E+02 0.  0.
          4    1    3    3  502    0 -0.33444687178E+03  0.74465595692E+03  0.74602915727E+03  0.11058601664E+04  0.00000000000E+00 0. -1.
         -3    1    3    3    0  502 -0.18896273804E+02  0.11646751513E+02  0.16395090066E+02  0.27595560562E+02  0.00000000000E+00 0.  1.
         11    1    5    5    0    0  0.56024889687E+02 -0.30313660119E+03 -0.30364977665E+03  0.43270518151E+03  0.00000000000E+00 0.  1.
        -11    1    5    5    0    0  0.21298239382E+02 -0.37119573747E+03 -0.24806592454E+03  0.44696374957E+03  0.00000000000E+00 0. -1.
          2    1    6    6  503    0  0.23182911109E+03 -0.52282153354E+02  0.23067749208E+03  0.33119520779E+03  0.00000000000E+00 0. -1.
         -2    1    6    6    0  503  0.44190905425E+02 -0.29688216424E+02  0.11257587247E+02  0.54414700103E+02  0.00000000000E+00 0.  1.
<mgrwt>
<rscale>  0 0.23556403E+04</rscale>
<asrwt>0</asrwt>
<pdfrwt beam="1">  1        2 0.21933678E+00 0.23556403E+04</pdfrwt>
<pdfrwt beam="2">  1       -1 0.14969930E+00 0.23556403E+04</pdfrwt>
<totfact> 0.50460653E+00</totfact>
</mgrwt>
</event>
<event>
12    6  0.1542110E-007  0.2410105E+04  0.7818608E-02  0.8435730E-01
          2   -1    0    0  501    0  0.00000000000E+00  0.00000000000E+00  0.11535894007E+04  0.11535894007E+04  0.00000000000E+00 0. -1.
         -1   -1    0    0    0  501 -0.00000000000E+00 -0.00000000000E+00 -0.12588112649E+04  0.12588112649E+04  0.00000000000E+00 0.  1.
         24    2    1    2    0    0  0.29699432990E+03 -0.22496423235E+03 -0.10125182633E+04  0.10818901468E+04  0.80489244330E+02 0.  0.
        254    2    1    2    0    0 -0.29699432990E+03  0.22496423235E+03  0.90729639915E+03  0.13305105187E+04  0.89903111552E+03 0.  0.
         23    2    4    4    0    0 -0.21997468184E+03 -0.11353083096E+01  0.10210558393E+04  0.10484069144E+04  0.90619431911E+02 0.  0.
         23    2    4    4    0    0 -0.77019648057E+02  0.22609954066E+03 -0.11375944020E+03  0.28210360435E+03  0.97919379498E+02 0.  0.
          2    1    3    3  502    0  0.16093348848E+03 -0.83487192412E+02 -0.56052151196E+03  0.58911294705E+03  0.00000000000E+00 0. -1.
         -1    1    3    3    0  502  0.13606084142E+03 -0.14147703994E+03 -0.45199675135E+03  0.49277719979E+03  0.00000000000E+00 0.  1.
         11    1    5    5    0    0 -0.48915287738E+02 -0.37888780756E+02  0.31275313948E+03  0.31881466613E+03  0.00000000000E+00 0. -1.
        -11    1    5    5    0    0 -0.17105939410E+03  0.36753472447E+02  0.70830269987E+03  0.72959224824E+03  0.00000000000E+00 0.  1.
          2    1    6    6  503    0 -0.87139294925E+02  0.22454801990E+03 -0.12101573951E+03  0.26955496502E+03  0.00000000000E+00 0.  1.
         -2    1    6    6    0  503  0.10119646868E+02  0.15515207655E+01  0.72562993094E+01  0.12548639332E+02  0.00000000000E+00 0. -1.
<mgrwt>
<rscale>  0 0.24101048E+04</rscale>
<asrwt>0</asrwt>
<pdfrwt beam="1">  1        2 0.17747529E+00 0.24101048E+04</pdfrwt>
<pdfrwt beam="2">  1       -1 0.19366327E+00 0.24101048E+04</pdfrwt>
<totfact> 0.34459331E+00</totfact>
</mgrwt>
</event>
<event>
12    6  0.1542110E-007  0.1885991E+04  0.7818608E-02  0.8661861E-01
         -1   -1    0    0    0  501 -0.00000000000E+00  0.00000000000E+00  0.48040965812E+03  0.48040965812E+03  0.00000000000E+00 0.  1.
          2   -1    0    0  501    0  0.00000000000E+00 -0.00000000000E+00 -0.18510052931E+04  0.18510052931E+04  0.00000000000E+00 0. -1.
         24    2    1    2    0    0  0.53069975243E+02 -0.55100467014E+03 -0.11768912163E+04  0.13026630797E+04  0.73726491692E+02 0.  0.
        254    2    1    2    0    0 -0.53069975243E+02  0.55100467014E+03 -0.19370441872E+03  0.10287518715E+04  0.84521384425E+03 0.  0.
         23    2    4    4    0    0 -0.47971529818E+02  0.28687935093E+03  0.32066628061E+03  0.44469744355E+03  0.10162638987E+03 0.  0.
         23    2    4    4    0    0 -0.50984454253E+01  0.26412531922E+03 -0.51437069933E+03  0.58405442795E+03  0.82183818864E+02 0.  0.
          4    1    3    3  502    0  0.15088429726E+02 -0.26859264306E+03 -0.65401406049E+03  0.70718035884E+03  0.00000000000E+00 0. -1.
         -3    1    3    3    0  502  0.37981545517E+02 -0.28241202709E+03 -0.52287715579E+03  0.59548272090E+03  0.00000000000E+00 0.  1.
         11    1    5    5    0    0 -0.47293346643E+02  0.25103097823E+03  0.31917678297E+03  0.40881173106E+03  0.00000000000E+00 0.  1.
        -11    1    5    5    0    0 -0.67818317438E+00  0.35848372698E+02  0.14894976398E+01  0.35885712487E+02  0.00000000000E+00 0. -1.
          2    1    6    6  503    0  0.31499967036E+02  0.51238000961E+02 -0.12714900897E+03  0.14065721151E+03  0.00000000000E+00 0. -1.
         -2    1    6    6    0  503 -0.36598412461E+02  0.21288731826E+03 -0.38722169036E+03  0.44339721645E+03  0.00000000000E+00 0.  1.
<mgrwt>
<rscale>  0 0.18859913E+04</rscale>
<asrwt>0</asrwt>
<pdfrwt beam="1">  1        2 0.28477005E+00 0.18859913E+04</pdfrwt>
<pdfrwt beam="2">  1       -1 0.73909177E-01 0.18859913E+04</pdfrwt>
<totfact> 0.15912823E+01</totfact>
</mgrwt>
</event>
<event>
12    6  0.1542110E-007  0.1104428E+04  0.7818608E-02  0.9200887E-01
         -1   -1    0    0    0  501 -0.00000000000E+00  0.00000000000E+00  0.21269673104E+03  0.21269673104E+03  0.00000000000E+00 0.  1.
          2   -1    0    0  501    0  0.00000000000E+00 -0.00000000000E+00 -0.14336848894E+04  0.14336848894E+04  0.00000000000E+00 0. -1.
         24    2    1    2    0    0  0.55361082949E+02  0.43365557941E+02  0.21530032571E+02  0.11081933265E+03  0.82897292266E+02 0.  0.
        254    2    1    2    0    0 -0.55361082949E+02 -0.43365557941E+02 -0.12425181910E+04  0.15355622878E+04  0.89953024619E+03 0.  0.
         23    2    4    4    0    0  0.38423994849E+03  0.43202712587E+02 -0.82873508010E+03  0.91905222159E+03  0.91369254314E+02 0.  0.
         23    2    4    4    0    0 -0.43960103143E+03 -0.86568270528E+02 -0.41378311085E+03  0.61651006623E+03  0.90139151534E+02 0.  0.
          4    1    3    3  502    0  0.70985319252E+02  0.52781948710E+02  0.25681043319E+02  0.92110616352E+02  0.00000000000E+00 0. -1.
         -3    1    3    3    0  502 -0.15624236303E+02 -0.94163907689E+01 -0.41510107477E+01  0.18708716295E+02  0.00000000000E+00 0.  1.
         11    1    5    5    0    0  0.11135445335E+03 -0.91857859003E+01 -0.16263408740E+03  0.19731710349E+03  0.00000000000E+00 0. -1.
        -11    1    5    5    0    0  0.27288549513E+03  0.52388498487E+02 -0.66610099270E+03  0.72173511811E+03  0.00000000000E+00 0.  1.
          2    1    6    6  503    0 -0.15718526656E+03 -0.12595328168E+01 -0.10261850875E+03  0.18772147662E+03  0.00000000000E+00 0. -1.
         -2    1    6    6    0  503 -0.28241576487E+03 -0.85308737711E+02 -0.31116460211E+03  0.42878858962E+03  0.00000000000E+00 0.  1.
<mgrwt>
<rscale>  0 0.11044276E+04</rscale>
<asrwt>0</asrwt>
<pdfrwt beam="1">  1        2 0.22056691E+00 0.11044276E+04</pdfrwt>
<pdfrwt beam="2">  1       -1 0.32722574E-01 0.11044276E+04</pdfrwt>
<totfact> 0.13690391E+02</totfact>
</mgrwt>
</event>
<event>
12    6  0.1542110E-007  0.1531796E+04  0.7818608E-02  0.8863580E-01
          2   -1    0    0  501    0  0.00000000000E+00  0.00000000000E+00  0.62886018283E+03  0.62886018283E+03  0.00000000000E+00 0. -1.
         -1   -1    0    0    0  501 -0.00000000000E+00 -0.00000000000E+00 -0.93279853166E+03  0.93279853166E+03  0.00000000000E+00 0.  1.
         24    2    1    2    0    0  0.18041025738E+03 -0.20814813871E+03 -0.51746159813E+03  0.59164150422E+03  0.79997845973E+02 0.  0.
        254    2    1    2    0    0 -0.18041025738E+03  0.20814813871E+03  0.21352324929E+03  0.97001721027E+03  0.90524455349E+03 0.  0.
         23    2    4    4    0    0  0.41270493909E+02  0.35445421296E+03  0.46405016564E+03  0.59357500059E+03  0.98222616251E+02 0.  0.
         23    2    4    4    0    0 -0.22168075129E+03 -0.14630607426E+03 -0.25052691635E+03  0.37644220968E+03  0.91636120378E+02 0.  0.
          4    1    3    3  502    0  0.11353249735E+03 -0.91026200487E+02 -0.33042966813E+03  0.36105285307E+03  0.00000000000E+00 0. -1.
         -3    1    3    3    0  502  0.66877760032E+02 -0.11712193822E+03 -0.18703192999E+03  0.23058865114E+03  0.00000000000E+00 0.  1.
         11    1    5    5    0    0  0.53207956462E+02  0.12693946636E+03  0.22169291942E+03  0.26094533004E+03  0.00000000000E+00 0.  1.
        -11    1    5    5    0    0 -0.11937462554E+02  0.22751474660E+03  0.24235724622E+03  0.33262967055E+03  0.00000000000E+00 0. -1.
          3    1    6    6  503    0 -0.23062003537E+03 -0.13802271130E+03 -0.24049293719E+03  0.36065596125E+03  0.00000000000E+00 0. -1.
         -3    1    6    6    0  503  0.89392840791E+01 -0.82833629589E+01 -0.10033979159E+02  0.15786248431E+02  0.00000000000E+00 0.  1.
<mgrwt>
<rscale>  0 0.15317961E+04</rscale>
<asrwt>0</asrwt>
<pdfrwt beam="1">  1        2 0.96747720E-01 0.15317961E+04</pdfrwt>
<pdfrwt beam="2">  1       -1 0.14350747E+00 0.15317961E+04</pdfrwt>
<totfact> 0.20256949E+01</totfact>
</mgrwt>
</event>
<event>
12    6  0.1542110E-007  0.2738041E+04  0.7818608E-02  0.8322766E-01
          2   -1    0    0  501    0  0.00000000000E+00  0.00000000000E+00  0.24787504597E+04  0.24787504597E+04  0.00000000000E+00 0. -1.
         -1   -1    0    0    0  501 -0.00000000000E+00 -0.00000000000E+00 -0.75611370208E+03  0.75611370208E+03  0.00000000000E+00 0.  1.
         24    2    1    2    0    0  0.90824253728E+03  0.30653971540E+02  0.17014155727E+04  0.19305448260E+04  0.79650497876E+02 0.  0.
        254    2    1    2    0    0 -0.90824253728E+03 -0.30653971540E+02  0.21221184944E+02  0.13043193358E+04  0.93538998203E+03 0.  0.
         23    2    4    4    0    0 -0.29502167799E+03  0.36408592480E+03 -0.22695107183E+03  0.52876288752E+03  0.92125192488E+02 0.  0.
         23    2    4    4    0    0 -0.61322085929E+03 -0.39473989634E+03  0.24817225677E+03  0.77555644825E+03  0.89660065633E+02 0.  0.
          4    1    3    3  502    0  0.84923979443E+03  0.16814246230E+02  0.15505932646E+04  0.17680018155E+04  0.00000000000E+00 0. -1.
         -1    1    3    3    0  502  0.59002742846E+02  0.13839725310E+02  0.15082230804E+03  0.16254301051E+03  0.00000000000E+00 0.  1.
         11    1    5    5    0    0 -0.36931057944E+01  0.45278753962E+02 -0.27059411603E+02  0.52877370841E+02  0.00000000000E+00 0.  1.
        -11    1    5    5    0    0 -0.29132857220E+03  0.31880717084E+03 -0.19989166023E+03  0.47588551668E+03  0.00000000000E+00 0. -1.
          4    1    6    6  503    0 -0.58209339021E+03 -0.39253761712E+03  0.22708011097E+03  0.73789150462E+03  0.00000000000E+00 0. -1.
         -4    1    6    6    0  503 -0.31127469075E+02 -0.22022792172E+01  0.21092145802E+02  0.37664943638E+02  0.00000000000E+00 0.  1.
<mgrwt>
<rscale>  0 0.27380410E+04</rscale>
<asrwt>0</asrwt>
<pdfrwt beam="1">  1        2 0.38134622E+00 0.27380410E+04</pdfrwt>
<pdfrwt beam="2">  1       -1 0.11632519E+00 0.27380410E+04</pdfrwt>
<totfact> 0.23772339E+00</totfact>
</mgrwt>
</event>
<event>
12    6  0.1542110E-007  0.2676664E+04  0.7818608E-02  0.8342617E-01
         -1   -1    0    0    0  501 -0.00000000000E+00  0.00000000000E+00  0.69594764356E+03  0.69594764356E+03  0.00000000000E+00 0.  1.
          2   -1    0    0  501    0  0.00000000000E+00 -0.00000000000E+00 -0.25736598082E+04  0.25736598082E+04  0.00000000000E+00 0. -1.
         24    2    1    2    0    0  0.41268510529E+03 -0.52225765765E+03  0.36974292818E+03  0.76536794316E+03  0.77564156506E+02 0.  0.
        254    2    1    2    0    0 -0.41268510529E+03  0.52225765765E+03 -0.22474550928E+04  0.25042395086E+04  0.88153222580E+03 0.  0.
         23    2    4    4    0    0 -0.18026480069E+03  0.16344448491E+03 -0.50710997728E+02  0.26439442332E+03  0.90129394612E+02 0.  0.
         23    2    4    4    0    0 -0.23242030460E+03  0.35881317274E+03 -0.21967440951E+04  0.22398450853E+04  0.91952682657E+02 0.  0.
          2    1    3    3  502    0  0.30625070522E+03 -0.38214406535E+03  0.23190482178E+03  0.54185185014E+03  0.00000000000E+00 0. -1.
         -1    1    3    3    0  502  0.10643440007E+03 -0.14011359230E+03  0.13783810639E+03  0.22351609302E+03  0.00000000000E+00 0.  1.
         11    1    5    5    0    0 -0.60370430425E+02  0.77415370318E+02 -0.62467315795E+02  0.11636105007E+03  0.00000000000E+00 0. -1.
        -11    1    5    5    0    0 -0.11989437027E+03  0.86029114594E+02  0.11756318067E+02  0.14803337324E+03  0.00000000000E+00 0.  1.
          3    1    6    6  503    0 -0.10191868891E+03  0.13931222760E+03 -0.11206575759E+04  0.11338733255E+04  0.00000000000E+00 0. -1.
         -3    1    6    6    0  503 -0.13050161569E+03  0.21950094514E+03 -0.10760865192E+04  0.11059717598E+04  0.00000000000E+00 0.  1.
<mgrwt>
<rscale>  0 0.26766640E+04</rscale>
<asrwt>0</asrwt>
<pdfrwt beam="1">  1        2 0.39594766E+00 0.26766640E+04</pdfrwt>
<pdfrwt beam="2">  1       -1 0.10706887E+00 0.26766640E+04</pdfrwt>
<totfact> 0.25626153E+00</totfact>
</mgrwt>
</event>
<event>
12    6  0.1542110E-007  0.1888963E+04  0.7818608E-02  0.8660370E-01
         -1   -1    0    0    0  501 -0.00000000000E+00  0.00000000000E+00  0.41188960168E+03  0.41188960168E+03  0.00000000000E+00 0.  1.
          2   -1    0    0  501    0  0.00000000000E+00 -0.00000000000E+00 -0.21657381518E+04  0.21657381518E+04  0.00000000000E+00 0. -1.
         24    2    1    2    0    0 -0.66557612510E+03 -0.68454541718E+02 -0.10699679915E+04  0.12643809050E+04  0.78421728131E+02 0.  0.
        254    2    1    2    0    0  0.66557612510E+03  0.68454541718E+02 -0.68388055856E+03  0.13132468484E+04  0.89958160496E+03 0.  0.
         23    2    4    4    0    0  0.37765568872E+03  0.36620570249E+02 -0.87300356631E+03  0.95626050342E+03  0.91290953678E+02 0.  0.
         23    2    4    4    0    0  0.28792043638E+03  0.31833971469E+02  0.18912300775E+03  0.35698634502E+03  0.88091764893E+02 0.  0.
          2    1    3    3  502    0 -0.60167535053E+03 -0.83529174866E+02 -0.98028562778E+03  0.11532346953E+04  0.00000000000E+00 0. -1.
         -1    1    3    3    0  502 -0.63900774574E+02  0.15074633149E+02 -0.89682363751E+02  0.11114620967E+03  0.00000000000E+00 0.  1.
         11    1    5    5    0    0  0.29041119068E+03  0.52177144551E+01 -0.57553595281E+03  0.64467628869E+03  0.00000000000E+00 0. -1.
        -11    1    5    5    0    0  0.87244498038E+02  0.31402855794E+02 -0.29746761350E+03  0.31158421474E+03  0.00000000000E+00 0.  1.
          4    1    6    6  503    0  0.11480451850E+03 -0.29653314455E+02  0.84162258491E+02  0.14540523471E+03  0.00000000000E+00 0.  1.
         -4    1    6    6    0  503  0.17311591789E+03  0.61487285924E+02  0.10496074926E+03  0.21158111031E+03  0.00000000000E+00 0. -1.
<mgrwt>
<rscale>  0 0.18889627E+04</rscale>
<asrwt>0</asrwt>
<pdfrwt beam="1">  1        2 0.33319049E+00 0.18889627E+04</pdfrwt>
<pdfrwt beam="2">  1       -1 0.63367630E-01 0.18889627E+04</pdfrwt>
<totfact> 0.14554048E+01</totfact>
</mgrwt>
</event>
<event>
12    6  0.1542110E-007  0.2804456E+04  0.7818608E-02  0.8301886E-01
          2   -1    0    0  501    0  0.00000000000E+00  0.00000000000E+00  0.19257605496E+04  0.19257605496E+04  0.00000000000E+00 0. -1.
         -1   -1    0    0    0  501 -0.00000000000E+00 -0.00000000000E+00 -0.10210215324E+04  0.10210215324E+04  0.00000000000E+00 0.  1.
         24    2    1    2    0    0 -0.21657590953E+03 -0.10362138601E+04  0.11194315872E+04  0.15427918755E+04  0.80220970529E+02 0.  0.
        254    2    1    2    0    0  0.21657590953E+03  0.10362138601E+04 -0.21469257005E+03  0.14039902064E+04  0.89691209810E+03 0.  0.
         23    2    4    4    0    0  0.32315480618E+03  0.33098608351E+03 -0.44535047695E+03  0.64884896689E+03  0.93204711739E+02 0.  0.
         23    2    4    4    0    0 -0.10657889665E+03  0.70522777659E+03  0.23065790689E+03  0.75514123955E+03  0.91268524573E+02 0.  0.
          4    1    3    3  502    0 -0.15918680789E+03 -0.65255136073E+03  0.66317749378E+03  0.94391106914E+03  0.00000000000E+00 0. -1.
         -3    1    3    3    0  502 -0.57389101644E+02 -0.38366249937E+03  0.45625409346E+03  0.59888080635E+03  0.00000000000E+00 0.  1.
         11    1    5    5    0    0  0.13747358464E+03  0.17779581903E+03 -0.16195925105E+03  0.27702191021E+03  0.00000000000E+00 0.  1.
        -11    1    5    5    0    0  0.18568122153E+03  0.15319026448E+03 -0.28339122590E+03  0.37182705668E+03  0.00000000000E+00 0. -1.
          1    1    6    6  503    0 -0.93895712479E+02  0.60411220792E+03  0.16267373587E+03  0.63263789716E+03  0.00000000000E+00 0. -1.
         -1    1    6    6    0  503 -0.12683184166E+02  0.10111556867E+03  0.67984171023E+02  0.12250334239E+03  0.00000000000E+00 0.  1.
<mgrwt>
<rscale>  0 0.28044557E+04</rscale>
<asrwt>0</asrwt>
<pdfrwt beam="1">  1        2 0.29627085E+00 0.28044557E+04</pdfrwt>
<pdfrwt beam="2">  1       -1 0.15708024E+00 0.28044557E+04</pdfrwt>
<totfact> 0.22367877E+00</totfact>
</mgrwt>
</event>
<event>
12    6  0.1542110E-007  0.1308603E+04  0.7818608E-02  0.9022771E-01
         -1   -1    0    0    0  501 -0.00000000000E+00  0.00000000000E+00  0.42626871169E+03  0.42626871169E+03  0.00000000000E+00 0.  1.
          2   -1    0    0  501    0  0.00000000000E+00 -0.00000000000E+00 -0.10043199958E+04  0.10043199958E+04  0.00000000000E+00 0. -1.
         24    2    1    2    0    0  0.12401965522E+03  0.93092139345E+02 -0.48482976496E+03  0.51473527327E+03  0.76455734038E+02 0.  0.
        254    2    1    2    0    0 -0.12401965522E+03 -0.93092139345E+02 -0.93221519199E+02  0.91585343427E+03  0.89780300742E+03 0.  0.
         23    2    4    4    0    0 -0.28175435311E+03  0.64874504398E+02 -0.41539827002E+03  0.51402999526E+03  0.89871555408E+02 0.  0.
         23    2    4    4    0    0  0.15773469789E+03 -0.15796664374E+03  0.32217675082E+03  0.40182343901E+03  0.88490236274E+02 0.  0.
          2    1    3    3  502    0  0.12224887000E+03  0.10182664643E+03 -0.41697368835E+03  0.44629643614E+03  0.00000000000E+00 0. -1.
         -1    1    3    3    0  502  0.17707852244E+01 -0.87345070814E+01 -0.67856076608E+02  0.68438837125E+02  0.00000000000E+00 0.  1.
         11    1    5    5    0    0  0.12672966213E+01 -0.28364901573E+01  0.30403222098E+01  0.43468697103E+01  0.00000000000E+00 0. -1.
        -11    1    5    5    0    0 -0.28302164973E+03  0.67710994555E+02 -0.41843859223E+03  0.50968312555E+03  0.00000000000E+00 0.  1.
          4    1    6    6  503    0  0.50795669886E+02 -0.98975769794E+02  0.20126019212E+03  0.22996101412E+03  0.00000000000E+00 0. -1.
         -4    1    6    6    0  503  0.10693902800E+03 -0.58990873948E+02  0.12091655870E+03  0.17186242489E+03  0.00000000000E+00 0.  1.
<mgrwt>
<rscale>  0 0.13086026E+04</rscale>
<asrwt>0</asrwt>
<pdfrwt beam="1">  1        2 0.15451077E+00 0.13086026E+04</pdfrwt>
<pdfrwt beam="2">  1       -1 0.65579802E-01 0.13086026E+04</pdfrwt>
<totfact> 0.65930833E+01</totfact>
</mgrwt>
</event>
<event>
12    6  0.1542110E-007  0.1543924E+04  0.7818608E-02  0.8855758E-01
          2   -1    0    0  501    0  0.00000000000E+00  0.00000000000E+00  0.44630150096E+03  0.44630150096E+03  0.00000000000E+00 0. -1.
         -1   -1    0    0    0  501 -0.00000000000E+00 -0.00000000000E+00 -0.13352533626E+04  0.13352533626E+04  0.00000000000E+00 0.  1.
         24    2    1    2    0    0 -0.50342153713E+03  0.23912726236E+02 -0.28225026266E+03  0.58327907979E+03  0.80896301673E+02 0.  0.
        254    2    1    2    0    0  0.50342153713E+03 -0.23912726236E+02 -0.60670159902E+03  0.11982757838E+04  0.90209365439E+03 0.  0.
         23    2    4    4    0    0  0.58644695021E+03 -0.26989538831E+03 -0.64869527407E+03  0.91965016059E+03  0.90483773238E+02 0.  0.
         23    2    4    4    0    0 -0.83025413083E+02  0.24598266207E+03  0.41993675052E+02  0.27862562323E+03  0.92022170782E+02 0.  0.
          4    1    3    3  502    0 -0.10030920651E+03  0.18631601085E+02 -0.24984598002E+02  0.10503953354E+03  0.00000000000E+00 0. -1.
         -3    1    3    3    0  502 -0.40311233062E+03  0.52811251508E+01 -0.25726566466E+03  0.47823954625E+03  0.00000000000E+00 0.  1.
         11    1    5    5    0    0  0.14363487897E+03 -0.93709844565E+02 -0.21729366156E+03  0.27681952384E+03  0.00000000000E+00 0. -1.
        -11    1    5    5    0    0  0.44281207124E+03 -0.17618554374E+03 -0.43140161252E+03  0.64283063675E+03  0.00000000000E+00 0.  1.
          3    1    6    6  503    0 -0.22947792144E+02  0.12734563795E+03  0.63129252802E+02  0.14397505072E+03  0.00000000000E+00 0. -1.
         -3    1    6    6    0  503 -0.60077620939E+02  0.11863702412E+03 -0.21135577750E+02  0.13465057251E+03  0.00000000000E+00 0.  1.
<mgrwt>
<rscale>  0 0.15439243E+04</rscale>
<asrwt>0</asrwt>
<pdfrwt beam="1">  1        2 0.68661770E-01 0.15439243E+04</pdfrwt>
<pdfrwt beam="2">  1       -1 0.20542359E+00 0.15439243E+04</pdfrwt>
<totfact> 0.10678460E+01</totfact>
</mgrwt>
</event>
<event>
12    6  0.1542110E-007  0.1366827E+04  0.7818608E-02  0.8978187E-01
          2   -1    0    0  501    0  0.00000000000E+00  0.00000000000E+00  0.19932682070E+04  0.19932682070E+04  0.00000000000E+00 0. -1.
         -1   -1    0    0    0  501 -0.00000000000E+00 -0.00000000000E+00 -0.23431585405E+03  0.23431585405E+03  0.00000000000E+00 0.  1.
         24    2    1    2    0    0 -0.21605180227E+03  0.19057551513E+03  0.63404897475E+02  0.30514131038E+03  0.78061706632E+02 0.  0.
        254    2    1    2    0    0  0.21605180227E+03 -0.19057551513E+03  0.16955474554E+04  0.19224427506E+04  0.85901545246E+03 0.  0.
         23    2    4    4    0    0  0.19272365943E+02 -0.37289699697E+03  0.15623907507E+04  0.16091044653E+04  0.93427661892E+02 0.  0.
         23    2    4    4    0    0  0.19677943633E+03  0.18232148184E+03  0.13315670478E+03  0.31333828535E+03  0.92124392729E+02 0.  0.
          4    1    3    3  502    0 -0.41450581561E+02  0.47564988642E+01  0.20826437922E+02  0.46631700695E+02  0.00000000000E+00 0. -1.
         -3    1    3    3    0  502 -0.17460122071E+03  0.18581901627E+03  0.42578459553E+02  0.25850960968E+03  0.00000000000E+00 0.  1.
         11    1    5    5    0    0 -0.36924648916E+02 -0.10937534754E+03  0.47585943202E+03  0.48966171526E+03  0.00000000000E+00 0. -1.
        -11    1    5    5    0    0  0.56197014859E+02 -0.26352164943E+03  0.10865313186E+04  0.11194427500E+04  0.00000000000E+00 0.  1.
          3    1    6    6  503    0  0.13849076134E+03  0.17717057144E+03  0.11087609629E+03  0.25072417332E+03  0.00000000000E+00 0.  1.
         -3    1    6    6    0  503  0.58288674990E+02  0.51509103991E+01  0.22280608491E+02  0.62614112025E+02  0.00000000000E+00 0. -1.
<mgrwt>
<rscale>  0 0.13668275E+04</rscale>
<asrwt>0</asrwt>
<pdfrwt beam="1">  1        2 0.30665664E+00 0.13668275E+04</pdfrwt>
<pdfrwt beam="2">  1       -1 0.36048594E-01 0.13668275E+04</pdfrwt>
<totfact> 0.55147931E+01</totfact>
</mgrwt>
</event>
<event>
12    6  0.1542110E-007  0.1780033E+04  0.7818608E-02  0.8716990E-01
         -1   -1    0    0    0  501 -0.00000000000E+00  0.00000000000E+00  0.12299451360E+04  0.12299451360E+04  0.00000000000E+00 0.  1.
          2   -1    0    0  501    0  0.00000000000E+00 -0.00000000000E+00 -0.64403652363E+03  0.64403652363E+03  0.00000000000E+00 0. -1.
         24    2    1    2    0    0 -0.52104772137E+03  0.31977361773E+03  0.46018817127E+03  0.76934118353E+03  0.79792287590E+02 0.  0.
        254    2    1    2    0    0  0.52104772137E+03 -0.31977361773E+03  0.12572044112E+03  0.11046404761E+04  0.91141596300E+03 0.  0.
         23    2    4    4    0    0  0.10667649344E+03 -0.55207137545E+03  0.22349353361E+03  0.61115118943E+03  0.85986853276E+02 0.  0.
         23    2    4    4    0    0  0.41437122793E+03  0.23229775771E+03 -0.97773092486E+02  0.49348928668E+03  0.91139100738E+02 0.  0.
          2    1    3    3  502    0 -0.14516236931E+03  0.55734244577E+02  0.92278456129E+02  0.18081408393E+03  0.00000000000E+00 0. -1.
         -1    1    3    3    0  502 -0.37588535206E+03  0.26403937316E+03  0.36790971514E+03  0.58852709960E+03  0.00000000000E+00 0.  1.
         11    1    5    5    0    0 -0.49881906201E+01 -0.12585809373E+03  0.27484671796E+02  0.12892070814E+03  0.00000000000E+00 0. -1.
        -11    1    5    5    0    0  0.11166468406E+03 -0.42621328172E+03  0.19600886181E+03  0.48223048129E+03  0.00000000000E+00 0.  1.
          2    1    6    6  503    0  0.29452583402E+03  0.12412061182E+03 -0.89150239590E+02  0.33181193228E+03  0.00000000000E+00 0. -1.
         -2    1    6    6    0  503  0.11984539391E+03  0.10817714590E+03 -0.86228528957E+01  0.16167735441E+03  0.00000000000E+00 0.  1.
<mgrwt>
<rscale>  0 0.17800332E+04</rscale>
<asrwt>0</asrwt>
<pdfrwt beam="1">  1        2 0.99082542E-01 0.17800332E+04</pdfrwt>
<pdfrwt beam="2">  1       -1 0.18922233E+00 0.17800332E+04</pdfrwt>
<totfact> 0.87870410E+00</totfact>
</mgrwt>
</event>
<event>
12    6  0.1542110E-007  0.1568015E+04  0.7818608E-02  0.8840442E-01
          2   -1    0    0  501    0  0.00000000000E+00  0.00000000000E+00  0.13833614906E+04  0.13833614906E+04  0.00000000000E+00 0. -1.
         -1   -1    0    0    0  501 -0.00000000000E+00 -0.00000000000E+00 -0.44432915310E+03  0.44432915310E+03  0.00000000000E+00 0.  1.
         24    2    1    2    0    0  0.37220114039E+03 -0.18227059102E+03  0.68212624355E+03  0.80211820618E+03  0.79631321042E+02 0.  0.
        254    2    1    2    0    0 -0.37220114039E+03  0.18227059102E+03  0.25690609393E+03  0.10255724375E+04  0.90224266480E+03 0.  0.
         23    2    4    4    0    0 -0.48659113661E+03  0.39425704749E+03 -0.38488828316E+02  0.63336244180E+03  0.86354149022E+02 0.  0.
         23    2    4    4    0    0  0.11438999621E+03 -0.21198645648E+03  0.29539492225E+03  0.39220999570E+03  0.92451023099E+02 0.  0.
          4    1    3    3  502    0  0.34354189356E+03 -0.15440983306E+03  0.57112235217E+03  0.68413753758E+03  0.00000000000E+00 0. -1.
         -3    1    3    3    0  502  0.28659246835E+02 -0.27860757963E+02  0.11100389137E+03  0.11798066860E+03  0.00000000000E+00 0.  1.
         11    1    5    5    0    0 -0.31399287293E+03  0.20692929510E+03 -0.43791459183E+02  0.37858809982E+03  0.00000000000E+00 0. -1.
        -11    1    5    5    0    0 -0.17259826367E+03  0.18732775239E+03  0.53026308672E+01  0.25477434198E+03  0.00000000000E+00 0.  1.
          4    1    6    6  503    0  0.10616199061E+03 -0.10800378335E+03  0.14897331391E+03  0.21243406912E+03  0.00000000000E+00 0. -1.
         -4    1    6    6    0  503  0.82280056064E+01 -0.10398267312E+03  0.14642160834E+03  0.17977592657E+03  0.00000000000E+00 0.  1.
<mgrwt>
<rscale>  0 0.15680151E+04</rscale>
<asrwt>0</asrwt>
<pdfrwt beam="1">  1        2 0.21282484E+00 0.15680151E+04</pdfrwt>
<pdfrwt beam="2">  1       -1 0.68358332E-01 0.15680151E+04</pdfrwt>
<totfact> 0.35106304E+01</totfact>
</mgrwt>
</event>
<event>
12    6  0.1542110E-007  0.1415887E+04  0.7818608E-02  0.8942398E-01
          2   -1    0    0  501    0  0.00000000000E+00  0.00000000000E+00  0.11361706362E+04  0.11361706362E+04  0.00000000000E+00 0. -1.
         -1   -1    0    0    0  501 -0.00000000000E+00 -0.00000000000E+00 -0.44111694037E+03  0.44111694037E+03  0.00000000000E+00 0.  1.
         24    2    1    2    0    0 -0.10492093022E+02 -0.17536456690E+03 -0.21787086836E+03  0.29048377866E+03  0.77783642560E+02 0.  0.
        254    2    1    2    0    0  0.10492093022E+02  0.17536456690E+03  0.91292456421E+03  0.12868037979E+04  0.88970216313E+03 0.  0.
         23    2    4    4    0    0 -0.20177690553E+03 -0.23041110380E+03  0.70828925135E+03  0.77679569329E+03  0.89076872297E+02 0.  0.
         23    2    4    4    0    0  0.21226899855E+03  0.40577567070E+03  0.20463531286E+03  0.51000810463E+03  0.92307274074E+02 0.  0.
          4    1    3    3  502    0 -0.48001637179E+01  0.76425950902E+01 -0.10773520500E+02  0.14054165767E+02  0.00000000000E+00 0. -1.
         -3    1    3    3    0  502 -0.56919293038E+01 -0.18300716199E+03 -0.20709734786E+03  0.27642961290E+03  0.00000000000E+00 0.  1.
         11    1    5    5    0    0 -0.86819206884E+02 -0.50524606402E+02  0.29488211451E+03  0.31152170389E+03  0.00000000000E+00 0. -1.
        -11    1    5    5    0    0 -0.11495769864E+03 -0.17988649740E+03  0.41340713684E+03  0.46527398940E+03  0.00000000000E+00 0.  1.
          1    1    6    6  503    0  0.11011767889E+03  0.12511509953E+03  0.95023992255E+02  0.19185737004E+03  0.00000000000E+00 0. -1.
         -1    1    6    6    0  503  0.10215131966E+03  0.28066057117E+03  0.10961132060E+03  0.31815073459E+03  0.00000000000E+00 0.  1.
<mgrwt>
<rscale>  0 0.14158872E+04</rscale>
<asrwt>0</asrwt>
<pdfrwt beam="1">  1        2 0.17479548E+00 0.14158872E+04</pdfrwt>
<pdfrwt beam="2">  1       -1 0.67864145E-01 0.14158872E+04</pdfrwt>
<totfact> 0.50460198E+01</totfact>
</mgrwt>
</event>
<event>
12    6  0.1542110E-007  0.1170174E+04  0.7818608E-02  0.9139372E-01
          2   -1    0    0  501    0  0.00000000000E+00  0.00000000000E+00  0.31464867645E+03  0.31464867645E+03  0.00000000000E+00 0. -1.
         -1   -1    0    0    0  501 -0.00000000000E+00 -0.00000000000E+00 -0.10879642747E+04  0.10879642747E+04  0.00000000000E+00 0.  1.
         24    2    1    2    0    0 -0.17541003208E+03 -0.10300439784E+03 -0.24873596698E+02  0.21981151763E+03  0.79497309022E+02 0.  0.
        254    2    1    2    0    0  0.17541003208E+03  0.10300439784E+03 -0.74844200155E+03  0.11828014335E+04  0.89301467857E+03 0.  0.
         23    2    4    4    0    0 -0.13112037832E+03  0.95258108858E+02 -0.83116549255E+03  0.85171962195E+03  0.91233642317E+02 0.  0.
         23    2    4    4    0    0  0.30653041040E+03  0.77462889840E+01  0.82723491000E+02  0.33108181158E+03  0.93547274154E+02 0.  0.
          2    1    3    3  502    0 -0.15906820602E+03 -0.68984891466E+02 -0.41952300868E+02  0.17838611203E+03  0.00000000000E+00 0. -1.
         -1    1    3    3    0  502 -0.16341826056E+02 -0.34019506376E+02  0.17078704169E+02  0.41425405598E+02  0.00000000000E+00 0.  1.
         11    1    5    5    0    0 -0.62649447961E+02  0.91511466384E+02 -0.61560293147E+03  0.62551280646E+03  0.00000000000E+00 0. -1.
        -11    1    5    5    0    0 -0.68470930360E+02  0.37466424734E+01 -0.21556256108E+03  0.22620681549E+03  0.00000000000E+00 0.  1.
          1    1    6    6  503    0  0.30584259512E+03  0.43087342334E+01  0.93423495780E+02  0.31982215018E+03  0.00000000000E+00 0. -1.
         -1    1    6    6    0  503  0.68781527682E+00  0.34375547506E+01 -0.10700004779E+02  0.11259661398E+02  0.00000000000E+00 0.  1.
<mgrwt>
<rscale>  0 0.11701735E+04</rscale>
<asrwt>0</asrwt>
<pdfrwt beam="1">  1        2 0.48407487E-01 0.11701735E+04</pdfrwt>
<pdfrwt beam="2">  1       -1 0.16737912E+00 0.11701735E+04</pdfrwt>
<totfact> 0.30335677E+01</totfact>
</mgrwt>
</event>
<event>
12    6  0.1542110E-007  0.2307026E+04  0.7818608E-02  0.8475156E-01
         -1   -1    0    0    0  501 -0.00000000000E+00  0.00000000000E+00  0.90447072318E+03  0.90447072318E+03  0.00000000000E+00 0.  1.
          2   -1    0    0  501    0  0.00000000000E+00 -0.00000000000E+00 -0.14711276554E+04  0.14711276554E+04  0.00000000000E+00 0. -1.
         24    2    1    2    0    0  0.14098849213E+03  0.76307072969E+03 -0.85361401285E+03  0.11566248259E+04  0.83483000822E+02 0.  0.
        254    2    1    2    0    0 -0.14098849213E+03 -0.76307072969E+03  0.28695708067E+03  0.12189735527E+04  0.89520805547E+03 0.  0.
         23    2    4    4    0    0 -0.25740127079E+03  0.96379225426E+02  0.17696241373E+03  0.33980507700E+03  0.92776210250E+02 0.  0.
         23    2    4    4    0    0  0.11641277866E+03 -0.85944995512E+03  0.10999466694E+03  0.87916847568E+03  0.92909749162E+02 0.  0.
          4    1    3    3  502    0  0.57132417010E+02  0.47094727719E+03 -0.56157193505E+03  0.73513161352E+03  0.00000000000E+00 0. -1.
         -3    1    3    3    0  502  0.83856075124E+02  0.29212345250E+03 -0.29204207780E+03  0.42149321233E+03  0.00000000000E+00 0.  1.
         11    1    5    5    0    0 -0.96533871708E+02  0.85313776766E+02  0.77088588627E+02  0.15013287245E+03  0.00000000000E+00 0.  1.
        -11    1    5    5    0    0 -0.16086739908E+03  0.11065448660E+02  0.99873825098E+02  0.18967220456E+03  0.00000000000E+00 0. -1.
          4    1    6    6  503    0  0.13068868551E+03 -0.72086415520E+03  0.10120607524E+03  0.73957239838E+03  0.00000000000E+00 0. -1.
         -4    1    6    6    0  503 -0.14275906852E+02 -0.13858579992E+03  0.87885917045E+01  0.13959607730E+03  0.00000000000E+00 0.  1.
<mgrwt>
<rscale>  0 0.23070257E+04</rscale>
<asrwt>0</asrwt>
<pdfrwt beam="1">  1        2 0.22632733E+00 0.23070257E+04</pdfrwt>
<pdfrwt beam="2">  1       -1 0.13914934E+00 0.23070257E+04</pdfrwt>
<totfact> 0.57948607E+00</totfact>
</mgrwt>
</event>
<event>
12    6  0.1542110E-007  0.2664976E+04  0.7818608E-02  0.8346459E-01
          2   -1    0    0  501    0  0.00000000000E+00  0.00000000000E+00  0.14741514337E+04  0.14741514337E+04  0.00000000000E+00 0. -1.
         -1   -1    0    0    0  501 -0.00000000000E+00 -0.00000000000E+00 -0.12044378494E+04  0.12044378494E+04  0.00000000000E+00 0.  1.
         24    2    1    2    0    0 -0.88894313370E+03  0.34280881150E+03 -0.57616664742E+03  0.11168656526E+04  0.87653317830E+02 0.  0.
        254    2    1    2    0    0  0.88894313370E+03 -0.34280881150E+03  0.84588023174E+03  0.15617236306E+04  0.90317747740E+03 0.  0.
         23    2    4    4    0    0  0.25855393268E+01 -0.28858038671E+03  0.53808148289E+03  0.61741315470E+03  0.91553245504E+02 0.  0.
         23    2    4    4    0    0  0.88635759437E+03 -0.54228424790E+02  0.30779874885E+03  0.94431047588E+03  0.91715309057E+02 0.  0.
          2    1    3    3  502    0 -0.41577979172E+03  0.15232185939E+03 -0.21763242257E+03  0.49339502977E+03  0.00000000000E+00 0. -1.
         -1    1    3    3    0  502 -0.47316334198E+03  0.19048695211E+03 -0.35853422486E+03  0.62347062281E+03  0.00000000000E+00 0.  1.
         11    1    5    5    0    0  0.30851083385E+02 -0.46416072460E+02  0.13890697663E+03  0.14967093667E+03  0.00000000000E+00 0.  1.
        -11    1    5    5    0    0 -0.28265544058E+02 -0.24216431425E+03  0.39917450626E+03  0.46774221802E+03  0.00000000000E+00 0. -1.
          4    1    6    6  503    0  0.67924201958E+03 -0.28327696761E+01  0.22837144848E+03  0.71661095737E+03  0.00000000000E+00 0. -1.
         -4    1    6    6    0  503  0.20711557480E+03 -0.51395655114E+02  0.79427300373E+02  0.22769951852E+03  0.00000000000E+00 0.  1.
<mgrwt>
<rscale>  0 0.26649756E+04</rscale>
<asrwt>0</asrwt>
<pdfrwt beam="1">  1        2 0.22679253E+00 0.26649756E+04</pdfrwt>
<pdfrwt beam="2">  1       -1 0.18529813E+00 0.26649756E+04</pdfrwt>
<totfact> 0.25094410E+00</totfact>
</mgrwt>
</event>
<event>
12    6  0.1542110E-007  0.2636863E+04  0.7818608E-02  0.8355786E-01
         -1   -1    0    0    0  501 -0.00000000000E+00  0.00000000000E+00  0.64302440597E+03  0.64302440597E+03  0.00000000000E+00 0.  1.
          2   -1    0    0  501    0  0.00000000000E+00 -0.00000000000E+00 -0.27032589683E+04  0.27032589683E+04  0.00000000000E+00 0. -1.
         24    2    1    2    0    0 -0.45658398311E+03 -0.33239043761E+03 -0.22061745610E+04  0.22787004038E+04  0.79479559077E+02 0.  0.
        254    2    1    2    0    0  0.45658398311E+03  0.33239043761E+03  0.14593999867E+03  0.10675829704E+04  0.89413789701E+03 0.  0.
         23    2    4    4    0    0  0.25942536093E+03  0.38954119791E+03 -0.30334107733E+03  0.56530438769E+03  0.92246294142E+02 0.  0.
         23    2    4    4    0    0  0.19715862218E+03 -0.57150760303E+02  0.44928107600E+03  0.50227858272E+03  0.91063481761E+02 0.  0.
          2    1    3    3  502    0 -0.30019757469E+03 -0.25765801599E+03 -0.14587577000E+04  0.15114497228E+04  0.00000000000E+00 0. -1.
         -1    1    3    3    0  502 -0.15638640842E+03 -0.74732421616E+02 -0.74741686094E+03  0.76725068107E+03  0.00000000000E+00 0.  1.
         11    1    5    5    0    0 -0.35554847432E+01  0.45408600253E+01  0.38716106824E+01  0.69462400480E+01  0.00000000000E+00 0. -1.
        -11    1    5    5    0    0  0.26298084567E+03  0.38500033789E+03 -0.30721268801E+03  0.55835814764E+03  0.00000000000E+00 0.  1.
          4    1    6    6  503    0  0.10784565103E+03 -0.24030011486E+02  0.13819387441E+03  0.17693409175E+03  0.00000000000E+00 0. -1.
         -4    1    6    6    0  503  0.89312971151E+02 -0.33120748816E+02  0.31108720159E+03  0.32534449098E+03  0.00000000000E+00 0.  1.
<mgrwt>
<rscale>  0 0.26368629E+04</rscale>
<asrwt>0</asrwt>
<pdfrwt beam="1">  1        2 0.41588599E+00 0.26368629E+04</pdfrwt>
<pdfrwt beam="2">  1       -1 0.98926833E-01 0.26368629E+04</pdfrwt>
<totfact> 0.25888936E+00</totfact>
</mgrwt>
</event>
<event>
12    6  0.1542110E-007  0.1590429E+04  0.7818608E-02  0.8826450E-01
         -1   -1    0    0    0  501 -0.00000000000E+00  0.00000000000E+00  0.23397041317E+03  0.23397041317E+03  0.00000000000E+00 0.  1.
          2   -1    0    0  501    0  0.00000000000E+00 -0.00000000000E+00 -0.27027608428E+04  0.27027608428E+04  0.00000000000E+00 0. -1.
         24    2    1    2    0    0  0.43568471551E+02 -0.43091346945E+03 -0.24840952581E+03  0.50554378873E+03  0.79262853461E+02 0.  0.
        254    2    1    2    0    0 -0.43568471551E+02  0.43091346945E+03 -0.22203809038E+04  0.24311874672E+04  0.89050351655E+03 0.  0.
         23    2    4    4    0    0  0.33093391814E+03  0.65593695787E+00 -0.43096572084E+03  0.55082384871E+03  0.90320381587E+02 0.  0.
         23    2    4    4    0    0 -0.37450238970E+03  0.43025753250E+03 -0.17894151830E+04  0.18803636185E+04  0.91580875260E+02 0.  0.
          4    1    3    3  502    0  0.17866608664E+02 -0.48139182869E+02 -0.57303635246E+02  0.76943506840E+02  0.00000000000E+00 0. -1.
         -3    1    3    3    0  502  0.25701862886E+02 -0.38277428659E+03 -0.19110589056E+03  0.42860028189E+03  0.00000000000E+00 0.  1.
         11    1    5    5    0    0  0.16690432730E+03 -0.42602683408E+02 -0.23960404864E+03  0.29509683704E+03  0.00000000000E+00 0. -1.
        -11    1    5    5    0    0  0.16402959085E+03  0.43258620366E+02 -0.19136167221E+03  0.25572701167E+03  0.00000000000E+00 0.  1.
          3    1    6    6  503    0 -0.64214370089E+02  0.10127345183E+03 -0.27842151178E+03  0.30314738263E+03  0.00000000000E+00 0. -1.
         -3    1    6    6    0  503 -0.31028801961E+03  0.32898408067E+03 -0.15109936712E+04  0.15772162359E+04  0.00000000000E+00 0.  1.
<mgrwt>
<rscale>  0 0.15904290E+04</rscale>
<asrwt>0</asrwt>
<pdfrwt beam="1">  1        2 0.41580935E+00 0.15904290E+04</pdfrwt>
<pdfrwt beam="2">  1       -1 0.35995449E-01 0.15904290E+04</pdfrwt>
<totfact> 0.21404813E+01</totfact>
</mgrwt>
</event>
<event>
12    6  0.1542110E-007  0.1361522E+04  0.7818608E-02  0.8982152E-01
         -1   -1    0    0    0  501 -0.00000000000E+00  0.00000000000E+00  0.36593514027E+03  0.36593514027E+03  0.00000000000E+00 0.  1.
          2   -1    0    0  501    0  0.00000000000E+00 -0.00000000000E+00 -0.12664410990E+04  0.12664410990E+04  0.00000000000E+00 0. -1.
         24    2    1    2    0    0  0.32383869696E+03 -0.10437796043E+03 -0.66569028999E+02  0.35655467730E+03  0.83267893025E+02 0.  0.
        254    2    1    2    0    0 -0.32383869696E+03  0.10437796043E+03 -0.83393692970E+03  0.12758215619E+04  0.90360588472E+03 0.  0.
         23    2    4    4    0    0  0.15356311812E+03 -0.51475964435E+02 -0.73197475437E+03  0.75520273533E+03  0.91174142454E+02 0.  0.
         23    2    4    4    0    0 -0.47740181508E+03  0.15585392486E+03 -0.10196217533E+03  0.52061882661E+03  0.91895258199E+02 0.  0.
          2    1    3    3  502    0  0.28319490350E+03 -0.75470008126E+02 -0.82022280649E+02  0.30433982654E+03  0.00000000000E+00 0. -1.
         -1    1    3    3    0  502  0.40643793460E+02 -0.28907952304E+02  0.15453251650E+02  0.52214850759E+02  0.00000000000E+00 0.  1.
         11    1    5    5    0    0  0.46154305029E+02  0.19795775575E+02 -0.12540010301E+03  0.13508248754E+03  0.00000000000E+00 0. -1.
        -11    1    5    5    0    0  0.10740881309E+03 -0.71271740010E+02 -0.60657465135E+03  0.62012024779E+03  0.00000000000E+00 0.  1.
          4    1    6    6  503    0 -0.40426953230E+03  0.94835291914E+02 -0.80160620916E+02  0.42291052539E+03  0.00000000000E+00 0. -1.
         -4    1    6    6    0  503 -0.73132282783E+02  0.61018632951E+02 -0.21801554418E+02  0.97708301220E+02  0.00000000000E+00 0.  1.
<mgrwt>
<rscale>  0 0.13615217E+04</rscale>
<asrwt>0</asrwt>
<pdfrwt beam="1">  1        2 0.19483709E+00 0.13615217E+04</pdfrwt>
<pdfrwt beam="2">  1       -1 0.56297714E-01 0.13615217E+04</pdfrwt>
<totfact> 0.61437396E+01</totfact>
</mgrwt>
</event>
<event>
12    6  0.1542110E-007  0.1754436E+04  0.7818608E-02  0.8730912E-01
          2   -1    0    0  501    0  0.00000000000E+00  0.00000000000E+00  0.28188607168E+04  0.28188607168E+04  0.00000000000E+00 0. -1.
         -1   -1    0    0    0  501 -0.00000000000E+00 -0.00000000000E+00 -0.27298680352E+03  0.27298680352E+03  0.00000000000E+00 0.  1.
         24    2    1    2    0    0  0.52594151971E+03  0.19355449285E+03  0.38524197163E+03  0.68640210455E+03  0.93051859581E+02 0.  0.
        254    2    1    2    0    0 -0.52594151971E+03 -0.19355449285E+03  0.21606319416E+04  0.24054454157E+04  0.89652631699E+03 0.  0.
         23    2    4    4    0    0 -0.67355839488E+03 -0.16233556109E+03  0.93549758995E+03  0.11677326451E+04  0.91706291787E+02 0.  0.
         23    2    4    4    0    0  0.14761687518E+03 -0.31218931761E+02  0.12251343517E+04  0.12377127706E+04  0.90627586142E+02 0.  0.
          4    1    3    3  502    0  0.43409432277E+03  0.14575247575E+03  0.35228213360E+03  0.57774074367E+03  0.00000000000E+00 0. -1.
         -3    1    3    3    0  502  0.91847196941E+02  0.47802017102E+02  0.32959838028E+02  0.10866136088E+03  0.00000000000E+00 0.  1.
         11    1    5    5    0    0 -0.30114412179E+03 -0.36186264909E+02  0.45551036385E+03  0.54725398074E+03  0.00000000000E+00 0.  1.
        -11    1    5    5    0    0 -0.37241427309E+03 -0.12614929618E+03  0.47998722610E+03  0.62047866438E+03  0.00000000000E+00 0. -1.
          2    1    6    6  503    0  0.77977269826E+00  0.17003584582E+02  0.59834456930E+02  0.62208457385E+02  0.00000000000E+00 0. -1.
         -2    1    6    6    0  503  0.14683710248E+03 -0.48222516343E+02  0.11652998947E+04  0.11755043132E+04  0.00000000000E+00 0.  1.
<mgrwt>
<rscale>  0 0.17544364E+04</rscale>
<asrwt>0</asrwt>
<pdfrwt beam="1">  1        2 0.43367086E+00 0.17544364E+04</pdfrwt>
<pdfrwt beam="2">  1       -1 0.41997972E-01 0.17544364E+04</pdfrwt>
<totfact> 0.13570552E+01</totfact>
</mgrwt>
</event>
<event>
12    6  0.1542110E-007  0.2279042E+04  0.7818608E-02  0.8486231E-01
         -1   -1    0    0    0  501 -0.00000000000E+00  0.00000000000E+00  0.10547188124E+04  0.10547188124E+04  0.00000000000E+00 0.  1.
          2   -1    0    0  501    0  0.00000000000E+00 -0.00000000000E+00 -0.12311416605E+04  0.12311416605E+04  0.00000000000E+00 0. -1.
         24    2    1    2    0    0 -0.57258027277E+03  0.69283421019E+03 -0.40244153776E+03  0.98796261892E+03  0.79016033096E+02 0.  0.
        254    2    1    2    0    0  0.57258027277E+03 -0.69283421019E+03  0.22601868963E+03  0.12978978540E+04  0.90861817052E+03 0.  0.
         23    2    4    4    0    0  0.35078955471E+03  0.21970010167E+02 -0.21784305384E+03  0.42346817416E+03  0.91289130707E+02 0.  0.
         23    2    4    4    0    0  0.22179071806E+03 -0.71480422036E+03  0.44386174347E+03  0.87442967984E+03  0.86474398648E+02 0.  0.
          2    1    3    3  502    0 -0.19243625115E+03  0.23021033131E+03 -0.94077799873E+02  0.31445053637E+03  0.00000000000E+00 0. -1.
         -1    1    3    3    0  502 -0.38014402162E+03  0.46262387888E+03 -0.30836373789E+03  0.67351208254E+03  0.00000000000E+00 0.  1.
         11    1    5    5    0    0  0.23735410539E+03  0.36894186597E+02 -0.10299040750E+03  0.26135259016E+03  0.00000000000E+00 0. -1.
        -11    1    5    5    0    0  0.11343544932E+03 -0.14924176430E+02 -0.11485264634E+03  0.16211558400E+03  0.00000000000E+00 0.  1.
          3    1    6    6  503    0  0.21347082599E+03 -0.58648062779E+03  0.35371856473E+03  0.71738841875E+03  0.00000000000E+00 0. -1.
         -3    1    6    6    0  503  0.83198920701E+01 -0.12832359257E+03  0.90143178739E+02  0.15704126110E+03  0.00000000000E+00 0.  1.
<mgrwt>
<rscale>  0 0.22790421E+04</rscale>
<asrwt>0</asrwt>
<pdfrwt beam="1">  1        2 0.18940641E+00 0.22790421E+04</pdfrwt>
<pdfrwt beam="2">  1       -1 0.16226443E+00 0.22790421E+04</pdfrwt>
<totfact> 0.52782738E+00</totfact>
</mgrwt>
</event>
<event>
12    6  0.1542110E-007  0.1239912E+04  0.7818608E-02  0.9078621E-01
         -1   -1    0    0    0  501 -0.00000000000E+00  0.00000000000E+00  0.94430364503E+03  0.94430364503E+03  0.00000000000E+00 0.  1.
          2   -1    0    0  501    0  0.00000000000E+00 -0.00000000000E+00 -0.40701482025E+03  0.40701482025E+03  0.00000000000E+00 0. -1.
         24    2    1    2    0    0  0.12926361952E+03  0.24347473561E+03  0.73228065885E+02  0.29646638089E+03  0.80876048062E+02 0.  0.
        254    2    1    2    0    0 -0.12926361952E+03 -0.24347473561E+03  0.46406075889E+03  0.10548520844E+04  0.90629548260E+03 0.  0.
         23    2    4    4    0    0 -0.78880816782E+01 -0.19143520418E+03  0.72107081543E+03  0.75155976265E+03  0.90494733146E+02 0.  0.
         23    2    4    4    0    0 -0.12137553784E+03 -0.52039531432E+02 -0.25701005655E+03  0.30329232174E+03  0.92151664363E+02 0.  0.
          4    1    3    3  502    0  0.10731160851E+03  0.23411568458E+03  0.83140528565E+02  0.27062572416E+03  0.00000000000E+00 0. -1.
         -1    1    3    3    0  502  0.21952011013E+02  0.93590510331E+01 -0.99124626804E+01  0.25840656728E+02  0.00000000000E+00 0.  1.
         11    1    5    5    0    0 -0.20497138402E+02 -0.48716646988E+02  0.34677013347E+03  0.35077481358E+03  0.00000000000E+00 0. -1.
        -11    1    5    5    0    0  0.12609056724E+02 -0.14271855719E+03  0.37430068197E+03  0.40078494907E+03  0.00000000000E+00 0.  1.
          1    1    6    6  503    0 -0.78889497399E+02 -0.57008915378E+02 -0.96048402181E+02  0.13674379252E+03  0.00000000000E+00 0. -1.
         -1    1    6    6    0  503 -0.42486040444E+02  0.49693839452E+01 -0.16096165437E+03  0.16654852922E+03  0.00000000000E+00 0.  1.
<mgrwt>
<rscale>  0 0.12399122E+04</rscale>
<asrwt>0</asrwt>
<pdfrwt beam="1">  1        2 0.62617665E-01 0.12399122E+04</pdfrwt>
<pdfrwt beam="2">  1       -1 0.14527748E+00 0.12399122E+04</pdfrwt>
<totfact> 0.33387327E+01</totfact>
</mgrwt>
</event>
<event>
12    6  0.1542110E-007  0.1656153E+04  0.7818608E-02  0.8786775E-01
         -1   -1    0    0    0  501 -0.00000000000E+00  0.00000000000E+00  0.43937389414E+03  0.43937389414E+03  0.00000000000E+00 0.  1.
          2   -1    0    0  501    0  0.00000000000E+00 -0.00000000000E+00 -0.15606546717E+04  0.15606546717E+04  0.00000000000E+00 0. -1.
         24    2    1    2    0    0  0.38699318250E+03 -0.19779534881E+03 -0.10039511627E+04  0.10968461882E+04  0.79163755177E+02 0.  0.
        254    2    1    2    0    0 -0.38699318250E+03  0.19779534881E+03 -0.11732961481E+03  0.90318237760E+03  0.78299773013E+03 0.  0.
         23    2    4    4    0    0 -0.55828771236E+02 -0.21627462467E+03 -0.25291374624E+03  0.34848858899E+03  0.87105502951E+02 0.  0.
         23    2    4    4    0    0 -0.33116441127E+03  0.41406997348E+03  0.13558413143E+03  0.55469378862E+03  0.90434131847E+02 0.  0.
          4    1    3    3  502    0  0.32445250844E+03 -0.13588723850E+03 -0.75848420648E+03  0.83608197164E+03  0.00000000000E+00 0. -1.
         -3    1    3    3    0  502  0.62540674064E+02 -0.61908110313E+02 -0.24546695624E+03  0.26076421657E+03  0.00000000000E+00 0.  1.
         11    1    5    5    0    0 -0.18359078536E+02 -0.99276865536E+02 -0.17788343325E+03  0.20453720351E+03  0.00000000000E+00 0. -1.
        -11    1    5    5    0    0 -0.37469692700E+02 -0.11699775913E+03 -0.75030312987E+02  0.14395138547E+03  0.00000000000E+00 0.  1.
          4    1    6    6  503    0 -0.17558455728E+03  0.24326814367E+03  0.32728876805E+02  0.30179547024E+03  0.00000000000E+00 0.  1.
         -4    1    6    6    0  503 -0.15557985398E+03  0.17080182982E+03  0.10285525462E+03  0.25289831838E+03  0.00000000000E+00 0. -1.
<mgrwt>
<rscale>  0 0.16561533E+04</rscale>
<asrwt>0</asrwt>
<pdfrwt beam="1">  1        2 0.24010072E+00 0.16561533E+04</pdfrwt>
<pdfrwt beam="2">  1       -1 0.67595983E-01 0.16561533E+04</pdfrwt>
<totfact> 0.28289536E+01</totfact>
</mgrwt>
</event>
<event>
12    6  0.1542110E-007  0.1642687E+04  0.7818608E-02  0.8794744E-01
         -1   -1    0    0    0  501 -0.00000000000E+00  0.00000000000E+00  0.56883563029E+03  0.56883563029E+03  0.00000000000E+00 0.  1.
          2   -1    0    0  501    0  0.00000000000E+00 -0.00000000000E+00 -0.11859409254E+04  0.11859409254E+04  0.00000000000E+00 0. -1.
         24    2    1    2    0    0  0.14845718005E+03  0.14211265414E+03  0.35140613626E+03  0.41443325883E+03  0.77673114053E+02 0.  0.
        254    2    1    2    0    0 -0.14845718005E+03 -0.14211265414E+03 -0.96851143141E+03  0.13403432969E+04  0.90347674015E+03 0.  0.
         23    2    4    4    0    0  0.31775108700E+03 -0.27592552210E+03 -0.42584896170E+03  0.60596047310E+03  0.93488554080E+02 0.  0.
         23    2    4    4    0    0 -0.46620826705E+03  0.13381286795E+03 -0.54266246971E+03  0.73438282380E+03  0.97875144775E+02 0.  0.
          2    1    3    3  502    0  0.23924134095E+00  0.10687598000E+02 -0.39140505097E+00  0.10697438261E+02  0.00000000000E+00 0. -1.
         -1    1    3    3    0  502  0.14821793871E+03  0.13142505614E+03  0.35179754132E+03  0.40373582057E+03  0.00000000000E+00 0.  1.
         11    1    5    5    0    0  0.20047309706E+03 -0.18965359110E+03 -0.33629359717E+03  0.43503026419E+03  0.00000000000E+00 0. -1.
        -11    1    5    5    0    0  0.11727798994E+03 -0.86271931000E+02 -0.89555364528E+02  0.17093020891E+03  0.00000000000E+00 0.  1.
          2    1    6    6  503    0 -0.12766314375E+03  0.60700497692E+02 -0.10412662507E+03  0.17556987994E+03  0.00000000000E+00 0. -1.
         -2    1    6    6    0  503 -0.33854512330E+03  0.73112370259E+02 -0.43853584464E+03  0.55881294386E+03  0.00000000000E+00 0.  1.
<mgrwt>
<rscale>  0 0.16426874E+04</rscale>
<asrwt>0</asrwt>
<pdfrwt beam="1">  1        2 0.18245245E+00 0.16426874E+04</pdfrwt>
<pdfrwt beam="2">  1       -1 0.87513176E-01 0.16426874E+04</pdfrwt>
<totfact> 0.27046167E+01</totfact>
</mgrwt>
</event>
<event>
12    6  0.1542110E-007  0.2520037E+04  0.7818608E-02  0.8395882E-01
          4   -1    0    0  501    0  0.00000000000E+00  0.00000000000E+00  0.55790831628E+03  0.55790831628E+03  0.00000000000E+00 0. -1.
         -3   -1    0    0    0  501 -0.00000000000E+00 -0.00000000000E+00 -0.28457135385E+04  0.28457135385E+04  0.00000000000E+00 0.  1.
         24    2    1    2    0    0  0.35913750247E+03 -0.96967575569E+03 -0.13361284194E+04  0.16913457537E+04  0.78488779622E+02 0.  0.
        254    2    1    2    0    0 -0.35913750247E+03  0.96967575569E+03 -0.95167680282E+03  0.17122761011E+04  0.97823815738E+03 0.  0.
         23    2    4    4    0    0  0.86373509339E+02  0.57431342270E+03 -0.23870021765E+01  0.58786249988E+03  0.90996320690E+02 0.  0.
         23    2    4    4    0    0 -0.44551101181E+03  0.39536233299E+03 -0.94928980064E+03  0.11244136012E+04  0.91451544715E+02 0.  0.
          4    1    3    3  502    0  0.26929892971E+03 -0.79309865221E+03 -0.10457641317E+04  0.13398320808E+04  0.00000000000E+00 0. -1.
         -3    1    3    3    0  502  0.89838572760E+02 -0.17657710348E+03 -0.29036428774E+03  0.35151367288E+03  0.00000000000E+00 0.  1.
         11    1    5    5    0    0 -0.11275105515E+02  0.51472509219E+02  0.17743702546E+02  0.55600235518E+02  0.00000000000E+00 0. -1.
        -11    1    5    5    0    0  0.97648614854E+02  0.52284091348E+03 -0.20130704722E+02  0.53226226436E+03  0.00000000000E+00 0.  1.
          2    1    6    6  503    0 -0.14411961348E+03  0.17267599210E+03 -0.41124312912E+03  0.46873059691E+03  0.00000000000E+00 0. -1.
         -2    1    6    6    0  503 -0.30139139833E+03  0.22268634089E+03 -0.53804667153E+03  0.65568300431E+03  0.00000000000E+00 0.  1.
<mgrwt>
<rscale>  0 0.25200375E+04</rscale>
<asrwt>0</asrwt>
<pdfrwt beam="1">  1        4 0.85832047E-01 0.25200375E+04</pdfrwt>
<pdfrwt beam="2">  1       -3 0.43780209E+00 0.25200375E+04</pdfrwt>
<totfact> 0.15785457E-02</totfact>
</mgrwt>
</event>
<event>
12    6  0.1542110E-007  0.1653680E+04  0.7818608E-02  0.8788233E-01
          2   -1    0    0  501    0  0.00000000000E+00  0.00000000000E+00  0.54135558522E+03  0.54135558522E+03  0.00000000000E+00 0. -1.
         -1   -1    0    0    0  501 -0.00000000000E+00 -0.00000000000E+00 -0.12628742199E+04  0.12628742199E+04  0.00000000000E+00 0.  1.
         24    2    1    2    0    0 -0.55084743789E+03 -0.18812035811E+03 -0.25194833238E+03  0.63932994131E+03  0.80266074391E+02 0.  0.
        254    2    1    2    0    0  0.55084743789E+03  0.18812035811E+03 -0.46957030225E+03  0.11648998638E+04  0.89312555382E+03 0.  0.
         23    2    4    4    0    0  0.41768215162E+03  0.11635638208E+03  0.19024016442E+03  0.48173289859E+03  0.88758537566E+02 0.  0.
         23    2    4    4    0    0  0.13316528627E+03  0.71763976029E+02 -0.65981046668E+03  0.68316696517E+03  0.92109655545E+02 0.  0.
          4    1    3    3  502    0 -0.17392780463E+02 -0.14489001383E+02  0.35039564748E+01  0.22906717013E+02  0.00000000000E+00 0. -1.
         -3    1    3    3    0  502 -0.53345465743E+03 -0.17363135673E+03 -0.25545228886E+03  0.61642322429E+03  0.00000000000E+00 0.  1.
         11    1    5    5    0    0  0.35775493700E+03  0.11123675351E+03  0.19316752914E+03  0.42151619731E+03  0.00000000000E+00 0.  1.
        -11    1    5    5    0    0  0.59927214620E+02  0.51196285698E+01 -0.29273647190E+01  0.60216701280E+02  0.00000000000E+00 0. -1.
          3    1    6    6  503    0 -0.13008496105E+02 -0.18822016288E+01 -0.60174475092E+02  0.61593271600E+02  0.00000000000E+00 0. -1.
         -3    1    6    6    0  503  0.14617378237E+03  0.73646177658E+02 -0.59963599159E+03  0.62157369357E+03  0.00000000000E+00 0.  1.
<mgrwt>
<rscale>  0 0.16536795E+04</rscale>
<asrwt>0</asrwt>
<pdfrwt beam="1">  1        2 0.83285476E-01 0.16536795E+04</pdfrwt>
<pdfrwt beam="2">  1       -1 0.19428834E+00 0.16536795E+04</pdfrwt>
<totfact> 0.10092778E+01</totfact>
</mgrwt>
</event>
<event>
12    6  0.1542110E-007  0.2317515E+04  0.7818608E-02  0.8471047E-01
         -1   -1    0    0    0  501 -0.00000000000E+00  0.00000000000E+00  0.49105638752E+03  0.49105638752E+03  0.00000000000E+00 0.  1.
          2   -1    0    0  501    0  0.00000000000E+00 -0.00000000000E+00 -0.27343486229E+04  0.27343486229E+04  0.00000000000E+00 0. -1.
         24    2    1    2    0    0 -0.49111011152E+03  0.58735751783E+03 -0.11358386402E+03  0.77813828413E+03  0.80124276453E+02 0.  0.
        254    2    1    2    0    0  0.49111011152E+03 -0.58735751783E+03 -0.21297083714E+04  0.24472667263E+04  0.93127798600E+03 0.  0.
         23    2    4    4    0    0 -0.67530815470E+02 -0.39460800233E+03 -0.15885275425E+04  0.16407200554E+04  0.90921177241E+02 0.  0.
         23    2    4    4    0    0  0.55864092699E+03 -0.19274951550E+03 -0.54118082893E+03  0.80654667093E+03  0.91699409777E+02 0.  0.
          4    1    3    3  502    0 -0.26996861036E+03  0.31399370559E+03 -0.10132621344E+03  0.42631220867E+03  0.00000000000E+00 0. -1.
         -3    1    3    3    0  502 -0.22114150116E+03  0.27336381223E+03 -0.12257650578E+02  0.35182607546E+03  0.00000000000E+00 0.  1.
         11    1    5    5    0    0  0.43758549700E+01  0.26900777226E+01 -0.43745840504E+02  0.44046375405E+02  0.00000000000E+00 0.  1.
        -11    1    5    5    0    0 -0.71906670440E+02 -0.39729808005E+03 -0.15447817020E+04  0.15966736800E+04  0.00000000000E+00 0. -1.
          3    1    6    6  503    0  0.42050285814E+03 -0.10977598475E+03 -0.36246794262E+03  0.56591203377E+03  0.00000000000E+00 0. -1.
         -3    1    6    6    0  503  0.13813806885E+03 -0.82973530752E+02 -0.17871288630E+03  0.24063463716E+03  0.00000000000E+00 0.  1.
<mgrwt>
<rscale>  0 0.23175154E+04</rscale>
<asrwt>0</asrwt>
<pdfrwt beam="1">  1        2 0.42066902E+00 0.23175154E+04</pdfrwt>
<pdfrwt beam="2">  1       -1 0.75547136E-01 0.23175154E+04</pdfrwt>
<totfact> 0.45946533E+00</totfact>
</mgrwt>
</event>
<event>
12    6  0.1542110E-007  0.1475006E+04  0.7818608E-02  0.8901246E-01
          2   -1    0    0  501    0  0.00000000000E+00  0.00000000000E+00  0.11338346435E+04  0.11338346435E+04  0.00000000000E+00 0. -1.
         -1   -1    0    0    0  501 -0.00000000000E+00 -0.00000000000E+00 -0.47970896459E+03  0.47970896459E+03  0.00000000000E+00 0.  1.
         24    2    1    2    0    0 -0.35227433026E+03  0.18267963489E+03  0.44845258324E+03  0.60405735009E+03  0.79413538020E+02 0.  0.
        254    2    1    2    0    0  0.35227433026E+03 -0.18267963489E+03  0.20567309563E+03  0.10094862580E+04  0.90514751834E+03 0.  0.
         23    2    4    4    0    0  0.41842092689E+03  0.15975830189E+03  0.39303127973E+03  0.60407823656E+03  0.99187408256E+02 0.  0.
         23    2    4    4    0    0 -0.66146596628E+02 -0.34243793678E+03 -0.18735818409E+03  0.40540802140E+03  0.87255153853E+02 0.  0.
          4    1    3    3  502    0 -0.33507588875E+03  0.18545654650E+03  0.40578789785E+03  0.55797293832E+03  0.00000000000E+00 0. -1.
         -3    1    3    3    0  502 -0.17198441511E+02 -0.27769116058E+01  0.42664685398E+02  0.46084411774E+02  0.00000000000E+00 0.  1.
         11    1    5    5    0    0  0.16703245836E+02  0.42873303026E+01 -0.46066637056E+01  0.17849396995E+02  0.00000000000E+00 0. -1.
        -11    1    5    5    0    0  0.40171768105E+03  0.15547097159E+03  0.39763794343E+03  0.58622883956E+03  0.00000000000E+00 0.  1.
          3    1    6    6  503    0 -0.32199535784E+02 -0.12166316703E+03 -0.11535407800E+03  0.17071994502E+03  0.00000000000E+00 0. -1.
         -3    1    6    6    0  503 -0.33947060843E+02 -0.22077476975E+03 -0.72004106092E+02  0.23468807638E+03  0.00000000000E+00 0.  1.
<mgrwt>
<rscale>  0 0.14750060E+04</rscale>
<asrwt>0</asrwt>
<pdfrwt beam="1">  1        2 0.17443610E+00 0.14750060E+04</pdfrwt>
<pdfrwt beam="2">  1       -1 0.73801379E-01 0.14750060E+04</pdfrwt>
<totfact> 0.42400364E+01</totfact>
</mgrwt>
</event>
<event>
12    6  0.1542110E-007  0.1285545E+04  0.7818608E-02  0.9041107E-01
         -1   -1    0    0    0  501 -0.00000000000E+00  0.00000000000E+00  0.39864853235E+03  0.39864853235E+03  0.00000000000E+00 0.  1.
          2   -1    0    0  501    0  0.00000000000E+00 -0.00000000000E+00 -0.10363925202E+04  0.10363925202E+04  0.00000000000E+00 0. -1.
         24    2    1    2    0    0 -0.63531681623E+02  0.24675988744E+03  0.65225614350E+02  0.27465351863E+03  0.79078808204E+02 0.  0.
        254    2    1    2    0    0  0.63531681623E+02 -0.24675988744E+03 -0.70296960225E+03  0.11603875340E+04  0.88735914414E+03 0.  0.
         23    2    4    4    0    0 -0.20683168598E+03 -0.26662208921E+03  0.51691046045E+02  0.35330472293E+03  0.91025151594E+02 0.  0.
         23    2    4    4    0    0  0.27036336760E+03  0.19862201770E+02 -0.75466064829E+03  0.80708281104E+03  0.91537490671E+02 0.  0.
          4    1    3    3  502    0 -0.12038113402E+02  0.66750180046E+02 -0.17367962416E+02  0.70015347096E+02  0.00000000000E+00 0. -1.
         -3    1    3    3    0  502 -0.51493568221E+02  0.18000970740E+03  0.82593576766E+02  0.20463817153E+03  0.00000000000E+00 0.  1.
         11    1    5    5    0    0 -0.10025406453E+03 -0.18977636015E+03  0.77873582475E+01  0.21477101125E+03  0.00000000000E+00 0.  1.
        -11    1    5    5    0    0 -0.10657762144E+03 -0.76845729061E+02  0.43903687798E+02  0.13853371167E+03  0.00000000000E+00 0. -1.
          3    1    6    6  503    0  0.22871340587E+02 -0.23447581724E+02 -0.59656329169E+02  0.68057071042E+02  0.00000000000E+00 0. -1.
         -3    1    6    6    0  503  0.24749202701E+03  0.43309783493E+02 -0.69500431912E+03  0.73902574000E+03  0.00000000000E+00 0.  1.
<mgrwt>
<rscale>  0 0.12855448E+04</rscale>
<asrwt>0</asrwt>
<pdfrwt beam="1">  1        2 0.15944500E+00 0.12855448E+04</pdfrwt>
<pdfrwt beam="2">  1       -1 0.61330543E-01 0.12855448E+04</pdfrwt>
<totfact> 0.72052397E+01</totfact>
</mgrwt>
</event>
<event>
12    6  0.1542110E-007  0.3525265E+04  0.7818608E-02  0.8107828E-01
          2   -1    0    0  501    0  0.00000000000E+00  0.00000000000E+00  0.31272629991E+04  0.31272629991E+04  0.00000000000E+00 0. -1.
         -1   -1    0    0    0  501 -0.00000000000E+00 -0.00000000000E+00 -0.99348022369E+03  0.99348022369E+03  0.00000000000E+00 0.  1.
         24    2    1    2    0    0 -0.12973622532E+04  0.29913745944E+03 -0.13361214874E+03  0.13405220081E+04  0.80715625136E+02 0.  0.
        254    2    1    2    0    0  0.12973622532E+04 -0.29913745944E+03  0.22673949241E+04  0.27802212147E+04  0.90328191874E+03 0.  0.
         23    2    4    4    0    0  0.63875617012E+03  0.38999147039E+02  0.37814208348E+03  0.74898652473E+03  0.91972825306E+02 0.  0.
         23    2    4    4    0    0  0.65860608311E+03 -0.33813660648E+03  0.18892528406E+04  0.20312346899E+04  0.92410672015E+02 0.  0.
          2    1    3    3  502    0 -0.68152758792E+03  0.12627885822E+03 -0.42484877090E+02  0.69442866294E+03  0.00000000000E+00 0. -1.
         -1    1    3    3    0  502 -0.61583466532E+03  0.17285860122E+03 -0.91127271650E+02  0.64609334516E+03  0.00000000000E+00 0.  1.
         11    1    5    5    0    0  0.10469977532E+03  0.36820229302E+02  0.46512137307E+02  0.12033765477E+03  0.00000000000E+00 0. -1.
        -11    1    5    5    0    0  0.53405639480E+03  0.21789177371E+01  0.33162994617E+03  0.62864886997E+03  0.00000000000E+00 0.  1.
          3    1    6    6  503    0  0.30495737444E+03 -0.10534133262E+03  0.82880075719E+03  0.88938545733E+03  0.00000000000E+00 0. -1.
         -3    1    6    6    0  503  0.35364870867E+03 -0.23279527386E+03  0.10604520835E+04  0.11418492326E+04  0.00000000000E+00 0.  1.
<mgrwt>
<rscale>  0 0.35252653E+04</rscale>
<asrwt>0</asrwt>
<pdfrwt beam="1">  1        2 0.48111738E+00 0.35252653E+04</pdfrwt>
<pdfrwt beam="2">  1       -1 0.15284311E+00 0.35252653E+04</pdfrwt>
<totfact> 0.44585878E-01</totfact>
</mgrwt>
</event>
<event>
12    6  0.1542110E-007  0.1667182E+04  0.7818608E-02  0.8780306E-01
          2   -1    0    0  501    0  0.00000000000E+00  0.00000000000E+00  0.69435275035E+03  0.69435275035E+03  0.00000000000E+00 0. -1.
         -1   -1    0    0    0  501 -0.00000000000E+00 -0.00000000000E+00 -0.10007510333E+04  0.10007510333E+04  0.00000000000E+00 0.  1.
         24    2    1    2    0    0  0.37766445022E+03  0.34132941413E+03  0.18686246624E+03  0.54814767690E+03  0.80075517422E+02 0.  0.
        254    2    1    2    0    0 -0.37766445022E+03 -0.34132941413E+03 -0.49326074921E+03  0.11469561068E+04  0.90170169028E+03 0.  0.
         23    2    4    4    0    0 -0.39416980523E+03 -0.15858973251E+03  0.15977528596E+03  0.46284339336E+03  0.90417510272E+02 0.  0.
         23    2    4    4    0    0  0.16505355005E+02 -0.18273968162E+03 -0.65303603517E+03  0.68411271342E+03  0.88813982259E+02 0.  0.
          2    1    3    3  502    0  0.55488551437E+02  0.45826105117E+02  0.57856544415E+02  0.92338458848E+02  0.00000000000E+00 0. -1.
         -1    1    3    3    0  502  0.32217589879E+03  0.29550330902E+03  0.12900592182E+03  0.45580921805E+03  0.00000000000E+00 0.  1.
         11    1    5    5    0    0 -0.33169948657E+03 -0.15672032921E+03  0.11014914586E+03  0.38303869950E+03  0.00000000000E+00 0. -1.
        -11    1    5    5    0    0 -0.62470318657E+02 -0.18694033060E+01  0.49626140101E+02  0.79804693866E+02  0.00000000000E+00 0.  1.
          3    1    6    6  503    0  0.44914543283E+02 -0.93486782057E+02 -0.42747638814E+03  0.43987857078E+03  0.00000000000E+00 0. -1.
         -3    1    6    6    0  503 -0.28409188278E+02 -0.89252899564E+02 -0.22555964703E+03  0.24423414264E+03  0.00000000000E+00 0.  1.
<mgrwt>
<rscale>  0 0.16671823E+04</rscale>
<asrwt>0</asrwt>
<pdfrwt beam="1">  1        2 0.10682350E+00 0.16671823E+04</pdfrwt>
<pdfrwt beam="2">  1       -1 0.15396170E+00 0.16671823E+04</pdfrwt>
<totfact> 0.14660411E+01</totfact>
</mgrwt>
</event>
<event>
12    6  0.1542110E-007  0.2528296E+04  0.7818608E-02  0.8392974E-01
          2   -1    0    0  501    0  0.00000000000E+00  0.00000000000E+00  0.18153525712E+04  0.18153525712E+04  0.00000000000E+00 0. -1.
         -1   -1    0    0    0  501 -0.00000000000E+00 -0.00000000000E+00 -0.88030872764E+03  0.88030872764E+03  0.00000000000E+00 0.  1.
         24    2    1    2    0    0 -0.75103634939E+03  0.75941746062E+03  0.11644211314E+03  0.10782348034E+04  0.90890307801E+02 0.  0.
        254    2    1    2    0    0  0.75103634939E+03 -0.75941746062E+03  0.81860173046E+03  0.16174264954E+04  0.89732335168E+03 0.  0.
         23    2    4    4    0    0 -0.73722042854E+02 -0.34375292373E+03  0.53627598001E+03  0.64759274074E+03  0.90462251543E+02 0.  0.
         23    2    4    4    0    0  0.82475839224E+03 -0.41566453689E+03  0.28232575045E+03  0.96983375471E+03  0.88691992875E+02 0.  0.
          2    1    3    3  502    0 -0.20463441573E+03  0.19293969866E+03 -0.82276565617E+01  0.28136926938E+03  0.00000000000E+00 0. -1.
         -1    1    3    3    0  502 -0.54640193366E+03  0.56647776196E+03  0.12466976970E+03  0.79686553406E+03  0.00000000000E+00 0.  1.
         11    1    5    5    0    0 -0.46059814729E+02 -0.67839729447E+02  0.16437445090E+03  0.18369184939E+03  0.00000000000E+00 0. -1.
        -11    1    5    5    0    0 -0.27662228125E+02 -0.27591319428E+03  0.37190152911E+03  0.46390089135E+03  0.00000000000E+00 0.  1.
          2    1    6    6  503    0  0.19863415355E+03 -0.14183021467E+03  0.86444054701E+02  0.25892839037E+03  0.00000000000E+00 0. -1.
         -2    1    6    6    0  503  0.62612423869E+03 -0.27383432222E+03  0.19588169575E+03  0.71090536433E+03  0.00000000000E+00 0.  1.
<mgrwt>
<rscale>  0 0.25282964E+04</rscale>
<asrwt>0</asrwt>
<pdfrwt beam="1">  1        2 0.27928501E+00 0.25282964E+04</pdfrwt>
<pdfrwt beam="2">  1       -1 0.13543211E+00 0.25282964E+04</pdfrwt>
<totfact> 0.39151590E+00</totfact>
</mgrwt>
</event>
<event>
12    6  0.1542110E-007  0.1470772E+04  0.7818608E-02  0.8904125E-01
         -1   -1    0    0    0  501 -0.00000000000E+00  0.00000000000E+00  0.27373089327E+03  0.27373089327E+03  0.00000000000E+00 0.  1.
          2   -1    0    0  501    0  0.00000000000E+00 -0.00000000000E+00 -0.19756363229E+04  0.19756363229E+04  0.00000000000E+00 0. -1.
         24    2    1    2    0    0  0.28696344636E+03  0.96743990040E+02 -0.10440918590E+04  0.10902822396E+04  0.82946565308E+02 0.  0.
        254    2    1    2    0    0 -0.28696344636E+03 -0.96743990040E+02 -0.65781357061E+03  0.11590849766E+04  0.90501484527E+03 0.  0.
         23    2    4    4    0    0 -0.27142770043E+03 -0.31516882656E+03  0.34542448226E+02  0.42715653266E+03  0.90912798142E+02 0.  0.
         23    2    4    4    0    0 -0.15535745933E+02  0.21842483652E+03 -0.69235601884E+03  0.73192844395E+03  0.91714893185E+02 0.  0.
          2    1    3    3  502    0  0.26172291153E+03  0.10886254114E+03 -0.90323745567E+03  0.94667197942E+03  0.00000000000E+00 0. -1.
         -1    1    3    3    0  502  0.25240534826E+02 -0.12118551099E+02 -0.14085440333E+03  0.14361026013E+03  0.00000000000E+00 0.  1.
         11    1    5    5    0    0 -0.17562660689E+03 -0.21073272947E+03  0.65634348728E+02  0.28206534003E+03  0.00000000000E+00 0. -1.
        -11    1    5    5    0    0 -0.95801093537E+02 -0.10443609710E+03 -0.31091900502E+02  0.14509119262E+03  0.00000000000E+00 0.  1.
          3    1    6    6  503    0 -0.18018810048E+02  0.19345123975E+02 -0.18545656127E+03  0.18733138406E+03  0.00000000000E+00 0. -1.
         -3    1    6    6    0  503  0.24830641147E+01  0.19907971255E+03 -0.50689945757E+03  0.54459705989E+03  0.00000000000E+00 0.  1.
<mgrwt>
<rscale>  0 0.14707722E+04</rscale>
<asrwt>0</asrwt>
<pdfrwt beam="1">  1        2 0.30394404E+00 0.14707722E+04</pdfrwt>
<pdfrwt beam="2">  1       -1 0.42112447E-01 0.14707722E+04</pdfrwt>
<totfact> 0.42138309E+01</totfact>
</mgrwt>
</event>
<event>
12    6  0.1542110E-007  0.3003761E+04  0.7818608E-02  0.8242658E-01
         -1   -1    0    0    0  501 -0.00000000000E+00  0.00000000000E+00  0.13264830452E+04  0.13264830452E+04  0.00000000000E+00 0.  1.
          2   -1    0    0  501    0  0.00000000000E+00 -0.00000000000E+00 -0.17004707308E+04  0.17004707308E+04  0.00000000000E+00 0. -1.
         24    2    1    2    0    0  0.84106178358E+03  0.37959061974E+02  0.91402211070E+03  0.12458014501E+04  0.88085300336E+02 0.  0.
        254    2    1    2    0    0 -0.84106178358E+03 -0.37959061974E+02 -0.12880097962E+04  0.17811523259E+04  0.89705549364E+03 0.  0.
         23    2    4    4    0    0 -0.55792913156E+03  0.12826603750E+03 -0.15789141605E+03  0.60071734322E+03  0.90523670693E+02 0.  0.
         23    2    4    4    0    0 -0.28313265202E+03 -0.16622509948E+03 -0.11301183802E+04  0.11804349827E+04  0.92001699928E+02 0.  0.
          2    1    3    3  502    0  0.88988879834E+02 -0.15058145846E+02  0.71078761253E+02  0.11488236937E+03  0.00000000000E+00 0. -1.
         -1    1    3    3    0  502  0.75207290374E+03  0.53017207821E+02  0.84294334944E+03  0.11309190808E+04  0.00000000000E+00 0.  1.
         11    1    5    5    0    0 -0.49204745816E+03  0.14068685334E+03 -0.12939298674E+03  0.52786933687E+03  0.00000000000E+00 0. -1.
        -11    1    5    5    0    0 -0.65881673400E+02 -0.12420815835E+02 -0.28498429312E+02  0.72848006350E+02  0.00000000000E+00 0.  1.
          1    1    6    6  503    0 -0.11678482160E+03 -0.12057416182E+03 -0.59268176329E+03  0.61599390873E+03  0.00000000000E+00 0. -1.
         -1    1    6    6    0  503 -0.16634783042E+03 -0.45650937660E+02 -0.53743661687E+03  0.56444107394E+03  0.00000000000E+00 0.  1.
<mgrwt>
<rscale>  0 0.30037614E+04</rscale>
<asrwt>0</asrwt>
<pdfrwt beam="1">  1        2 0.26161088E+00 0.30037614E+04</pdfrwt>
<pdfrwt beam="2">  1       -1 0.20407432E+00 0.30037614E+04</pdfrwt>
<totfact> 0.13470192E+00</totfact>
</mgrwt>
</event>
<event>
12    6  0.1542110E-007  0.1254440E+04  0.7818608E-02  0.9066496E-01
         -1   -1    0    0    0  501 -0.00000000000E+00  0.00000000000E+00  0.23602308029E+03  0.23602308029E+03  0.00000000000E+00 0.  1.
          2   -1    0    0  501    0  0.00000000000E+00 -0.00000000000E+00 -0.16668083179E+04  0.16668083179E+04  0.00000000000E+00 0. -1.
         24    2    1    2    0    0  0.50516999684E+02 -0.13429357092E+03  0.21629885699E+02  0.16559831859E+03  0.79801132289E+02 0.  0.
        254    2    1    2    0    0 -0.50516999684E+02  0.13429357092E+03 -0.14524151233E+04  0.17372330796E+04  0.94227509359E+03 0.  0.
         23    2    4    4    0    0  0.89910887100E+02  0.44109371214E+03 -0.33978014946E+03  0.57112842913E+03  0.89941659287E+02 0.  0.
         23    2    4    4    0    0 -0.14042788678E+03 -0.30680014122E+03 -0.11126349739E+04  0.11661046505E+04  0.89426801310E+02 0.  0.
          2    1    3    3  502    0 -0.64932052053E+01 -0.94317029169E+02  0.11565652568E+02  0.95245094490E+02  0.00000000000E+00 0. -1.
         -1    1    3    3    0  502  0.57010204889E+02 -0.39976541755E+02  0.10064233132E+02  0.70353224096E+02  0.00000000000E+00 0.  1.
         11    1    5    5    0    0 -0.29616753359E+01  0.15282376685E+03 -0.82245865102E+02  0.17357493356E+03  0.00000000000E+00 0. -1.
        -11    1    5    5    0    0  0.92872562436E+02  0.28826994529E+03 -0.25753428436E+03  0.39755349556E+03  0.00000000000E+00 0.  1.
          3    1    6    6  503    0 -0.12361800617E+03 -0.29399911327E+03 -0.10873276863E+04  0.11331365264E+04  0.00000000000E+00 0. -1.
         -3    1    6    6    0  503 -0.16809880617E+02 -0.12801027952E+02 -0.25307287586E+02  0.32968124119E+02  0.00000000000E+00 0.  1.
<mgrwt>
<rscale>  0 0.12544405E+04</rscale>
<asrwt>0</asrwt>
<pdfrwt beam="1">  1        2 0.25643205E+00 0.12544405E+04</pdfrwt>
<pdfrwt beam="2">  1       -1 0.36311243E-01 0.12544405E+04</pdfrwt>
<totfact> 0.83237844E+01</totfact>
</mgrwt>
</event>
<event>
12    6  0.1542110E-007  0.2593850E+04  0.7818608E-02  0.8370293E-01
          2   -1    0    0  501    0  0.00000000000E+00  0.00000000000E+00  0.16867690986E+04  0.16867690986E+04  0.00000000000E+00 0. -1.
         -1   -1    0    0    0  501 -0.00000000000E+00 -0.00000000000E+00 -0.99718098351E+03  0.99718098351E+03  0.00000000000E+00 0.  1.
         24    2    1    2    0    0 -0.39921269384E+03 -0.80165964047E+03 -0.42648667561E+03  0.99518621637E+03  0.80472148526E+02 0.  0.
        254    2    1    2    0    0  0.39921269384E+03  0.80165964047E+03  0.11160747907E+04  0.16887638658E+04  0.89681185416E+03 0.  0.
         23    2    4    4    0    0 -0.87780971693E+02  0.24633774914E+02 -0.10058240482E+03  0.16245066427E+03  0.89224863709E+02 0.  0.
         23    2    4    4    0    0  0.48699366553E+03  0.77702586556E+03  0.12166571956E+04  0.15263132015E+04  0.91897941184E+02 0.  0.
          4    1    3    3  502    0 -0.44736238594E+02 -0.80108648628E+02 -0.71758466514E+02  0.11648177602E+03  0.00000000000E+00 0. -1.
         -3    1    3    3    0  502 -0.35447645524E+03 -0.72155099185E+03 -0.35472820910E+03  0.87870444035E+03  0.00000000000E+00 0.  1.
         11    1    5    5    0    0 -0.86777578486E+01  0.32487639582E+02  0.77982183569E+00  0.33635670485E+02  0.00000000000E+00 0.  1.
        -11    1    5    5    0    0 -0.79103213844E+02 -0.78538646681E+01 -0.10136222665E+03  0.12881499378E+03  0.00000000000E+00 0. -1.
          3    1    6    6  503    0  0.29065082829E+03  0.44057091840E+03  0.62674261845E+03  0.81938205247E+03  0.00000000000E+00 0. -1.
         -3    1    6    6    0  503  0.19634283723E+03  0.33645494716E+03  0.58991457711E+03  0.70693114904E+03  0.00000000000E+00 0.  1.
<mgrwt>
<rscale>  0 0.25938497E+04</rscale>
<asrwt>0</asrwt>
<pdfrwt beam="1">  1        2 0.25950294E+00 0.25938497E+04</pdfrwt>
<pdfrwt beam="2">  1       -1 0.15341246E+00 0.25938497E+04</pdfrwt>
<totfact> 0.32989470E+00</totfact>
</mgrwt>
</event>
<event>
12    6  0.1542110E-007  0.1951506E+04  0.7818608E-02  0.8629635E-01
          2   -1    0    0  501    0  0.00000000000E+00  0.00000000000E+00  0.89520410665E+03  0.89520410665E+03  0.00000000000E+00 0. -1.
         -1   -1    0    0    0  501 -0.00000000000E+00 -0.00000000000E+00 -0.10635491162E+04  0.10635491162E+04  0.00000000000E+00 0.  1.
         24    2    1    2    0    0  0.39948374560E+02  0.60933903929E+03 -0.52529387806E+03  0.80953657710E+03  0.80782881200E+02 0.  0.
        254    2    1    2    0    0 -0.39948374560E+02 -0.60933903929E+03  0.35694886848E+03  0.11492166458E+04  0.90575739955E+03 0.  0.
         23    2    4    4    0    0 -0.17259771607E+03  0.19146378352E+03  0.10748718379E+03  0.29513824176E+03  0.95418735484E+02 0.  0.
         23    2    4    4    0    0  0.13264934150E+03 -0.80080282281E+03  0.24946168469E+03  0.85407840403E+03  0.91311441177E+02 0.  0.
          4    1    3    3  502    0  0.32912976612E+02  0.11575929909E+03 -0.12985594868E+03  0.17704814815E+03  0.00000000000E+00 0. -1.
         -3    1    3    3    0  502  0.70353979485E+01  0.49357974019E+03 -0.39543792939E+03  0.63248842895E+03  0.00000000000E+00 0.  1.
         11    1    5    5    0    0 -0.83619645276E+02  0.54685924857E+02  0.30947590413E+00  0.99914419524E+02  0.00000000000E+00 0.  1.
        -11    1    5    5    0    0 -0.88978070790E+02  0.13677785866E+03  0.10717770789E+03  0.19522382224E+03  0.00000000000E+00 0. -1.
          3    1    6    6  503    0  0.85016418465E+02 -0.64316991800E+03  0.22968440122E+03  0.68822253595E+03  0.00000000000E+00 0. -1.
         -3    1    6    6    0  503  0.47632923040E+02 -0.15763290481E+03  0.19777283467E+02  0.16585586808E+03  0.00000000000E+00 0.  1.
<mgrwt>
<rscale>  0 0.19515056E+04</rscale>
<asrwt>0</asrwt>
<pdfrwt beam="1">  1        2 0.13772371E+00 0.19515056E+04</pdfrwt>
<pdfrwt beam="2">  1       -1 0.16362294E+00 0.19515056E+04</pdfrwt>
<totfact> 0.86279747E+00</totfact>
</mgrwt>
</event>
<event>
12    6  0.1542110E-007  0.1765736E+04  0.7818608E-02  0.8724736E-01
          2   -1    0    0  501    0  0.00000000000E+00  0.00000000000E+00  0.25685300950E+04  0.25685300950E+04  0.00000000000E+00 0. -1.
         -1   -1    0    0    0  501 -0.00000000000E+00 -0.00000000000E+00 -0.30346371856E+03  0.30346371856E+03  0.00000000000E+00 0.  1.
         24    2    1    2    0    0  0.61828482375E+03  0.58469889355E+02  0.11574118831E+04  0.13159415713E+04  0.80031873110E+02 0.  0.
        254    2    1    2    0    0 -0.61828482375E+03 -0.58469889355E+02  0.11076544934E+04  0.15560522423E+04  0.89928040831E+03 0.  0.
         23    2    4    4    0    0 -0.14989964128E+03  0.21499060686E+03 -0.43055396140E+02  0.28055078477E+03  0.90355476908E+02 0.  0.
         23    2    4    4    0    0 -0.46838518247E+03 -0.27346049621E+03  0.11507098895E+04  0.12755014575E+04  0.92765274386E+02 0.  0.
          2    1    3    3  502    0  0.44929851619E+03  0.58753610692E+02  0.90632568432E+03  0.10132854432E+04  0.00000000000E+00 0. -1.
         -1    1    3    3    0  502  0.16898630756E+03 -0.28372133673E+00  0.25108619879E+03  0.30265612808E+03  0.00000000000E+00 0.  1.
         11    1    5    5    0    0 -0.63274921764E+02  0.89573258336E+02 -0.63555882496E+02  0.12675343993E+03  0.00000000000E+00 0.  1.
        -11    1    5    5    0    0 -0.86624719513E+02  0.12541734852E+03  0.20500486356E+02  0.15379734485E+03  0.00000000000E+00 0. -1.
          3    1    6    6  503    0 -0.23464586144E+03 -0.13232352859E+03  0.46447412049E+03  0.53693985242E+03  0.00000000000E+00 0. -1.
         -3    1    6    6    0  503 -0.23373932103E+03 -0.14113696762E+03  0.68623576901E+03  0.73856160508E+03  0.00000000000E+00 0.  1.
<mgrwt>
<rscale>  0 0.17657358E+04</rscale>
<asrwt>0</asrwt>
<pdfrwt beam="1">  1        2 0.39515846E+00 0.17657358E+04</pdfrwt>
<pdfrwt beam="2">  1       -1 0.46686728E-01 0.17657358E+04</pdfrwt>
<totfact> 0.15668984E+01</totfact>
</mgrwt>
</event>
<event>
12    6  0.1542110E-007  0.1282421E+04  0.7818608E-02  0.9043623E-01
         -1   -1    0    0    0  501 -0.00000000000E+00  0.00000000000E+00  0.52267149244E+03  0.52267149244E+03  0.00000000000E+00 0.  1.
          2   -1    0    0  501    0  0.00000000000E+00 -0.00000000000E+00 -0.78663362700E+03  0.78663362700E+03  0.00000000000E+00 0. -1.
         24    2    1    2    0    0  0.13135205613E+03  0.92990477180E+01 -0.35909892585E+03  0.39054912451E+03  0.78973066116E+02 0.  0.
        254    2    1    2    0    0 -0.13135205613E+03 -0.92990477180E+01  0.95136791290E+02  0.91875599492E+03  0.90427967698E+03 0.  0.
         23    2    4    4    0    0  0.31148548110E+03  0.22530697228E+03  0.10884533722E+03  0.40977756084E+03  0.91015961443E+02 0.  0.
         23    2    4    4    0    0 -0.44283753724E+03 -0.23460602000E+03 -0.13708545931E+02  0.50897843408E+03  0.87897969956E+02 0.  0.
          2    1    3    3  502    0  0.81994332489E+02 -0.32885184942E+02 -0.19533140673E+03  0.21438018659E+03  0.00000000000E+00 0. -1.
         -1    1    3    3    0  502  0.49357723645E+02  0.42184232660E+02 -0.16376751912E+03  0.17616893792E+03  0.00000000000E+00 0.  1.
         11    1    5    5    0    0  0.16627108359E+03  0.66360836970E+02  0.61914776004E+02  0.18942880829E+03  0.00000000000E+00 0.  1.
        -11    1    5    5    0    0  0.14521439751E+03  0.15894613531E+03  0.46930561217E+02  0.22034875255E+03  0.00000000000E+00 0. -1.
          1    1    6    6  503    0 -0.32909972904E+03 -0.20614789117E+03 -0.34656543620E+02  0.38987775097E+03  0.00000000000E+00 0. -1.
         -1    1    6    6    0  503 -0.11373780820E+03 -0.28458128832E+02  0.20947997689E+02  0.11910068311E+03  0.00000000000E+00 0.  1.
<mgrwt>
<rscale>  0 0.12824211E+04</rscale>
<asrwt>0</asrwt>
<pdfrwt beam="1">  1        2 0.12102056E+00 0.12824211E+04</pdfrwt>
<pdfrwt beam="2">  1       -1 0.80410999E-01 0.12824211E+04</pdfrwt>
<totfact> 0.60924201E+01</totfact>
</mgrwt>
</event>
<event>
12    6  0.1542110E-007  0.4617054E+04  0.7818608E-02  0.7890458E-01
          2   -1    0    0  501    0  0.00000000000E+00  0.00000000000E+00  0.37837049500E+04  0.37837049500E+04  0.00000000000E+00 0. -1.
         -1   -1    0    0    0  501 -0.00000000000E+00 -0.00000000000E+00 -0.14084866883E+04  0.14084866883E+04  0.00000000000E+00 0.  1.
         24    2    1    2    0    0 -0.14094947492E+04 -0.15182850803E+04  0.26896393876E+03  0.20904803773E+04  0.76821704591E+02 0.  0.
        254    2    1    2    0    0  0.14094947492E+04  0.15182850803E+04  0.21062543229E+04  0.31017112610E+04  0.94469065887E+03 0.  0.
         23    2    4    4    0    0  0.90298805552E+02  0.65328098100E+03  0.86931471520E+03  0.10949736020E+04  0.91264454074E+02 0.  0.
         23    2    4    4    0    0  0.13191959436E+04  0.86500409929E+03  0.12369396077E+04  0.20067376591E+04  0.92013094439E+02 0.  0.
          4    1    3    3  502    0 -0.58615697827E+01 -0.10733509576E+02  0.69139732561E+01  0.14048816830E+02  0.00000000000E+00 0. -1.
         -3    1    3    3    0  502 -0.14036331794E+04 -0.15075515707E+04  0.26204996550E+03  0.20764315604E+04  0.00000000000E+00 0.  1.
         11    1    5    5    0    0  0.71758768670E+02  0.32032923221E+03  0.37105501489E+03  0.49542099467E+03  0.00000000000E+00 0. -1.
        -11    1    5    5    0    0  0.18540036882E+02  0.33295174879E+03  0.49825970030E+03  0.59955260732E+03  0.00000000000E+00 0.  1.
          1    1    6    6  503    0  0.18105438811E+03  0.11908259988E+03  0.21174113953E+03  0.30297799791E+03  0.00000000000E+00 0. -1.
         -1    1    6    6    0  503  0.11381415555E+04  0.74592149941E+03  0.10251984682E+04  0.17037596611E+04  0.00000000000E+00 0.  1.
<mgrwt>
<rscale>  0 0.46170545E+04</rscale>
<asrwt>0</asrwt>
<pdfrwt beam="1">  1        2 0.58210845E+00 0.46170545E+04</pdfrwt>
<pdfrwt beam="2">  1       -1 0.21669026E+00 0.46170545E+04</pdfrwt>
<totfact> 0.49697960E-02</totfact>
</mgrwt>
</event>
<event>
12    6  0.1542110E-007  0.1931241E+04  0.7818608E-02  0.8639460E-01
         -1   -1    0    0    0  501 -0.00000000000E+00  0.00000000000E+00  0.34747871292E+03  0.34747871292E+03  0.00000000000E+00 0.  1.
          2   -1    0    0  501    0  0.00000000000E+00 -0.00000000000E+00 -0.26833963386E+04  0.26833963386E+04  0.00000000000E+00 0. -1.
         24    2    1    2    0    0 -0.11677397246E+03  0.46387230688E+03 -0.22938777706E+01  0.48466719796E+03  0.77995853502E+02 0.  0.
        254    2    1    2    0    0  0.11677397246E+03 -0.46387230688E+03 -0.23336237479E+04  0.25462078536E+04  0.89920017741E+03 0.  0.
         23    2    4    4    0    0  0.75206654483E+01  0.23924773615E+03 -0.33054021859E+03  0.41848024874E+03  0.92589647474E+02 0.  0.
         23    2    4    4    0    0  0.10925330701E+03 -0.70312004304E+03 -0.20030835294E+04  0.21277276049E+04  0.92558386408E+02 0.  0.
          2    1    3    3  502    0 -0.25696211848E+02  0.17146260923E+03 -0.34286916594E+02  0.17673515303E+03  0.00000000000E+00 0. -1.
         -1    1    3    3    0  502 -0.91077760607E+02  0.29240969766E+03  0.31993038824E+02  0.30793204493E+03  0.00000000000E+00 0.  1.
         11    1    5    5    0    0  0.14342376736E+02  0.86659803863E+01 -0.63144684511E+02  0.65330346460E+02  0.00000000000E+00 0. -1.
        -11    1    5    5    0    0 -0.68217112876E+01  0.23058175577E+03 -0.26739553408E+03  0.35314990228E+03  0.00000000000E+00 0.  1.
          4    1    6    6  503    0  0.44164974747E+02 -0.24268399597E+03 -0.56993122259E+03  0.62102146934E+03  0.00000000000E+00 0. -1.
         -4    1    6    6    0  503  0.65088332260E+02 -0.46043604707E+03 -0.14331523068E+04  0.15067061355E+04  0.00000000000E+00 0.  1.
<mgrwt>
<rscale>  0 0.19312412E+04</rscale>
<asrwt>0</asrwt>
<pdfrwt beam="1">  1        2 0.41283021E+00 0.19312412E+04</pdfrwt>
<pdfrwt beam="2">  1       -1 0.53458263E-01 0.19312412E+04</pdfrwt>
<totfact> 0.10213499E+01</totfact>
</mgrwt>
</event>
<event>
12    6  0.1542110E-007  0.1587811E+04  0.7818608E-02  0.8828071E-01
         -1   -1    0    0    0  501 -0.00000000000E+00  0.00000000000E+00  0.46267609312E+03  0.46267609312E+03  0.00000000000E+00 0.  1.
          2   -1    0    0  501    0  0.00000000000E+00 -0.00000000000E+00 -0.13622615698E+04  0.13622615698E+04  0.00000000000E+00 0. -1.
         24    2    1    2    0    0 -0.32462800330E+03 -0.39315015289E+03 -0.14369926002E+03  0.53546662569E+03  0.78260121775E+02 0.  0.
        254    2    1    2    0    0  0.32462800330E+03  0.39315015289E+03 -0.75588621668E+03  0.12894710372E+04  0.91182300919E+03 0.  0.
         23    2    4    4    0    0  0.35712942833E+03 -0.20425085777E+03 -0.20380816726E+03  0.46882080087E+03  0.94843728341E+02 0.  0.
         23    2    4    4    0    0 -0.32501425037E+02  0.59740101066E+03 -0.55207804942E+03  0.82065023637E+03  0.10359694804E+03 0.  0.
          2    1    3    3  502    0 -0.26663732360E+03 -0.33454732297E+03 -0.90278405499E+02  0.43722713107E+03  0.00000000000E+00 0. -1.
         -1    1    3    3    0  502 -0.57990679697E+02 -0.58602829914E+02 -0.53420854523E+02  0.98239494622E+02  0.00000000000E+00 0.  1.
         11    1    5    5    0    0  0.29346557470E+03 -0.15290250788E+03 -0.20060523190E+03  0.38696728481E+03  0.00000000000E+00 0. -1.
        -11    1    5    5    0    0  0.63663853637E+02 -0.51348349888E+02 -0.32029353560E+01  0.81853516058E+02  0.00000000000E+00 0.  1.
          1    1    6    6  503    0  0.19974909386E+02  0.17918331248E+03 -0.11726198326E+03  0.21507214881E+03  0.00000000000E+00 0. -1.
         -1    1    6    6    0  503 -0.52476334424E+02  0.41821769818E+03 -0.43481606616E+03  0.60557808756E+03  0.00000000000E+00 0.  1.
<mgrwt>
<rscale>  0 0.15878109E+04</rscale>
<asrwt>0</asrwt>
<pdfrwt beam="1">  1        2 0.20957870E+00 0.15878109E+04</pdfrwt>
<pdfrwt beam="2">  1       -1 0.71180939E-01 0.15878109E+04</pdfrwt>
<totfact> 0.33173158E+01</totfact>
</mgrwt>
</event>
<event>
12    6  0.1542110E-007  0.2142267E+04  0.7818608E-02  0.8542850E-01
          2   -1    0    0  501    0  0.00000000000E+00  0.00000000000E+00  0.25412460221E+04  0.25412460221E+04  0.00000000000E+00 0. -1.
         -1   -1    0    0    0  501 -0.00000000000E+00 -0.00000000000E+00 -0.45148216044E+03  0.45148216044E+03  0.00000000000E+00 0.  1.
         24    2    1    2    0    0 -0.11685340342E+03  0.60336113621E+03  0.17523654966E+04  0.18587718329E+04  0.80922893440E+02 0.  0.
        254    2    1    2    0    0  0.11685340342E+03 -0.60336113621E+03  0.33739836510E+03  0.11339563496E+04  0.89124630014E+03 0.  0.
         23    2    4    4    0    0  0.42537807143E+03 -0.31387193549E+03 -0.68385928392E+02  0.54068815839E+03  0.90581200484E+02 0.  0.
         23    2    4    4    0    0 -0.30852466801E+03 -0.28948920073E+03  0.40578429349E+03  0.59326819124E+03  0.91185447198E+02 0.  0.
          4    1    3    3  502    0 -0.97080613419E+02  0.41319275442E+03  0.13041583303E+04  0.13714889165E+04  0.00000000000E+00 0. -1.
         -3    1    3    3    0  502 -0.19772790001E+02  0.19016838179E+03  0.44820716633E+03  0.48728291639E+03  0.00000000000E+00 0.  1.
         11    1    5    5    0    0  0.37625636956E+03 -0.24577367956E+03 -0.78140457993E+02  0.45615730662E+03  0.00000000000E+00 0. -1.
        -11    1    5    5    0    0  0.49121701870E+02 -0.68098255923E+02  0.97545296013E+01  0.84530851776E+02  0.00000000000E+00 0.  1.
          4    1    6    6  503    0 -0.19246676237E+03 -0.16344765393E+03  0.18121290050E+03  0.31080010538E+03  0.00000000000E+00 0. -1.
         -4    1    6    6    0  503 -0.11605790564E+03 -0.12604154680E+03  0.22457139299E+03  0.28246808586E+03  0.00000000000E+00 0.  1.
<mgrwt>
<rscale>  0 0.21422673E+04</rscale>
<asrwt>0</asrwt>
<pdfrwt beam="1">  1        2 0.39096092E+00 0.21422673E+04</pdfrwt>
<pdfrwt beam="2">  1       -1 0.69458795E-01 0.21422673E+04</pdfrwt>
<totfact> 0.72196583E+00</totfact>
</mgrwt>
</event>
<event>
12    6  0.1542110E-007  0.1434508E+04  0.7818608E-02  0.8929212E-01
         -1   -1    0    0    0  501 -0.00000000000E+00  0.00000000000E+00  0.58749893354E+03  0.58749893354E+03  0.00000000000E+00 0.  1.
          2   -1    0    0  501    0  0.00000000000E+00 -0.00000000000E+00 -0.87566656361E+03  0.87566656361E+03  0.00000000000E+00 0. -1.
         24    2    1    2    0    0 -0.18676452686E+03  0.31287566881E+03 -0.32405934023E+03  0.49385768399E+03  0.78158706624E+02 0.  0.
        254    2    1    2    0    0  0.18676452686E+03 -0.31287566881E+03  0.35891710158E+02  0.96930781316E+03  0.89749498560E+03 0.  0.
         23    2    4    4    0    0  0.19617601122E+03  0.27697295997E+03 -0.80744301752E+02  0.36071345722E+03  0.91627004871E+02 0.  0.
         23    2    4    4    0    0 -0.94114843602E+01 -0.58984862877E+03  0.11663601191E+03  0.60859435594E+03  0.93665094376E+02 0.  0.
          2    1    3    3  502    0 -0.16300967137E+03  0.25614780139E+03 -0.30275656872E+03  0.42877195457E+03  0.00000000000E+00 0. -1.
         -1    1    3    3    0  502 -0.23754855489E+02  0.56727867413E+02 -0.21302771509E+02  0.65085729423E+02  0.00000000000E+00 0.  1.
         11    1    5    5    0    0  0.32437519767E+02  0.72980258088E+02 -0.56878803031E+02  0.98048503269E+02  0.00000000000E+00 0.  1.
        -11    1    5    5    0    0  0.16373849146E+03  0.20399270188E+03 -0.23865498721E+02  0.26266495395E+03  0.00000000000E+00 0. -1.
          3    1    6    6  503    0 -0.37224742578E+02 -0.29038208736E+03  0.23277363785E+02  0.29368226672E+03  0.00000000000E+00 0. -1.
         -3    1    6    6    0  503  0.27813258218E+02 -0.29946654141E+03  0.93358648125E+02  0.31491208922E+03  0.00000000000E+00 0.  1.
<mgrwt>
<rscale>  0 0.14345078E+04</rscale>
<asrwt>0</asrwt>
<pdfrwt beam="1">  1        2 0.13471793E+00 0.14345078E+04</pdfrwt>
<pdfrwt beam="2">  1       -1 0.90384452E-01 0.14345078E+04</pdfrwt>
<totfact> 0.40411218E+01</totfact>
</mgrwt>
</event>
<event>
12    6  0.1542110E-007  0.1738005E+04  0.7818608E-02  0.8739980E-01
          2   -1    0    0  501    0  0.00000000000E+00  0.00000000000E+00  0.17833415190E+04  0.17833415190E+04  0.00000000000E+00 0. -1.
         -1   -1    0    0    0  501 -0.00000000000E+00 -0.00000000000E+00 -0.42345549214E+03  0.42345549214E+03  0.00000000000E+00 0.  1.
         24    2    1    2    0    0  0.17493013740E+03 -0.51088879291E+03  0.91581496559E+03  0.10661743967E+04  0.80018005970E+02 0.  0.
        254    2    1    2    0    0 -0.17493013740E+03  0.51088879291E+03  0.44407106131E+03  0.11406226145E+04  0.90122856674E+03 0.  0.
         23    2    4    4    0    0 -0.43789217024E+03  0.49800465531E+03  0.68804485124E+02  0.67293264099E+03  0.91356951951E+02 0.  0.
         23    2    4    4    0    0  0.26296203284E+03  0.12884137594E+02  0.37526657619E+03  0.46768997350E+03  0.92703162823E+02 0.  0.
          2    1    3    3  502    0  0.12740068866E+03 -0.44970326141E+03  0.80721809899E+03  0.93277275804E+03  0.00000000000E+00 0. -1.
         -1    1    3    3    0  502  0.47529448736E+02 -0.61185531500E+02  0.10859686660E+03  0.13340163866E+03  0.00000000000E+00 0.  1.
         11    1    5    5    0    0 -0.33882284318E+03  0.43522912763E+03  0.67134735056E+02  0.55563691854E+03  0.00000000000E+00 0. -1.
        -11    1    5    5    0    0 -0.99069327055E+02  0.62775527687E+02  0.16697500677E+01  0.11729572245E+03  0.00000000000E+00 0.  1.
          4    1    6    6  503    0  0.14804361214E+03  0.47295952147E+02  0.24902382156E+03  0.29354161867E+03  0.00000000000E+00 0. -1.
         -4    1    6    6    0  503  0.11491842070E+03 -0.34411814552E+02  0.12624275462E+03  0.17414835484E+03  0.00000000000E+00 0.  1.
<mgrwt>
<rscale>  0 0.17380055E+04</rscale>
<asrwt>0</asrwt>
<pdfrwt beam="1">  1        2 0.27436023E+00 0.17380055E+04</pdfrwt>
<pdfrwt beam="2">  1       -1 0.65147000E-01 0.17380055E+04</pdfrwt>
<totfact> 0.22752813E+01</totfact>
</mgrwt>
</event>
<event>
12    6  0.1542110E-007  0.3529437E+04  0.7818608E-02  0.8106849E-01
          2   -1    0    0  501    0  0.00000000000E+00  0.00000000000E+00  0.22296394853E+04  0.22296394853E+04  0.00000000000E+00 0. -1.
         -1   -1    0    0    0  501 -0.00000000000E+00 -0.00000000000E+00 -0.13967421043E+04  0.13967421043E+04  0.00000000000E+00 0.  1.
         24    2    1    2    0    0 -0.13627008520E+04 -0.40182376490E+03  0.12402918832E+04  0.18874404183E+04  0.75441548201E+02 0.  0.
        254    2    1    2    0    0  0.13627008520E+04  0.40182376490E+03 -0.40739450223E+03  0.17389411712E+04  0.91625878793E+03 0.  0.
         23    2    4    4    0    0  0.91608517402E+03 -0.54783477143E+02 -0.55638545159E+03  0.10769058870E+04  0.89152920987E+02 0.  0.
         23    2    4    4    0    0  0.44661567799E+03  0.45660724204E+03  0.14899094936E+03  0.66203528422E+03  0.90203532345E+02 0.  0.
          2    1    3    3  502    0 -0.85916381149E+03 -0.21706194969E+03  0.78746164545E+03  0.11854847903E+04  0.00000000000E+00 0. -1.
         -1    1    3    3    0  502 -0.50353704052E+03 -0.18476181521E+03  0.45283023773E+03  0.70195562805E+03  0.00000000000E+00 0.  1.
         11    1    5    5    0    0  0.51163854782E+03 -0.25000192933E+02 -0.25893908392E+03  0.57397601208E+03  0.00000000000E+00 0. -1.
        -11    1    5    5    0    0  0.40444662620E+03 -0.29783284210E+02 -0.29744636767E+03  0.50292987494E+03  0.00000000000E+00 0.  1.
          4    1    6    6  503    0  0.19389921938E+02 -0.36171603053E+00  0.26586230671E+01  0.19574682318E+02  0.00000000000E+00 0. -1.
         -4    1    6    6    0  503  0.42722575606E+03  0.45696895807E+03  0.14633232629E+03  0.64246060190E+03  0.00000000000E+00 0.  1.
<mgrwt>
<rscale>  0 0.35294370E+04</rscale>
<asrwt>0</asrwt>
<pdfrwt beam="1">  1        2 0.34302146E+00 0.35294370E+04</pdfrwt>
<pdfrwt beam="2">  1       -1 0.21488340E+00 0.35294370E+04</pdfrwt>
<totfact> 0.55171043E-01</totfact>
</mgrwt>
</event>
<event>
12    6  0.1542110E-007  0.1403524E+04  0.7818608E-02  0.8951272E-01
         -1   -1    0    0    0  501 -0.00000000000E+00  0.00000000000E+00  0.14598286550E+03  0.14598286550E+03  0.00000000000E+00 0.  1.
          2   -1    0    0  501    0  0.00000000000E+00 -0.00000000000E+00 -0.33734767991E+04  0.33734767991E+04  0.00000000000E+00 0. -1.
         24    2    1    2    0    0  0.23976929954E+03  0.47012194601E+02 -0.17637256420E+04  0.17822690987E+04  0.77817329184E+02 0.  0.
        254    2    1    2    0    0 -0.23976929954E+03 -0.47012194601E+02 -0.14637682917E+04  0.17371905659E+04  0.90305813054E+03 0.  0.
         23    2    4    4    0    0  0.21280632498E+03  0.93773955645E+02 -0.64679681543E+02  0.25676048043E+03  0.87535115206E+02 0.  0.
         23    2    4    4    0    0 -0.45257562453E+03 -0.14078615025E+03 -0.13990886101E+04  0.14804300855E+04  0.97871665900E+02 0.  0.
          2    1    3    3  502    0  0.17116451011E+03  0.68301719021E+02 -0.12290136026E+04  0.12427537365E+04  0.00000000000E+00 0. -1.
         -1    1    3    3    0  502  0.68604789436E+02 -0.21289524420E+02 -0.53471203939E+03  0.53951536220E+03  0.00000000000E+00 0.  1.
         11    1    5    5    0    0  0.66812743621E+02  0.75048557038E+02 -0.36458265561E+02  0.10688982062E+03  0.00000000000E+00 0. -1.
        -11    1    5    5    0    0  0.14599358136E+03  0.18725398607E+02 -0.28221415982E+02  0.14987065981E+03  0.00000000000E+00 0.  1.
          1    1    6    6  503    0 -0.79728991072E+02 -0.30842281960E+02 -0.15479551311E+03  0.17683214994E+03  0.00000000000E+00 0. -1.
         -1    1    6    6    0  503 -0.37284663345E+03 -0.10994386829E+03 -0.12442930970E+04  0.13035979355E+04  0.00000000000E+00 0.  1.
<mgrwt>
<rscale>  0 0.14035239E+04</rscale>
<asrwt>0</asrwt>
<pdfrwt beam="1">  1        2 0.51899637E+00 0.14035239E+04</pdfrwt>
<pdfrwt beam="2">  1       -1 0.22458905E-01 0.14035239E+04</pdfrwt>
<totfact> 0.18802704E+01</totfact>
</mgrwt>
</event>
<event>
12    6  0.1542110E-007  0.1165464E+04  0.7818608E-02  0.9143635E-01
         -1   -1    0    0    0  501 -0.00000000000E+00  0.00000000000E+00  0.22279597045E+03  0.22279597045E+03  0.00000000000E+00 0.  1.
          2   -1    0    0  501    0  0.00000000000E+00 -0.00000000000E+00 -0.15241597267E+04  0.15241597267E+04  0.00000000000E+00 0. -1.
         24    2    1    2    0    0 -0.22371869258E+03 -0.34243872873E+02 -0.23649768076E+03  0.33693816500E+03  0.79834064101E+02 0.  0.
        254    2    1    2    0    0  0.22371869258E+03  0.34243872873E+02 -0.10648660755E+04  0.14100175322E+04  0.89609541123E+03 0.  0.
         23    2    4    4    0    0  0.55168050658E+03 -0.30131199185E+02 -0.51775551836E+03  0.76274220419E+03  0.91900069327E+02 0.  0.
         23    2    4    4    0    0 -0.32796181401E+03  0.64375072057E+02 -0.54711055713E+03  0.64727532797E+03  0.89063388271E+02 0.  0.
          2    1    3    3  502    0 -0.19561695126E+03 -0.45986312347E+02 -0.23067954472E+03  0.30593101329E+03  0.00000000000E+00 0. -1.
         -1    1    3    3    0  502 -0.28101741315E+02  0.11742439474E+02 -0.58181360389E+01  0.31007151703E+02  0.00000000000E+00 0.  1.
         11    1    5    5    0    0  0.14392764520E+02  0.11004059802E+02 -0.34319396402E+02  0.38808014276E+02  0.00000000000E+00 0. -1.
        -11    1    5    5    0    0  0.53728774206E+03 -0.41135258986E+02 -0.48343612196E+03  0.72393418991E+03  0.00000000000E+00 0.  1.
          1    1    6    6  503    0 -0.26189233676E+02  0.29632704391E+02 -0.91556060805E+02  0.99732068064E+02  0.00000000000E+00 0. -1.
         -1    1    6    6    0  503 -0.30177258033E+03  0.34742367666E+02 -0.45555449632E+03  0.54754325991E+03  0.00000000000E+00 0.  1.
<mgrwt>
<rscale>  0 0.11654641E+04</rscale>
<asrwt>0</asrwt>
<pdfrwt beam="1">  1        2 0.23448611E+00 0.11654641E+04</pdfrwt>
<pdfrwt beam="2">  1       -1 0.34276303E-01 0.11654641E+04</pdfrwt>
<totfact> 0.11160152E+02</totfact>
</mgrwt>
</event>
<event>
12    6  0.1542110E-007  0.2043097E+04  0.7818608E-02  0.8586732E-01
         -1   -1    0    0    0  501 -0.00000000000E+00  0.00000000000E+00  0.56025895581E+03  0.56025895581E+03  0.00000000000E+00 0.  1.
          2   -1    0    0  501    0  0.00000000000E+00 -0.00000000000E+00 -0.18626405889E+04  0.18626405889E+04  0.00000000000E+00 0. -1.
         24    2    1    2    0    0 -0.66175602399E+03 -0.56175173641E+02 -0.11047895070E+04  0.12927277451E+04  0.97511449206E+02 0.  0.
        254    2    1    2    0    0  0.66175602399E+03  0.56175173641E+02 -0.19759212610E+03  0.11301717996E+04  0.89284319058E+03 0.  0.
         23    2    4    4    0    0 -0.54559330860E+02 -0.29107276357E+03 -0.28209433185E+02  0.31130418966E+03  0.91730322714E+02 0.  0.
         23    2    4    4    0    0  0.71631535485E+03  0.34724793721E+03 -0.16938269291E+03  0.81886760997E+03  0.90359551277E+02 0.  0.
          4    1    3    3  502    0 -0.52738952528E+03 -0.62112159657E+02 -0.94389717947E+03  0.10830233225E+04  0.00000000000E+00 0. -1.
         -3    1    3    3    0  502 -0.13436649871E+03  0.59369860157E+01 -0.16089232751E+03  0.20970442253E+03  0.00000000000E+00 0.  1.
         11    1    5    5    0    0  0.25842962064E+02 -0.81480613586E+02 -0.50908159367E+01  0.85632152171E+02  0.00000000000E+00 0. -1.
        -11    1    5    5    0    0 -0.80402292924E+02 -0.20959214998E+03 -0.23118617248E+02  0.22567203749E+03  0.00000000000E+00 0.  1.
          1    1    6    6  503    0  0.43942203453E+03  0.25943423905E+03 -0.12006433133E+03  0.52422637522E+03  0.00000000000E+00 0. -1.
         -1    1    6    6    0  503  0.27689332032E+03  0.87813698153E+02 -0.49318361585E+02  0.29464123475E+03  0.00000000000E+00 0.  1.
<mgrwt>
<rscale>  0 0.20430967E+04</rscale>
<asrwt>0</asrwt>
<pdfrwt beam="1">  1        2 0.28656009E+00 0.20430967E+04</pdfrwt>
<pdfrwt beam="2">  1       -1 0.86193685E-01 0.20430967E+04</pdfrwt>
<totfact> 0.11151248E+01</totfact>
</mgrwt>
</event>
<event>
12    6  0.1542110E-007  0.2468643E+04  0.7818608E-02  0.8414243E-01
         -1   -1    0    0    0  501 -0.00000000000E+00  0.00000000000E+00  0.89192322213E+03  0.89192322213E+03  0.00000000000E+00 0.  1.
          2   -1    0    0  501    0  0.00000000000E+00 -0.00000000000E+00 -0.17081622639E+04  0.17081622639E+04  0.00000000000E+00 0. -1.
         24    2    1    2    0    0  0.67869305937E+02  0.65260922496E+03 -0.12437701783E+04  0.14085128770E+04  0.80244782626E+02 0.  0.
        254    2    1    2    0    0 -0.67869305937E+02 -0.65260922496E+03  0.42753113653E+03  0.11915726090E+04  0.89808538938E+03 0.  0.
         23    2    4    4    0    0  0.76101803599E+01 -0.16098738277E+03 -0.27084371775E+03  0.32933931216E+03  0.95567833687E+02 0.  0.
         23    2    4    4    0    0 -0.75479486297E+02 -0.49162184219E+03  0.69837485428E+03  0.86223329683E+03  0.91266820346E+02 0.  0.
          2    1    3    3  502    0  0.29316172470E+02  0.38168815137E+03 -0.80527619600E+03  0.89163615601E+03  0.00000000000E+00 0. -1.
         -1    1    3    3    0  502  0.38553133467E+02  0.27092107359E+03 -0.43849398227E+03  0.51687672098E+03  0.00000000000E+00 0.  1.
         11    1    5    5    0    0  0.42186047710E+02 -0.13966062499E+03 -0.22415153463E+03  0.26744843105E+03  0.00000000000E+00 0. -1.
        -11    1    5    5    0    0 -0.34575867350E+02 -0.21326757773E+02 -0.46692183120E+02  0.61890881111E+02  0.00000000000E+00 0.  1.
          3    1    6    6  503    0 -0.21775607976E+02 -0.37197714664E+03  0.54833451572E+03  0.66295694872E+03  0.00000000000E+00 0. -1.
         -3    1    6    6    0  503 -0.53703878320E+02 -0.11964469555E+03  0.15004033856E+03  0.19927634811E+03  0.00000000000E+00 0.  1.
<mgrwt>
<rscale>  0 0.24686430E+04</rscale>
<asrwt>0</asrwt>
<pdfrwt beam="1">  1        2 0.26279419E+00 0.24686430E+04</pdfrwt>
<pdfrwt beam="2">  1       -1 0.13721896E+00 0.24686430E+04</pdfrwt>
<totfact> 0.43638288E+00</totfact>
</mgrwt>
</event>
<event>
12    6  0.1542110E-007  0.1536079E+04  0.7818608E-02  0.8860809E-01
         -1   -1    0    0    0  501 -0.00000000000E+00  0.00000000000E+00  0.13467257185E+03  0.13467257185E+03  0.00000000000E+00 0.  1.
          2   -1    0    0  501    0  0.00000000000E+00 -0.00000000000E+00 -0.43801385743E+04  0.43801385743E+04  0.00000000000E+00 0. -1.
         24    2    1    2    0    0 -0.42446516655E+03  0.15549440813E+03 -0.20869610527E+04  0.21368604000E+04  0.80104589016E+02 0.  0.
        254    2    1    2    0    0  0.42446516655E+03 -0.15549440813E+03 -0.21585049498E+04  0.23779507461E+04  0.88947003563E+03 0.  0.
         23    2    4    4    0    0  0.59293415749E+02  0.34532041704E+03 -0.63774285143E+03  0.73328646242E+03  0.90725916034E+02 0.  0.
         23    2    4    4    0    0  0.36517175080E+03 -0.50081482518E+03 -0.15207620983E+04  0.16446642837E+04  0.89651267024E+02 0.  0.
          2    1    3    3  502    0 -0.14396093301E+03  0.83186432428E+02 -0.88528468173E+03  0.90076284363E+03  0.00000000000E+00 0. -1.
         -1    1    3    3    0  502 -0.28050423355E+03  0.72307975705E+02 -0.12016763709E+04  0.12360975564E+04  0.00000000000E+00 0.  1.
         11    1    5    5    0    0  0.28898475880E+02  0.32209861492E+03 -0.57887802403E+03  0.66308551963E+03  0.00000000000E+00 0. -1.
        -11    1    5    5    0    0  0.30394939869E+02  0.23221802128E+02 -0.58864827398E+02  0.70200942788E+02  0.00000000000E+00 0.  1.
          4    1    6    6  503    0  0.30153259792E+02 -0.75215051905E+02 -0.14477828935E+03  0.16591345990E+03  0.00000000000E+00 0.  1.
         -4    1    6    6    0  503  0.33501849101E+03 -0.42559977327E+03 -0.13759838090E+04  0.14787508238E+04  0.00000000000E+00 0. -1.
<mgrwt>
<rscale>  0 0.15360788E+04</rscale>
<asrwt>0</asrwt>
<pdfrwt beam="1">  1        2 0.67386749E+00 0.15360788E+04</pdfrwt>
<pdfrwt beam="2">  1       -1 0.20718857E-01 0.15360788E+04</pdfrwt>
<totfact> 0.34936845E+00</totfact>
</mgrwt>
</event>
<event>
12    6  0.1542110E-007  0.1735631E+04  0.7818608E-02  0.8741300E-01
          2   -1    0    0  501    0  0.00000000000E+00  0.00000000000E+00  0.18514715601E+04  0.18514715601E+04  0.00000000000E+00 0. -1.
         -1   -1    0    0    0  501 -0.00000000000E+00 -0.00000000000E+00 -0.40675938858E+03  0.40675938858E+03  0.00000000000E+00 0.  1.
         24    2    1    2    0    0 -0.30498247146E+03  0.16649584545E+03 -0.15543036169E+03  0.38867391551E+03  0.78572519457E+02 0.  0.
        254    2    1    2    0    0  0.30498247146E+03 -0.16649584545E+03  0.16001425333E+04  0.18695570332E+04  0.90224841324E+03 0.  0.
         23    2    4    4    0    0 -0.14008855614E+03 -0.26234188796E+03  0.12495544990E+04  0.12875676164E+04  0.89419523557E+02 0.  0.
         23    2    4    4    0    0  0.44507102760E+03  0.95846042502E+02  0.35058803425E+03  0.58198941675E+03  0.92331078114E+02 0.  0.
          2    1    3    3  502    0 -0.12883037804E+03  0.11414817777E+03 -0.66548937665E+02  0.18454222795E+03  0.00000000000E+00 0. -1.
         -1    1    3    3    0  502 -0.17615209342E+03  0.52347667683E+02 -0.88881424029E+02  0.20413168756E+03  0.00000000000E+00 0.  1.
         11    1    5    5    0    0 -0.83581539215E+02 -0.88147737680E+02  0.62603516222E+03  0.63771147213E+03  0.00000000000E+00 0. -1.
        -11    1    5    5    0    0 -0.56507016922E+02 -0.17419415028E+03  0.62351933679E+03  0.64985614431E+03  0.00000000000E+00 0.  1.
          3    1    6    6  503    0  0.21868483606E+03  0.28554585345E+02  0.11633578156E+03  0.24934401123E+03  0.00000000000E+00 0. -1.
         -3    1    6    6    0  503  0.22638619154E+03  0.67291457157E+02  0.23425225268E+03  0.33264540552E+03  0.00000000000E+00 0.  1.
<mgrwt>
<rscale>  0 0.17356307E+04</rscale>
<asrwt>0</asrwt>
<pdfrwt beam="1">  1        2 0.28484177E+00 0.17356307E+04</pdfrwt>
<pdfrwt beam="2">  1       -1 0.62578369E-01 0.17356307E+04</pdfrwt>
<totfact> 0.22616183E+01</totfact>
</mgrwt>
</event>
<event>
12    6  0.1542110E-007  0.1698141E+04  0.7818608E-02  0.8762426E-01
          2   -1    0    0  501    0  0.00000000000E+00  0.00000000000E+00  0.14431716540E+04  0.14431716540E+04  0.00000000000E+00 0. -1.
         -1   -1    0    0    0  501 -0.00000000000E+00 -0.00000000000E+00 -0.49953883819E+03  0.49953883819E+03  0.00000000000E+00 0.  1.
         24    2    1    2    0    0  0.24841449989E+01 -0.14786877996E+03  0.10091084385E+04  0.10229832094E+04  0.79520179212E+02 0.  0.
        254    2    1    2    0    0 -0.24841449989E+01  0.14786877996E+03 -0.65475622699E+02  0.91972728282E+03  0.90539486995E+03 0.  0.
         23    2    4    4    0    0  0.25502289162E+03  0.43701793241E+03  0.16617228248E+02  0.51359225764E+03  0.86484254801E+02 0.  0.
         23    2    4    4    0    0 -0.25750703662E+03 -0.28914915245E+03 -0.82092850946E+02  0.40613502519E+03  0.91045682126E+02 0.  0.
          4    1    3    3  502    0  0.16183485597E+02 -0.15218695610E+03  0.89768628763E+03  0.91063903157E+03  0.00000000000E+00 0. -1.
         -3    1    3    3    0  502 -0.13699340598E+02  0.43181761385E+01  0.11142215088E+03  0.11234417780E+03  0.00000000000E+00 0.  1.
         11    1    5    5    0    0  0.22208484372E+03  0.30892382366E+03  0.15055957032E+01  0.38047059473E+03  0.00000000000E+00 0. -1.
        -11    1    5    5    0    0  0.32938047897E+02  0.12809410876E+03  0.15111632544E+02  0.13312166291E+03  0.00000000000E+00 0.  1.
          2    1    6    6  503    0 -0.25168856623E+01 -0.26109795181E+02  0.10522981962E+02  0.28262860209E+02  0.00000000000E+00 0.  1.
         -2    1    6    6    0  503 -0.25499015096E+03 -0.26303935727E+03 -0.92615832908E+02  0.37787216498E+03  0.00000000000E+00 0. -1.
<mgrwt>
<rscale>  0 0.16981405E+04</rscale>
<asrwt>0</asrwt>
<pdfrwt beam="1">  1        2 0.22202641E+00 0.16981405E+04</pdfrwt>
<pdfrwt beam="2">  1       -1 0.76852130E-01 0.16981405E+04</pdfrwt>
<totfact> 0.25186276E+01</totfact>
</mgrwt>
</event>
<event>
12    6  0.1542110E-007  0.2046698E+04  0.7818608E-02  0.8585094E-01
          2   -1    0    0  501    0  0.00000000000E+00  0.00000000000E+00  0.16162166193E+04  0.16162166193E+04  0.00000000000E+00 0. -1.
         -1   -1    0    0    0  501 -0.00000000000E+00 -0.00000000000E+00 -0.64795992174E+03  0.64795992174E+03  0.00000000000E+00 0.  1.
         24    2    1    2    0    0  0.80552343279E+03 -0.20835207354E+03  0.30971795071E+03  0.89094779288E+03  0.74727326521E+02 0.  0.
        254    2    1    2    0    0 -0.80552343279E+03  0.20835207354E+03  0.65853874685E+03  0.13732287482E+04  0.87166812856E+03 0.  0.
         23    2    4    4    0    0 -0.35286683014E+03  0.11056500581E+03  0.79481733132E+03  0.88150303816E+03  0.92592633569E+02 0.  0.
         23    2    4    4    0    0 -0.45265660265E+03  0.97787067732E+02 -0.13627858447E+03  0.49172571000E+03  0.93605612820E+02 0.  0.
          2    1    3    3  502    0  0.23022649968E+03 -0.72200460776E+02  0.12396146212E+03  0.27126295689E+03  0.00000000000E+00 0. -1.
         -1    1    3    3    0  502  0.57529693310E+03 -0.13615161276E+03  0.18575648860E+03  0.61968483599E+03  0.00000000000E+00 0.  1.
         11    1    5    5    0    0 -0.67536522097E+02 -0.14007760913E+02  0.12213333574E+03  0.14026386164E+03  0.00000000000E+00 0.  1.
        -11    1    5    5    0    0 -0.28533030804E+03  0.12457276672E+03  0.67268399558E+03  0.74123917652E+03  0.00000000000E+00 0. -1.
          4    1    6    6  503    0 -0.18099924148E+03  0.25220378145E+02 -0.99696446158E+02  0.20817342353E+03  0.00000000000E+00 0. -1.
         -4    1    6    6    0  503 -0.27165736117E+03  0.72566689587E+02 -0.36582138314E+02  0.28355228647E+03  0.00000000000E+00 0.  1.
<mgrwt>
<rscale>  0 0.20466984E+04</rscale>
<asrwt>0</asrwt>
<pdfrwt beam="1">  1        2 0.24864871E+00 0.20466984E+04</pdfrwt>
<pdfrwt beam="2">  1       -1 0.99686143E-01 0.20466984E+04</pdfrwt>
<totfact> 0.11053503E+01</totfact>
</mgrwt>
</event>
<event>
12    6  0.1542110E-007  0.2106277E+04  0.7818608E-02  0.8558483E-01
          2   -1    0    0  501    0  0.00000000000E+00  0.00000000000E+00  0.29516584577E+04  0.29516584577E+04  0.00000000000E+00 0. -1.
         -1   -1    0    0    0  501 -0.00000000000E+00 -0.00000000000E+00 -0.37575512694E+03  0.37575512694E+03  0.00000000000E+00 0.  1.
         24    2    1    2    0    0  0.70164267347E+03 -0.30508779083E+03  0.16738839119E+04  0.18421841039E+04  0.79836838954E+02 0.  0.
        254    2    1    2    0    0 -0.70164267347E+03  0.30508779083E+03  0.90201941888E+03  0.14852294807E+04  0.89826865529E+03 0.  0.
         23    2    4    4    0    0 -0.40537670365E+03  0.31418937285E+03 -0.11003000803E+02  0.52116813867E+03  0.91923494586E+02 0.  0.
         23    2    4    4    0    0 -0.29626596982E+03 -0.91015820166E+01  0.91302241969E+03  0.96406134208E+03  0.89151381191E+02 0.  0.
          2    1    3    3  502    0  0.69469538589E+03 -0.29028839575E+03  0.16384562198E+04  0.18031660534E+04  0.00000000000E+00 0. -1.
         -1    1    3    3    0  502  0.69472875777E+01 -0.14799395085E+02  0.35427692100E+02  0.39018050529E+02  0.00000000000E+00 0.  1.
         11    1    5    5    0    0 -0.39349260036E+03  0.32032042600E+03 -0.13490393262E+02  0.50756634301E+03  0.00000000000E+00 0. -1.
        -11    1    5    5    0    0 -0.11884103293E+02 -0.61310531458E+01  0.24873924585E+01  0.13601795653E+02  0.00000000000E+00 0.  1.
          2    1    6    6  503    0 -0.28311866295E+03 -0.86645229567E+01  0.77018365670E+03  0.82061813063E+03  0.00000000000E+00 0. -1.
         -2    1    6    6    0  503 -0.13147306862E+02 -0.43705905997E+00  0.14283876299E+03  0.14344321144E+03  0.00000000000E+00 0.  1.
<mgrwt>
<rscale>  0 0.21062771E+04</rscale>
<asrwt>0</asrwt>
<pdfrwt beam="1">  1        2 0.45410129E+00 0.21062771E+04</pdfrwt>
<pdfrwt beam="2">  1       -1 0.57808483E-01 0.21062771E+04</pdfrwt>
<totfact> 0.59398922E+00</totfact>
</mgrwt>
</event>
<event>
12    6  0.1542110E-007  0.1122761E+04  0.7818608E-02  0.9183287E-01
          2   -1    0    0  501    0  0.00000000000E+00  0.00000000000E+00  0.14267475174E+04  0.14267475174E+04  0.00000000000E+00 0. -1.
         -1   -1    0    0    0  501 -0.00000000000E+00 -0.00000000000E+00 -0.22088567882E+03  0.22088567882E+03  0.00000000000E+00 0.  1.
         24    2    1    2    0    0 -0.18259102432E+03  0.60336099326E+02  0.22084514955E+03  0.30403621576E+03  0.81764988649E+02 0.  0.
        254    2    1    2    0    0  0.18259102432E+03 -0.60336099326E+02  0.98501668899E+03  0.13435969804E+04  0.89331687611E+03 0.  0.
         23    2    4    4    0    0 -0.14335739170E+03  0.25546167842E+03  0.64725390462E+02  0.31345361643E+03  0.90839322919E+02 0.  0.
         23    2    4    4    0    0  0.32594841602E+03 -0.31579777774E+03  0.92029129853E+03  0.10301433640E+04  0.91042132479E+02 0.  0.
          4    1    3    3  502    0 -0.39193431508E+02  0.23669490487E+02  0.10735784853E+02  0.47027937757E+02  0.00000000000E+00 0. -1.
         -3    1    3    3    0  502 -0.14339759281E+03  0.36666608839E+02  0.21010936469E+03  0.25700827800E+03  0.00000000000E+00 0.  1.
         11    1    5    5    0    0 -0.15183987270E+03  0.20673943805E+03  0.62156836045E+02  0.26393183676E+03  0.00000000000E+00 0. -1.
        -11    1    5    5    0    0  0.84824810006E+01  0.48722240366E+02  0.25685544165E+01  0.49521779673E+02  0.00000000000E+00 0.  1.
          1    1    6    6  503    0  0.23802076154E+03 -0.18722508753E+03  0.53868151592E+03  0.61796835835E+03  0.00000000000E+00 0. -1.
         -1    1    6    6    0  503  0.87927654474E+02 -0.12857269022E+03  0.38160978261E+03  0.41217500564E+03  0.00000000000E+00 0.  1.
<mgrwt>
<rscale>  0 0.11227611E+04</rscale>
<asrwt>0</asrwt>
<pdfrwt beam="1">  1        2 0.21949961E+00 0.11227611E+04</pdfrwt>
<pdfrwt beam="2">  1       -1 0.33982413E-01 0.11227611E+04</pdfrwt>
<totfact> 0.12902422E+02</totfact>
</mgrwt>
</event>
<event>
12    6  0.1542110E-007  0.1477683E+04  0.7818608E-02  0.8899431E-01
         -1   -1    0    0    0  501 -0.00000000000E+00  0.00000000000E+00  0.11591901973E+04  0.11591901973E+04  0.00000000000E+00 0.  1.
          2   -1    0    0  501    0  0.00000000000E+00 -0.00000000000E+00 -0.47092062406E+03  0.47092062406E+03  0.00000000000E+00 0. -1.
         24    2    1    2    0    0  0.19663958781E+03 -0.21997144110E+03 -0.17199570529E+03  0.35050733018E+03  0.78856220302E+02 0.  0.
        254    2    1    2    0    0 -0.19663958781E+03  0.21997144110E+03  0.86026527849E+03  0.12796034912E+04  0.90015231088E+03 0.  0.
         23    2    4    4    0    0 -0.10629553608E+03  0.31966938476E+03 -0.52008060767E+02  0.35287178214E+03  0.91249107984E+02 0.  0.
         23    2    4    4    0    0 -0.90344051727E+02 -0.99697943658E+02  0.91227333926E+03  0.92673170901E+03  0.92126474475E+02 0.  0.
          4    1    3    3  502    0  0.17655540758E+03 -0.22250185015E+03 -0.16757187910E+03  0.32978662789E+03  0.00000000000E+00 0. -1.
         -3    1    3    3    0  502  0.20084180228E+02  0.25304090546E+01 -0.44238261865E+01  0.20720702293E+02  0.00000000000E+00 0.  1.
         11    1    5    5    0    0 -0.23015914389E+02  0.18870663758E+03 -0.30346911812E+01  0.19012926322E+03  0.00000000000E+00 0. -1.
        -11    1    5    5    0    0 -0.83279621694E+02  0.13096274717E+03 -0.48973369585E+02  0.16274251892E+03  0.00000000000E+00 0.  1.
          2    1    6    6  503    0  0.14346939623E+02  0.33616716259E+01  0.53900308643E+02  0.55878249655E+02  0.00000000000E+00 0. -1.
         -2    1    6    6    0  503 -0.10469099135E+03 -0.10305961528E+03  0.85837303062E+03  0.87085345935E+03  0.00000000000E+00 0.  1.
<mgrwt>
<rscale>  0 0.14776827E+04</rscale>
<asrwt>0</asrwt>
<pdfrwt beam="1">  1        2 0.72449327E-01 0.14776827E+04</pdfrwt>
<pdfrwt beam="2">  1       -1 0.17833695E+00 0.14776827E+04</pdfrwt>
<totfact> 0.15626061E+01</totfact>
</mgrwt>
</event>
<event>
12    6  0.1542110E-007  0.2721308E+04  0.7818608E-02  0.8328124E-01
          2   -1    0    0  501    0  0.00000000000E+00  0.00000000000E+00  0.29292694579E+04  0.29292694579E+04  0.00000000000E+00 0. -1.
         -1   -1    0    0    0  501 -0.00000000000E+00 -0.00000000000E+00 -0.63202749432E+03  0.63202749432E+03  0.00000000000E+00 0.  1.
         24    2    1    2    0    0  0.46785226555E+03 -0.44830950264E+03  0.23404114511E+04  0.24298178055E+04  0.81373551591E+02 0.  0.
        254    2    1    2    0    0 -0.46785226555E+03  0.44830950264E+03 -0.43169487494E+02  0.11314791468E+04  0.92656046882E+03 0.  0.
         23    2    4    4    0    0 -0.38025348340E+03  0.62823662053E+03  0.23511201201E+03  0.77628666193E+03  0.89829618143E+02 0.  0.
         23    2    4    4    0    0 -0.87598782149E+02 -0.17992711789E+03 -0.27828149951E+03  0.35519248483E+03  0.93133205290E+02 0.  0.
          4    1    3    3  502    0  0.46970847311E+03 -0.44777381663E+03  0.23122033643E+04  0.24015436366E+04  0.00000000000E+00 0. -1.
         -3    1    3    3    0  502 -0.18562075616E+01 -0.53568601020E+00  0.28208086790E+02  0.28274168889E+02  0.00000000000E+00 0.  1.
         11    1    5    5    0    0 -0.76703200165E+02  0.20158251847E+03  0.81960395014E+02  0.23073014329E+03  0.00000000000E+00 0. -1.
        -11    1    5    5    0    0 -0.30355028324E+03  0.42665410205E+03  0.15315161700E+03  0.54555651865E+03  0.00000000000E+00 0.  1.
          2    1    6    6  503    0 -0.47705920768E+02 -0.14071778847E+02 -0.54103104465E+02  0.73491603255E+02  0.00000000000E+00 0. -1.
         -2    1    6    6    0  503 -0.39892861381E+02 -0.16585533904E+03 -0.22417839504E+03  0.28170088158E+03  0.00000000000E+00 0.  1.
<mgrwt>
<rscale>  0 0.27213077E+04</rscale>
<asrwt>0</asrwt>
<pdfrwt beam="1">  1        2 0.45065683E+00 0.27213077E+04</pdfrwt>
<pdfrwt beam="2">  1       -1 0.97235001E-01 0.27213077E+04</pdfrwt>
<totfact> 0.19485714E+00</totfact>
</mgrwt>
</event>
<event>
12    6  0.1542110E-007  0.1121862E+04  0.7818608E-02  0.9184141E-01
          2   -1    0    0  501    0  0.00000000000E+00  0.00000000000E+00  0.91747071592E+03  0.91747071592E+03  0.00000000000E+00 0. -1.
         -1   -1    0    0    0  501 -0.00000000000E+00 -0.00000000000E+00 -0.34294697851E+03  0.34294697851E+03  0.00000000000E+00 0.  1.
         24    2    1    2    0    0  0.11410586146E+03  0.13694943775E+03  0.34204648799E+02  0.19879238696E+03  0.81075020764E+02 0.  0.
        254    2    1    2    0    0 -0.11410586146E+03 -0.13694943775E+03  0.54031908861E+03  0.10616253075E+04  0.89628582484E+03 0.  0.
         23    2    4    4    0    0 -0.28487355456E+03  0.14883697823E+03 -0.87471578474E+02  0.34521188483E+03  0.90634321347E+02 0.  0.
         23    2    4    4    0    0  0.17076769310E+03 -0.28578641598E+03  0.62779066708E+03  0.71641342264E+03  0.91058167653E+02 0.  0.
          4    1    3    3  502    0 -0.36967385742E+01 -0.32549860138E+01  0.13657273888E+02  0.14518331174E+02  0.00000000000E+00 0. -1.
         -3    1    3    3    0  502  0.11780260004E+03  0.14020442377E+03  0.20547374911E+02  0.18427405578E+03  0.00000000000E+00 0.  1.
         11    1    5    5    0    0 -0.20349127002E+03  0.11793594557E+03 -0.10304260437E+03  0.25677882028E+03  0.00000000000E+00 0.  1.
        -11    1    5    5    0    0 -0.81382284543E+02  0.30901032659E+02  0.15571025892E+02  0.88433064542E+02  0.00000000000E+00 0. -1.
          1    1    6    6  503    0  0.25038561634E+02 -0.34053556729E+02  0.16064136659E+03  0.16610906946E+03  0.00000000000E+00 0. -1.
         -1    1    6    6    0  503  0.14572913147E+03 -0.25173285925E+03  0.46714930049E+03  0.55030435318E+03  0.00000000000E+00 0.  1.
<mgrwt>
<rscale>  0 0.11218624E+04</rscale>
<asrwt>0</asrwt>
<pdfrwt beam="1">  1        2 0.14114934E+00 0.11218624E+04</pdfrwt>
<pdfrwt beam="2">  1       -1 0.52761074E-01 0.11218624E+04</pdfrwt>
<totfact> 0.11687143E+02</totfact>
</mgrwt>
</event>
<event>
12    6  0.1542110E-007  0.1567278E+04  0.7818608E-02  0.8840907E-01
          2   -1    0    0  501    0  0.00000000000E+00  0.00000000000E+00  0.16020965357E+04  0.16020965357E+04  0.00000000000E+00 0. -1.
         -1   -1    0    0    0  501 -0.00000000000E+00 -0.00000000000E+00 -0.38330383461E+03  0.38330383461E+03  0.00000000000E+00 0.  1.
         24    2    1    2    0    0  0.41626018974E+03 -0.22693239830E+03  0.68202851567E+03  0.83445738458E+03  0.79908519825E+02 0.  0.
        254    2    1    2    0    0 -0.41626018974E+03  0.22693239830E+03  0.53676418539E+03  0.11509429857E+04  0.90099007022E+03 0.  0.
         23    2    4    4    0    0 -0.31932324198E+03 -0.31581100735E+03  0.26524994474E+03  0.52969015908E+03  0.92250778926E+02 0.  0.
         23    2    4    4    0    0 -0.96936947758E+02  0.54274340564E+03  0.27151424065E+03  0.62125282661E+03  0.90928078653E+02 0.  0.
          4    1    3    3  502    0  0.41610479600E+03 -0.23122971308E+03  0.67878367512E+03  0.82907035834E+03  0.00000000000E+00 0. -1.
         -3    1    3    3    0  502  0.15539373725E+00  0.42973147826E+01  0.32448405445E+01  0.53870262403E+01  0.00000000000E+00 0.  1.
         11    1    5    5    0    0 -0.85698024318E+02 -0.99113238913E+02  0.12655217707E+03  0.18216212290E+03  0.00000000000E+00 0. -1.
        -11    1    5    5    0    0 -0.23362521766E+03 -0.21669776843E+03  0.13869776767E+03  0.34752803618E+03  0.00000000000E+00 0.  1.
          3    1    6    6  503    0 -0.44225977541E+01  0.12652943365E+03  0.26007757442E+02  0.12925037872E+03  0.00000000000E+00 0. -1.
         -3    1    6    6    0  503 -0.92514350004E+02  0.41621397199E+03  0.24550648321E+03  0.49200244789E+03  0.00000000000E+00 0.  1.
<mgrwt>
<rscale>  0 0.15672776E+04</rscale>
<asrwt>0</asrwt>
<pdfrwt beam="1">  1        2 0.24647639E+00 0.15672776E+04</pdfrwt>
<pdfrwt beam="2">  1       -1 0.58969822E-01 0.15672776E+04</pdfrwt>
<totfact> 0.35503544E+01</totfact>
</mgrwt>
</event>
<event>
12    6  0.1542110E-007  0.2206768E+04  0.7818608E-02  0.8515616E-01
          2   -1    0    0  501    0  0.00000000000E+00  0.00000000000E+00  0.32351624178E+04  0.32351624178E+04  0.00000000000E+00 0. -1.
         -1   -1    0    0    0  501 -0.00000000000E+00 -0.00000000000E+00 -0.37632003455E+03  0.37632003455E+03  0.00000000000E+00 0.  1.
         24    2    1    2    0    0  0.84627978142E+03  0.14421086492E+03  0.17430563647E+04  0.19446537984E+04  0.80291116047E+02 0.  0.
        254    2    1    2    0    0 -0.84627978142E+03 -0.14421086492E+03  0.11157860185E+04  0.16668286539E+04  0.89238617214E+03 0.  0.
         23    2    4    4    0    0 -0.78558359264E+03 -0.44038800649E+03  0.69839419434E+03  0.11434960023E+04  0.93517267048E+02 0.  0.
         23    2    4    4    0    0 -0.60696188777E+02  0.29617714156E+03  0.41739182419E+03  0.52333265161E+03  0.90863649604E+02 0.  0.
          4    1    3    3  502    0  0.69143057967E+03  0.86143065367E+02  0.13988088376E+04  0.15627421535E+04  0.00000000000E+00 0. -1.
         -3    1    3    3    0  502  0.15484920175E+03  0.58067799557E+02  0.34424752709E+03  0.38191164494E+03  0.00000000000E+00 0.  1.
         11    1    5    5    0    0 -0.33613206806E+02 -0.35192780125E+02  0.59143735872E+02  0.76592172822E+02  0.00000000000E+00 0. -1.
        -11    1    5    5    0    0 -0.75197038584E+03 -0.40519522636E+03  0.63925045846E+03  0.10669038294E+04  0.00000000000E+00 0.  1.
          2    1    6    6  503    0 -0.23667971711E+02  0.26788109667E+03  0.36159289275E+03  0.45063274950E+03  0.00000000000E+00 0.  1.
         -2    1    6    6    0  503 -0.37028217066E+02  0.28296044889E+02  0.55798931443E+02  0.72699902102E+02  0.00000000000E+00 0. -1.
<mgrwt>
<rscale>  0 0.22067682E+04</rscale>
<asrwt>0</asrwt>
<pdfrwt beam="1">  1        2 0.49771728E+00 0.22067682E+04</pdfrwt>
<pdfrwt beam="2">  1       -1 0.57895392E-01 0.22067682E+04</pdfrwt>
<totfact> 0.38713556E+00</totfact>
</mgrwt>
</event>
<event>
12    6  0.1542110E-007  0.2850181E+04  0.7818608E-02  0.8287856E-01
          2   -1    0    0  501    0  0.00000000000E+00  0.00000000000E+00  0.16441383587E+04  0.16441383587E+04  0.00000000000E+00 0. -1.
         -1   -1    0    0    0  501 -0.00000000000E+00 -0.00000000000E+00 -0.12352264681E+04  0.12352264681E+04  0.00000000000E+00 0.  1.
         24    2    1    2    0    0  0.28750255072E+03 -0.71701126097E+03  0.12175550673E+04  0.14440050329E+04  0.77118922349E+02 0.  0.
        254    2    1    2    0    0 -0.28750255072E+03  0.71701126097E+03 -0.80864317670E+03  0.14353597939E+04  0.89977279674E+03 0.  0.
         23    2    4    4    0    0 -0.29950091246E+03  0.60840380977E+03 -0.99321992639E+03  0.12061564183E+04  0.92040702463E+02 0.  0.
         23    2    4    4    0    0  0.11998361744E+02  0.10860745120E+03  0.18457674969E+03  0.22920337563E+03  0.80784105702E+02 0.  0.
          4    1    3    3  502    0  0.14116803277E+03 -0.38762234070E+03  0.58225949488E+03  0.71358644316E+03  0.00000000000E+00 0. -1.
         -3    1    3    3    0  502  0.14633451795E+03 -0.32938892027E+03  0.63529557241E+03  0.73041858976E+03  0.00000000000E+00 0.  1.
         11    1    5    5    0    0 -0.27711126501E+03  0.48602724897E+03 -0.79503158935E+03  0.97215655530E+03  0.00000000000E+00 0. -1.
        -11    1    5    5    0    0 -0.22389647452E+02  0.12237656080E+03 -0.19818833703E+03  0.23399986300E+03  0.00000000000E+00 0.  1.
          3    1    6    6  503    0 -0.29335239280E+02  0.75794548956E+02  0.12975979356E+03  0.15311098569E+03  0.00000000000E+00 0. -1.
         -3    1    6    6    0  503  0.41333601024E+02  0.32812902243E+02  0.54816956130E+02  0.76092389939E+02  0.00000000000E+00 0.  1.
<mgrwt>
<rscale>  0 0.28501812E+04</rscale>
<asrwt>0</asrwt>
<pdfrwt beam="1">  1        2 0.25294436E+00 0.28501812E+04</pdfrwt>
<pdfrwt beam="2">  1       -1 0.19003484E+00 0.28501812E+04</pdfrwt>
<totfact> 0.18356654E+00</totfact>
</mgrwt>
</event>
<event>
12    6  0.1542110E-007  0.1426362E+04  0.7818608E-02  0.8934955E-01
          2   -1    0    0  501    0  0.00000000000E+00  0.00000000000E+00  0.24872869531E+04  0.24872869531E+04  0.00000000000E+00 0. -1.
         -1   -1    0    0    0  501 -0.00000000000E+00 -0.00000000000E+00 -0.20449062625E+03  0.20449062625E+03  0.00000000000E+00 0.  1.
         24    2    1    2    0    0  0.10805211651E+03 -0.16015494504E+03 -0.21871411352E+02  0.20941521114E+03  0.77791424444E+02 0.  0.
        254    2    1    2    0    0 -0.10805211651E+03  0.16015494504E+03  0.23046677382E+04  0.24823623682E+04  0.90183406308E+03 0.  0.
         23    2    4    4    0    0  0.36624610274E+03  0.21086605473E+03  0.96048271294E+03  0.10530295596E+04  0.87997219783E+02 0.  0.
         23    2    4    4    0    0 -0.47429821925E+03 -0.50711109691E+02  0.13441850252E+04  0.14293328086E+04  0.92889602604E+02 0.  0.
          4    1    3    3  502    0  0.18089679132E+02 -0.20372095098E+02 -0.33023491349E+02  0.42811327130E+02  0.00000000000E+00 0. -1.
         -3    1    3    3    0  502  0.89962437383E+02 -0.13978284995E+03  0.11152079998E+02  0.16660388401E+03  0.00000000000E+00 0.  1.
         11    1    5    5    0    0  0.15835580831E+03  0.78422715248E+02  0.50655677040E+03  0.53649459078E+03  0.00000000000E+00 0.  1.
        -11    1    5    5    0    0  0.20789029442E+03  0.13244333949E+03  0.45392594254E+03  0.51653496880E+03  0.00000000000E+00 0. -1.
          3    1    6    6  503    0 -0.28035830837E+03 -0.52704553507E+02  0.91315760629E+03  0.95667934281E+03  0.00000000000E+00 0. -1.
         -3    1    6    6    0  503 -0.19393991088E+03  0.19934438168E+01  0.43102741894E+03  0.47265346580E+03  0.00000000000E+00 0.  1.
<mgrwt>
<rscale>  0 0.14263616E+04</rscale>
<asrwt>0</asrwt>
<pdfrwt beam="1">  1        2 0.38265951E+00 0.14263616E+04</pdfrwt>
<pdfrwt beam="2">  1       -1 0.31460098E-01 0.14263616E+04</pdfrwt>
<totfact> 0.36881587E+01</totfact>
</mgrwt>
</event>
<event>
12    6  0.1582939E-007  0.1797900E+04  0.7818608E-02  0.8707417E-01
         -1   -1    0    0    0  501 -0.00000000000E+00  0.00000000000E+00  0.42935776245E+03  0.42935776245E+03  0.00000000000E+00 0.  1.
          2   -1    0    0  501    0  0.00000000000E+00 -0.00000000000E+00 -0.18821390694E+04  0.18821390694E+04  0.00000000000E+00 0. -1.
         24    2    1    2    0    0 -0.19219895139E+03 -0.62392924686E+03 -0.76308757936E+03  0.10073945841E+04  0.79454718215E+02 0.  0.
        254    2    1    2    0    0  0.19219895139E+03  0.62392924686E+03 -0.68969372761E+03  0.13041022478E+04  0.89374330364E+03 0.  0.
         23    2    4    4    0    0  0.21985976505E+03  0.68014447338E+03 -0.12809370237E+03  0.73191128388E+03  0.91385501722E+02 0.  0.
         23    2    4    4    0    0 -0.27660813663E+02 -0.56215226518E+02 -0.56160002524E+03  0.57219096392E+03  0.89903495669E+02 0.  0.
          2    1    3    3  502    0 -0.18875166200E+03 -0.58019099590E+03 -0.68113080193E+03  0.91443313094E+03  0.00000000000E+00 0. -1.
         -1    1    3    3    0  502 -0.34472893839E+01 -0.43738250964E+02 -0.81956777433E+02  0.92961453134E+02  0.00000000000E+00 0.  1.
         11    1    5    5    0    0 -0.12748531186E+01  0.92658966194E+01 -0.13301343509E+02  0.16260622060E+02  0.00000000000E+00 0. -1.
        -11    1    5    5    0    0  0.22113461817E+03  0.67087857676E+03 -0.11479235886E+03  0.71565066182E+03  0.00000000000E+00 0.  1.
          3    1    6    6  503    0  0.26287027171E+02 -0.22972753126E+02 -0.93196261702E+02  0.99520341533E+02  0.00000000000E+00 0. -1.
         -3    1    6    6    0  503 -0.53947840834E+02 -0.33242473392E+02 -0.46840376354E+03  0.47267062238E+03  0.00000000000E+00 0.  1.
<mgrwt>
<rscale>  0 0.17978999E+04</rscale>
<asrwt>0</asrwt>
<pdfrwt beam="1">  1        2 0.28955986E+00 0.17978999E+04</pdfrwt>
<pdfrwt beam="2">  1       -1 0.66055040E-01 0.17978999E+04</pdfrwt>
<totfact> 0.19404667E+01</totfact>
</mgrwt>
</event>
<event>
12    6  0.1542110E-007  0.1656417E+04  0.7818608E-02  0.8786619E-01
         -1   -1    0    0    0  501 -0.00000000000E+00  0.00000000000E+00  0.40382984015E+03  0.40382984015E+03  0.00000000000E+00 0.  1.
          2   -1    0    0  501    0  0.00000000000E+00 -0.00000000000E+00 -0.16985608092E+04  0.16985608092E+04  0.00000000000E+00 0. -1.
         24    2    1    2    0    0  0.10677133667E+03  0.57068357199E+03 -0.32059027283E+03  0.66765381920E+03  0.76835158523E+02 0.  0.
        254    2    1    2    0    0 -0.10677133667E+03 -0.57068357199E+03 -0.97414069618E+03  0.14347368301E+04  0.87888555459E+03 0.  0.
         23    2    4    4    0    0  0.10272225050E+03 -0.36451739367E+03 -0.10457571515E+04  0.11159677433E+04  0.91384862971E+02 0.  0.
         23    2    4    4    0    0 -0.20949358717E+03 -0.20616617832E+03  0.71616455293E+02  0.31876908682E+03  0.10046271893E+03 0.  0.
          4    1    3    3  502    0  0.75481988190E+02  0.51669001033E+03 -0.27341913757E+03  0.58942694382E+03  0.00000000000E+00 0. -1.
         -3    1    3    3    0  502  0.31289348484E+02  0.53993561658E+02 -0.47171135267E+02  0.78226875379E+02  0.00000000000E+00 0.  1.
         11    1    5    5    0    0  0.17886745968E+02 -0.20583598996E+03 -0.62777539839E+03  0.66090115848E+03  0.00000000000E+00 0. -1.
        -11    1    5    5    0    0  0.84835504531E+02 -0.15868140371E+03 -0.41798175308E+03  0.45506658482E+03  0.00000000000E+00 0.  1.
          2    1    6    6  503    0 -0.20606153754E+03 -0.17225294053E+03  0.38636761717E+02  0.27133969878E+03  0.00000000000E+00 0. -1.
         -2    1    6    6    0  503 -0.34320496307E+01 -0.33913237785E+02  0.32979693576E+02  0.47429388043E+02  0.00000000000E+00 0.  1.
<mgrwt>
<rscale>  0 0.16564173E+04</rscale>
<asrwt>0</asrwt>
<pdfrwt beam="1">  1        2 0.26131705E+00 0.16564173E+04</pdfrwt>
<pdfrwt beam="2">  1       -1 0.62127667E-01 0.16564173E+04</pdfrwt>
<totfact> 0.28080731E+01</totfact>
</mgrwt>
</event>
<event>
12    6  0.1542110E-007  0.1412400E+04  0.7818608E-02  0.8944891E-01
         -1   -1    0    0    0  501 -0.00000000000E+00  0.00000000000E+00  0.11018600300E+04  0.11018600300E+04  0.00000000000E+00 0.  1.
          2   -1    0    0  501    0  0.00000000000E+00 -0.00000000000E+00 -0.45261517669E+03  0.45261517669E+03  0.00000000000E+00 0. -1.
         24    2    1    2    0    0  0.12761391004E+03 -0.24765812025E+03  0.60119294869E+03  0.66746523691E+03  0.80355624410E+02 0.  0.
        254    2    1    2    0    0 -0.12761391004E+03  0.24765812025E+03  0.48051904574E+02  0.88700996974E+03  0.84074838467E+03 0.  0.
         23    2    4    4    0    0 -0.44511599666E+03 -0.13727031739E+02  0.92353642227E+02  0.46388106799E+03  0.91322330879E+02 0.  0.
         23    2    4    4    0    0  0.31750208663E+03  0.26138515199E+03 -0.44301737653E+02  0.42312890175E+03  0.89138380332E+02 0.  0.
          4    1    3    3  502    0 -0.60178682743E+01 -0.13696427766E+02  0.10658954557E+02  0.18369000636E+02  0.00000000000E+00 0. -1.
         -3    1    3    3    0  502  0.13363177831E+03 -0.23396169248E+03  0.59053399413E+03  0.64909623628E+03  0.00000000000E+00 0.  1.
         11    1    5    5    0    0 -0.11918801933E+03 -0.37444846114E+02  0.24726868199E+01  0.12495605081E+03  0.00000000000E+00 0. -1.
        -11    1    5    5    0    0 -0.32592797733E+03  0.23717814375E+02  0.89880955407E+02  0.33892501718E+03  0.00000000000E+00 0.  1.
          2    1    6    6  503    0  0.10395658301E+03  0.13689436338E+03  0.63698428667E+00  0.17189369862E+03  0.00000000000E+00 0. -1.
         -2    1    6    6    0  503  0.21354550362E+03  0.12449078860E+03 -0.44938721939E+02  0.25123520313E+03  0.00000000000E+00 0.  1.
<mgrwt>
<rscale>  0 0.14124002E+04</rscale>
<asrwt>0</asrwt>
<pdfrwt beam="1">  1        2 0.69633105E-01 0.14124002E+04</pdfrwt>
<pdfrwt beam="2">  1       -1 0.16951693E+00 0.14124002E+04</pdfrwt>
<totfact> 0.19062173E+01</totfact>
</mgrwt>
</event>
<event>
12    6  0.1542110E-007  0.2992525E+04  0.7818608E-02  0.8245869E-01
         -3   -1    0    0    0  501 -0.00000000000E+00  0.00000000000E+00  0.13758335742E+04  0.13758335742E+04  0.00000000000E+00 0.  1.
          2   -1    0    0  501    0  0.00000000000E+00 -0.00000000000E+00 -0.16272331017E+04  0.16272331017E+04  0.00000000000E+00 0. -1.
         24    2    1    2    0    0 -0.44824419256E+03  0.12126449942E+04  0.34083704126E+03  0.13394520749E+04  0.80816052122E+02 0.  0.
        254    2    1    2    0    0  0.44824419256E+03 -0.12126449942E+04 -0.59223656879E+03  0.16636146010E+04  0.86338789024E+03 0.  0.
         23    2    4    4    0    0 -0.19511986365E+03 -0.67438220918E+03 -0.22220122170E+03  0.74202979190E+03  0.91497015719E+02 0.  0.
         23    2    4    4    0    0  0.64336405621E+03 -0.53826278500E+03 -0.37003534709E+03  0.92158480906E+03  0.93532174376E+02 0.  0.
          4    1    3    3  502    0 -0.11065146224E+03  0.22383116460E+03  0.84667048388E+02  0.26365250885E+03  0.00000000000E+00 0. -1.
         -3    1    3    3    0  502 -0.33759273032E+03  0.98881382958E+03  0.25616999288E+03  0.10757995661E+04  0.00000000000E+00 0.  1.
         11    1    5    5    0    0 -0.10077619367E+03 -0.22044970128E+03 -0.50308447410E+02  0.24755777484E+03  0.00000000000E+00 0.  1.
        -11    1    5    5    0    0 -0.94343669984E+02 -0.45393250790E+03 -0.17189277429E+03  0.49447201705E+03  0.00000000000E+00 0. -1.
          1    1    6    6  503    0  0.55915633225E+03 -0.50276220933E+03 -0.34138063025E+03  0.82581255605E+03  0.00000000000E+00 0. -1.
         -1    1    6    6    0  503  0.84207723963E+02 -0.35500575668E+02 -0.28654716844E+02  0.95772253002E+02  0.00000000000E+00 0.  1.
<mgrwt>
<rscale>  0 0.29925253E+04</rscale>
<asrwt>0</asrwt>
<pdfrwt beam="1">  1        2 0.25034355E+00 0.29925253E+04</pdfrwt>
<pdfrwt beam="2">  1       -3 0.21166670E+00 0.29925253E+04</pdfrwt>
<totfact> 0.72071202E-01</totfact>
</mgrwt>
</event>
<event>
12    6  0.1542110E-007  0.1795470E+04  0.7818608E-02  0.8708712E-01
          2   -1    0    0  501    0  0.00000000000E+00  0.00000000000E+00  0.12915533235E+04  0.12915533235E+04  0.00000000000E+00 0. -1.
         -1   -1    0    0    0  501 -0.00000000000E+00 -0.00000000000E+00 -0.62399913810E+03  0.62399913810E+03  0.00000000000E+00 0.  1.
         24    2    1    2    0    0 -0.18059562763E+03 -0.43583974940E+03  0.75274448066E+03  0.89196672238E+03  0.80058183809E+02 0.  0.
        254    2    1    2    0    0  0.18059562763E+03  0.43583974940E+03 -0.85190295302E+02  0.10235857392E+04  0.90437785863E+03 0.  0.
         23    2    4    4    0    0 -0.15024414427E+03  0.32942241774E+02 -0.37962588918E+03  0.41770144809E+03  0.81854687212E+02 0.  0.
         23    2    4    4    0    0  0.33083977191E+03  0.40289750763E+03  0.29443559388E+03  0.60588429110E+03  0.92855257974E+02 0.  0.
          2    1    3    3  502    0 -0.13649886339E+03 -0.39589955261E+03  0.64922499230E+03  0.77256811097E+03  0.00000000000E+00 0. -1.
         -1    1    3    3    0  502 -0.44096764243E+02 -0.39940196791E+02  0.10351948836E+03  0.11939861141E+03  0.00000000000E+00 0.  1.
         11    1    5    5    0    0 -0.14826350117E+03  0.37195665483E+02 -0.38269591623E+03  0.41209434309E+03  0.00000000000E+00 0. -1.
        -11    1    5    5    0    0 -0.19806430996E+01 -0.42534237093E+01  0.30700270500E+01  0.56071049951E+01  0.00000000000E+00 0.  1.
          1    1    6    6  503    0  0.26395324911E+03  0.34399465184E+03  0.27853980500E+03  0.51535236604E+03  0.00000000000E+00 0. -1.
         -1    1    6    6    0  503  0.66886522797E+02  0.58902855784E+02  0.15895788877E+02  0.90531925062E+02  0.00000000000E+00 0.  1.
<mgrwt>
<rscale>  0 0.17954700E+04</rscale>
<asrwt>0</asrwt>
<pdfrwt beam="1">  1        2 0.19870051E+00 0.17954700E+04</pdfrwt>
<pdfrwt beam="2">  1       -1 0.95999868E-01 0.17954700E+04</pdfrwt>
<totfact> 0.18827374E+01</totfact>
</mgrwt>
</event>
<event>
12    6  0.1542110E-007  0.1396134E+04  0.7818608E-02  0.8956622E-01
         -1   -1    0    0    0  501 -0.00000000000E+00  0.00000000000E+00  0.39982915721E+03  0.39982915721E+03  0.00000000000E+00 0.  1.
          2   -1    0    0  501    0  0.00000000000E+00 -0.00000000000E+00 -0.12187636542E+04  0.12187636542E+04  0.00000000000E+00 0. -1.
         24    2    1    2    0    0 -0.36351740621E+03  0.74822909114E+02 -0.52691508963E+02  0.38333076023E+03  0.80141776071E+02 0.  0.
        254    2    1    2    0    0  0.36351740621E+03 -0.74822909114E+02 -0.76624298799E+03  0.12352620512E+04  0.89498639433E+03 0.  0.
         23    2    4    4    0    0  0.53855018508E+03 -0.32157043417E+03 -0.62204049508E+03  0.88816459680E+03  0.91968078810E+02 0.  0.
         23    2    4    4    0    0 -0.17503277886E+03  0.24674752506E+03 -0.14420249291E+03  0.34709745435E+03  0.90340849313E+02 0.  0.
          4    1    3    3  502    0 -0.15557449532E+03 -0.27100889729E+00 -0.45641787318E+02  0.16213164339E+03  0.00000000000E+00 0. -1.
         -1    1    3    3    0  502 -0.20794291090E+03  0.75093918011E+02 -0.70497216445E+01  0.22119911684E+03  0.00000000000E+00 0.  1.
         11    1    5    5    0    0  0.32800240085E+03 -0.24661280790E+03 -0.41002435229E+03  0.58010638805E+03  0.00000000000E+00 0. -1.
        -11    1    5    5    0    0  0.21054778423E+03 -0.74957626272E+02 -0.21201614278E+03  0.30805820875E+03  0.00000000000E+00 0.  1.
          4    1    6    6  503    0 -0.14896914086E+03  0.24729968068E+03 -0.13937662201E+03  0.32058505853E+03  0.00000000000E+00 0. -1.
         -4    1    6    6    0  503 -0.26063638008E+02 -0.55215562088E+00 -0.48258709055E+01  0.26512395819E+02  0.00000000000E+00 0.  1.
<mgrwt>
<rscale>  0 0.13961336E+04</rscale>
<asrwt>0</asrwt>
<pdfrwt beam="1">  1        2 0.18750210E+00 0.13961336E+04</pdfrwt>
<pdfrwt beam="2">  1       -1 0.61512178E-01 0.13961336E+04</pdfrwt>
<totfact> 0.54921839E+01</totfact>
</mgrwt>
</event>
<event>
12    6  0.1542110E-007  0.1041842E+04  0.7818608E-02  0.9263807E-01
         -1   -1    0    0    0  501 -0.00000000000E+00  0.00000000000E+00  0.20316924506E+03  0.20316924506E+03  0.00000000000E+00 0.  1.
          2   -1    0    0  501    0  0.00000000000E+00 -0.00000000000E+00 -0.13356285273E+04  0.13356285273E+04  0.00000000000E+00 0. -1.
         24    2    1    2    0    0  0.15335417267E+02 -0.25804655394E+02  0.68474554022E+01  0.84679196238E+02  0.78883606454E+02 0.  0.
        254    2    1    2    0    0 -0.15335417267E+02  0.25804655394E+02 -0.11393067377E+04  0.14541185762E+04  0.90307249751E+03 0.  0.
         23    2    4    4    0    0 -0.11211662339E+03  0.67195771671E+02 -0.12596937098E+04  0.12696657690E+04  0.90208167821E+02 0.  0.
         23    2    4    4    0    0  0.96781206120E+02 -0.41391116277E+02  0.12038697213E+03  0.18445280714E+03  0.91923819754E+02 0.  0.
          4    1    3    3  502    0 -0.94083815206E+01  0.97289483052E+01 -0.26679868211E+02  0.29916307354E+02  0.00000000000E+00 0. -1.
         -3    1    3    3    0  502  0.24743798787E+02 -0.35533603699E+02  0.33527323613E+02  0.54762888884E+02  0.00000000000E+00 0.  1.
         11    1    5    5    0    0 -0.93056121781E+02  0.77443420580E+02 -0.76690246092E+03  0.77639958125E+03  0.00000000000E+00 0.  1.
        -11    1    5    5    0    0 -0.19060501606E+02 -0.10247648909E+02 -0.49279124889E+03  0.49326618778E+03  0.00000000000E+00 0. -1.
          1    1    6    6  503    0  0.71923488298E+02  0.17284180108E+02  0.48829366930E+02  0.88634294298E+02  0.00000000000E+00 0. -1.
         -1    1    6    6    0  503  0.24857717823E+02 -0.58675296385E+02  0.71557605196E+02  0.95818512838E+02  0.00000000000E+00 0.  1.
<mgrwt>
<rscale>  0 0.10418419E+04</rscale>
<asrwt>0</asrwt>
<pdfrwt beam="1">  1        2 0.20548131E+00 0.10418419E+04</pdfrwt>
<pdfrwt beam="2">  1       -1 0.31256807E-01 0.10418419E+04</pdfrwt>
<totfact> 0.16962348E+02</totfact>
</mgrwt>
</event>
<event>
12    6  0.1542110E-007  0.1622458E+04  0.7818608E-02  0.8806869E-01
         -1   -1    0    0    0  501 -0.00000000000E+00  0.00000000000E+00  0.39577337306E+03  0.39577337306E+03  0.00000000000E+00 0.  1.
          2   -1    0    0  501    0  0.00000000000E+00 -0.00000000000E+00 -0.16628010937E+04  0.16628010937E+04  0.00000000000E+00 0. -1.
         24    2    1    2    0    0 -0.10493641822E+03 -0.28755629135E+03 -0.10336708876E+04  0.10809676054E+04  0.79468153544E+02 0.  0.
        254    2    1    2    0    0  0.10493641822E+03  0.28755629135E+03 -0.23335683299E+03  0.97760686134E+03  0.89864313900E+03 0.  0.
         23    2    4    4    0    0  0.41156896936E+03 -0.11211882202E+03 -0.12613349113E+03  0.45461984594E+03  0.93861067291E+02 0.  0.
         23    2    4    4    0    0 -0.30663255113E+03  0.39967511337E+03 -0.10722334186E+03  0.52298701539E+03  0.90856235729E+02 0.  0.
          2    1    3    3  502    0 -0.69141398368E+02 -0.12025168929E+03 -0.57302408821E+03  0.58957408984E+03  0.00000000000E+00 0. -1.
         -3    1    3    3    0  502 -0.35795019857E+02 -0.16730460205E+03 -0.46064679940E+03  0.49139351554E+03  0.00000000000E+00 0.  1.
         11    1    5    5    0    0  0.37497668645E+03 -0.98768695366E+02 -0.14145715629E+03  0.41276251966E+03  0.00000000000E+00 0. -1.
        -11    1    5    5    0    0  0.36592282902E+02 -0.13350126658E+02  0.15323665163E+02  0.41857326286E+02  0.00000000000E+00 0.  1.
          1    1    6    6  503    0 -0.59686490018E+02  0.43081210648E+02  0.84000725701E+01  0.74087981621E+02  0.00000000000E+00 0. -1.
         -1    1    6    6    0  503 -0.24694606111E+03  0.35659390272E+03 -0.11562341443E+03  0.44889903377E+03  0.00000000000E+00 0.  1.
<mgrwt>
<rscale>  0 0.16224579E+04</rscale>
<asrwt>0</asrwt>
<pdfrwt beam="1">  1        2 0.25581555E+00 0.16224579E+04</pdfrwt>
<pdfrwt beam="2">  1       -1 0.60888212E-01 0.16224579E+04</pdfrwt>
<totfact> 0.30686050E+01</totfact>
</mgrwt>
</event>
<event>
12    6  0.1542110E-007  0.2428316E+04  0.7818608E-02  0.8428978E-01
         -3   -1    0    0    0  501 -0.00000000000E+00  0.00000000000E+00  0.91617690763E+03  0.91617690763E+03  0.00000000000E+00 0.  1.
          4   -1    0    0  501    0  0.00000000000E+00 -0.00000000000E+00 -0.16090561878E+04  0.16090561878E+04  0.00000000000E+00 0. -1.
         24    2    1    2    0    0 -0.36967664733E+03 -0.33789166276E+03 -0.12530996282E+04  0.13518285087E+04  0.79687135283E+02 0.  0.
        254    2    1    2    0    0  0.36967664733E+03  0.33789166276E+03  0.56022034801E+03  0.11734045867E+04  0.90122133043E+03 0.  0.
         23    2    4    4    0    0  0.31228341834E+03  0.63232147066E+03  0.44869765131E+03  0.84085574299E+03  0.91418940000E+02 0.  0.
         23    2    4    4    0    0  0.57393228991E+02 -0.29442980790E+03  0.11152269670E+03  0.33254884371E+03  0.90379904087E+02 0.  0.
          2    1    3    3  502    0 -0.33300865691E+03 -0.26587837953E+03 -0.10394604584E+04  0.11234162732E+04  0.00000000000E+00 0. -1.
         -1    1    3    3    0  502 -0.36667990418E+02 -0.72013283237E+02 -0.21363916974E+03  0.22841223552E+03  0.00000000000E+00 0.  1.
         11    1    5    5    0    0  0.18232117745E+03  0.40862498177E+03  0.33131217009E+03  0.55676129672E+03  0.00000000000E+00 0.  1.
        -11    1    5    5    0    0  0.12996224088E+03  0.22369648889E+03  0.11738548122E+03  0.28409444626E+03  0.00000000000E+00 0. -1.
          1    1    6    6  503    0  0.25641521659E+02 -0.78665131785E+02  0.74506339754E+02  0.11134130076E+03  0.00000000000E+00 0. -1.
         -1    1    6    6    0  503  0.31751707332E+02 -0.21576467611E+03  0.37016356942E+02  0.22120754295E+03  0.00000000000E+00 0.  1.
<mgrwt>
<rscale>  0 0.24283164E+04</rscale>
<asrwt>0</asrwt>
<pdfrwt beam="1">  1        4 0.24754710E+00 0.24283164E+04</pdfrwt>
<pdfrwt beam="2">  1       -3 0.14095030E+00 0.24283164E+04</pdfrwt>
<totfact> 0.50566625E-02</totfact>
</mgrwt>
</event>
<event>
12    6  0.1542110E-007  0.1528359E+04  0.7818608E-02  0.8865810E-01
          2   -1    0    0  501    0  0.00000000000E+00  0.00000000000E+00  0.88701330540E+03  0.88701330540E+03  0.00000000000E+00 0. -1.
         -1   -1    0    0    0  501 -0.00000000000E+00 -0.00000000000E+00 -0.65835596968E+03  0.65835596968E+03  0.00000000000E+00 0.  1.
         24    2    1    2    0    0 -0.20786032795E+03  0.16945505413E+02  0.53455831000E+03  0.57938757028E+03  0.80276420729E+02 0.  0.
        254    2    1    2    0    0  0.20786032795E+03 -0.16945505413E+02 -0.30590097428E+03  0.96598170480E+03  0.89221756420E+03 0.  0.
         23    2    4    4    0    0 -0.30009677500E+03 -0.11918111038E+03 -0.28260886855E+03  0.43920587900E+03  0.93657995567E+02 0.  0.
         23    2    4    4    0    0  0.50795710294E+03  0.10223560496E+03 -0.23292105731E+02  0.52677582580E+03  0.92074486744E+02 0.  0.
          2    1    3    3  502    0 -0.14236035318E+03  0.14567808198E+02  0.25660291704E+03  0.29380903361E+03  0.00000000000E+00 0. -1.
         -1    1    3    3    0  502 -0.65499974761E+02  0.23776972153E+01  0.27795539295E+03  0.28557853668E+03  0.00000000000E+00 0.  1.
         11    1    5    5    0    0 -0.21741750781E+03 -0.88377610838E+02 -0.25543898497E+03  0.34688622031E+03  0.00000000000E+00 0. -1.
        -11    1    5    5    0    0 -0.82679267189E+02 -0.30803499539E+02 -0.27169883572E+02  0.92319658687E+02  0.00000000000E+00 0.  1.
          1    1    6    6  503    0  0.31050825859E+03  0.55576196624E+02  0.30400837239E+02  0.31690424924E+03  0.00000000000E+00 0. -1.
         -1    1    6    6    0  503  0.19744884435E+03  0.46659408341E+02 -0.53692942971E+02  0.20987157656E+03  0.00000000000E+00 0.  1.
<mgrwt>
<rscale>  0 0.15283593E+04</rscale>
<asrwt>0</asrwt>
<pdfrwt beam="1">  1        2 0.13646359E+00 0.15283593E+04</pdfrwt>
<pdfrwt beam="2">  1       -1 0.10128553E+00 0.15283593E+04</pdfrwt>
<totfact> 0.30486059E+01</totfact>
</mgrwt>
</event>
<event>
12    6  0.1542110E-007  0.2081440E+04  0.7818608E-02  0.8569464E-01
         -1   -1    0    0    0  501 -0.00000000000E+00  0.00000000000E+00  0.38780539811E+03  0.38780539811E+03  0.00000000000E+00 0.  1.
          2   -1    0    0  501    0  0.00000000000E+00 -0.00000000000E+00 -0.27928900295E+04  0.27928900295E+04  0.00000000000E+00 0. -1.
         24    2    1    2    0    0 -0.10448958060E+03 -0.15812623498E+03 -0.22419771426E+04  0.22513662335E+04  0.79160793217E+02 0.  0.
        254    2    1    2    0    0  0.10448958060E+03  0.15812623498E+03 -0.16310748885E+03  0.92932919408E+03  0.89505682468E+03 0.  0.
         23    2    4    4    0    0  0.34329306193E+03  0.19463095456E+02  0.24188466961E+03  0.42974334035E+03  0.89119059271E+02 0.  0.
         23    2    4    4    0    0 -0.23880348132E+03  0.13866313953E+03 -0.40499215846E+03  0.49958585374E+03  0.96502890543E+02 0.  0.
          4    1    3    3  502    0 -0.10031384687E+03 -0.15865509966E+03 -0.22369410839E+04  0.22448028246E+04  0.00000000000E+00 0. -1.
         -3    1    3    3    0  502 -0.41757337357E+01  0.52886467785E+00 -0.50360586231E+01  0.65634089111E+01  0.00000000000E+00 0.  1.
         11    1    5    5    0    0  0.24424998731E+03  0.25041092500E+02  0.12209754832E+03  0.27421328181E+03  0.00000000000E+00 0. -1.
        -11    1    5    5    0    0  0.99043074619E+02 -0.55779970441E+01  0.11978712130E+03  0.15553005854E+03  0.00000000000E+00 0.  1.
          3    1    6    6  503    0 -0.11972412317E+03  0.24143923036E+02 -0.12693981001E+03  0.17615479004E+03  0.00000000000E+00 0. -1.
         -3    1    6    6    0  503 -0.11907935815E+03  0.11451921649E+03 -0.27805234845E+03  0.32343106370E+03  0.00000000000E+00 0.  1.
<mgrwt>
<rscale>  0 0.20814397E+04</rscale>
<asrwt>0</asrwt>
<pdfrwt beam="1">  1        2 0.42967541E+00 0.20814397E+04</pdfrwt>
<pdfrwt beam="2">  1       -1 0.59662366E-01 0.20814397E+04</pdfrwt>
<totfact> 0.69949186E+00</totfact>
</mgrwt>
</event>
<event>
12    6  0.1542110E-007  0.1285325E+04  0.7818608E-02  0.9041284E-01
          2   -1    0    0  501    0  0.00000000000E+00  0.00000000000E+00  0.26007884124E+03  0.26007884124E+03  0.00000000000E+00 0. -1.
         -1   -1    0    0    0  501 -0.00000000000E+00 -0.00000000000E+00 -0.15880373336E+04  0.15880373336E+04  0.00000000000E+00 0.  1.
         24    2    1    2    0    0  0.15579860627E+03  0.23443492878E+03 -0.12100892855E+03  0.31656484588E+03  0.79606528094E+02 0.  0.
        254    2    1    2    0    0 -0.15579860627E+03 -0.23443492878E+03 -0.12069495638E+04  0.15315513289E+04  0.89982736237E+03 0.  0.
         23    2    4    4    0    0 -0.84483856657E+02  0.26788099964E+03 -0.10268933555E+03  0.31245412149E+03  0.90469477705E+02 0.  0.
         23    2    4    4    0    0 -0.71314749609E+02 -0.50231592842E+03 -0.11042602282E+04  0.12190972074E+04  0.96954958870E+02 0.  0.
          4    1    3    3  502    0 -0.93039660766E+01  0.17857084370E+02 -0.67814961832E+01  0.21246833586E+02  0.00000000000E+00 0. -1.
         -3    1    3    3    0  502  0.16510257234E+03  0.21657784441E+03 -0.11422743237E+03  0.29531801230E+03  0.00000000000E+00 0.  1.
         11    1    5    5    0    0 -0.10093164458E+03  0.23065076608E+03 -0.10228072613E+03  0.27175047325E+03  0.00000000000E+00 0.  1.
        -11    1    5    5    0    0  0.16447787926E+02  0.37230233565E+02 -0.40860941655E+00  0.40703648247E+02  0.00000000000E+00 0. -1.
          3    1    6    6  503    0 -0.54562545996E+01  0.25720827166E+01 -0.25633323503E+02  0.26333507126E+02  0.00000000000E+00 0. -1.
         -3    1    6    6    0  503 -0.65858495009E+02 -0.50488801114E+03 -0.10786269047E+04  0.11927637003E+04  0.00000000000E+00 0.  1.
<mgrwt>
<rscale>  0 0.12853247E+04</rscale>
<asrwt>0</asrwt>
<pdfrwt beam="1">  1        2 0.40012129E-01 0.12853247E+04</pdfrwt>
<pdfrwt beam="2">  1       -1 0.24431344E+00 0.12853247E+04</pdfrwt>
<totfact> 0.11014735E+01</totfact>
</mgrwt>
</event>
<event>
12    6  0.1542110E-007  0.5924796E+04  0.7818608E-02  0.7699797E-01
         -1   -1    0    0    0  501 -0.00000000000E+00  0.00000000000E+00  0.20244863972E+04  0.20244863972E+04  0.00000000000E+00 0.  1.
          2   -1    0    0  501    0  0.00000000000E+00 -0.00000000000E+00 -0.43348290875E+04  0.43348290875E+04  0.00000000000E+00 0. -1.
         24    2    1    2    0    0  0.21609905769E+04  0.14612745911E+04 -0.24689010449E+04  0.35925959239E+04  0.77906349259E+02 0.  0.
        254    2    1    2    0    0 -0.21609905769E+04 -0.14612745911E+04  0.15855835453E+03  0.27667195607E+04  0.90796072143E+03 0.  0.
         23    2    4    4    0    0 -0.55962524503E+03 -0.48043959708E+02 -0.19122088003E+03  0.60051933604E+03  0.92571113541E+02 0.  0.
         23    2    4    4    0    0 -0.16013653319E+04 -0.14132306314E+04  0.34977923456E+03  0.21662002247E+04  0.92120338100E+02 0.  0.
          2    1    3    3  502    0  0.10216632204E+04  0.64924440402E+03 -0.11699297741E+04  0.16834636047E+04  0.00000000000E+00 0. -1.
         -1    1    3    3    0  502  0.11393273565E+04  0.81203018711E+03 -0.12989712707E+04  0.19091323192E+04  0.00000000000E+00 0.  1.
         11    1    5    5    0    0 -0.69592527158E+02 -0.37193751928E+02 -0.21060989689E+02  0.81670437157E+02  0.00000000000E+00 0. -1.
        -11    1    5    5    0    0 -0.49003271787E+03 -0.10850207780E+02 -0.17015989034E+03  0.51884889888E+03  0.00000000000E+00 0.  1.
          3    1    6    6  503    0 -0.65832160175E+02 -0.52164221642E+02  0.31695241026E+02  0.89775094745E+02  0.00000000000E+00 0. -1.
         -3    1    6    6    0  503 -0.15355331717E+04 -0.13610664098E+04  0.31808399354E+03  0.20764251299E+04  0.00000000000E+00 0.  1.
<mgrwt>
<rscale>  0 0.59247962E+04</rscale>
<asrwt>0</asrwt>
<pdfrwt beam="1">  1        2 0.66689678E+00 0.59247962E+04</pdfrwt>
<pdfrwt beam="2">  1       -1 0.31145945E+00 0.59247962E+04</pdfrwt>
<totfact> 0.37378200E-03</totfact>
</mgrwt>
</event>
<event>
12    6  0.1542110E-007  0.1382448E+04  0.7818608E-02  0.8966623E-01
         -1   -1    0    0    0  501 -0.00000000000E+00  0.00000000000E+00  0.23578935488E+03  0.23578935488E+03  0.00000000000E+00 0.  1.
          2   -1    0    0  501    0  0.00000000000E+00 -0.00000000000E+00 -0.20263441259E+04  0.20263441259E+04  0.00000000000E+00 0. -1.
         24    2    1    2    0    0  0.10850496881E+03 -0.31242996063E+02 -0.11478986466E+04  0.11562065525E+04  0.79955212103E+02 0.  0.
        254    2    1    2    0    0 -0.10850496881E+03  0.31242996063E+02 -0.64265612438E+03  0.11059269283E+04  0.89292666190E+03 0.  0.
         23    2    4    4    0    0 -0.34978232461E+02 -0.12050721398E+03  0.19351533829E+03  0.24815743394E+03  0.91588539134E+02 0.  0.
         23    2    4    4    0    0 -0.73526736349E+02  0.15175021004E+03 -0.83617146268E+03  0.85776949438E+03  0.90285565240E+02 0.  0.
          2    1    3    3  502    0  0.11487118346E+03 -0.44861753326E+02 -0.10249985379E+04  0.10323904147E+04  0.00000000000E+00 0. -1.
         -1    1    3    3    0  502 -0.63662146505E+01  0.13618757262E+02 -0.12290010873E+03  0.12381613774E+03  0.00000000000E+00 0.  1.
         11    1    5    5    0    0 -0.17700621579E+02 -0.12499918283E+03  0.19259150092E+03  0.23028155362E+03  0.00000000000E+00 0. -1.
        -11    1    5    5    0    0 -0.17277610883E+02  0.44919688481E+01  0.92383737570E+00  0.17875880326E+02  0.00000000000E+00 0.  1.
          2    1    6    6  503    0 -0.66326708004E+02  0.50625714768E+02 -0.27021161712E+03  0.28280119027E+03  0.00000000000E+00 0. -1.
         -2    1    6    6    0  503 -0.72000283451E+01  0.10112449527E+03 -0.56595984556E+03  0.57496830411E+03  0.00000000000E+00 0.  1.
<mgrwt>
<rscale>  0 0.13824476E+04</rscale>
<asrwt>0</asrwt>
<pdfrwt beam="1">  1        2 0.31174523E+00 0.13824476E+04</pdfrwt>
<pdfrwt beam="2">  1       -1 0.36275288E-01 0.13824476E+04</pdfrwt>
<totfact> 0.52209552E+01</totfact>
</mgrwt>
</event>
<event>
12    6  0.1542110E-007  0.1561835E+04  0.7818608E-02  0.8844344E-01
         -1   -1    0    0    0  501 -0.00000000000E+00  0.00000000000E+00  0.28092879977E+03  0.28092879977E+03  0.00000000000E+00 0.  1.
          2   -1    0    0  501    0  0.00000000000E+00 -0.00000000000E+00 -0.21707708587E+04  0.21707708587E+04  0.00000000000E+00 0. -1.
         24    2    1    2    0    0  0.15514498048E+03  0.14104339471E+03  0.10499722167E+03  0.24803651983E+03  0.80836219910E+02 0.  0.
        254    2    1    2    0    0 -0.15514498048E+03 -0.14104339471E+03 -0.19948392806E+04  0.22036631386E+04  0.91257014471E+03 0.  0.
         23    2    4    4    0    0 -0.49727741397E+02 -0.47188974297E+03 -0.63628757458E+03  0.79830231694E+03  0.85275634709E+02 0.  0.
         23    2    4    4    0    0 -0.10541723909E+03  0.33084634826E+03 -0.13585517060E+04  0.14053608217E+04  0.93830702896E+02 0.  0.
          2    1    3    3  502    0  0.85759807317E+02  0.24765784145E+02  0.44197599508E+02  0.99606809093E+02  0.00000000000E+00 0. -1.
         -1    1    3    3    0  502  0.69385173167E+02  0.11627761056E+03  0.60799622162E+02  0.14842971073E+03  0.00000000000E+00 0.  1.
         11    1    5    5    0    0 -0.63175593905E+02 -0.36080095281E+03 -0.44153485582E+03  0.57369112955E+03  0.00000000000E+00 0.  1.
        -11    1    5    5    0    0  0.13447852509E+02 -0.11108879015E+03 -0.19475271877E+03  0.22461118739E+03  0.00000000000E+00 0. -1.
          2    1    6    6  503    0  0.98623067838E+01  0.89614866797E+02 -0.41374268972E+03  0.42345141721E+03  0.00000000000E+00 0. -1.
         -2    1    6    6    0  503 -0.11527954587E+03  0.24123148146E+03 -0.94480901630E+03  0.98190940449E+03  0.00000000000E+00 0.  1.
<mgrwt>
<rscale>  0 0.15618349E+04</rscale>
<asrwt>0</asrwt>
<pdfrwt beam="1">  1        2 0.33396475E+00 0.15618349E+04</pdfrwt>
<pdfrwt beam="2">  1       -1 0.43219815E-01 0.15618349E+04</pdfrwt>
<totfact> 0.31040962E+01</totfact>
</mgrwt>
</event>
<event>
12    6  0.1542110E-007  0.1630797E+04  0.7818608E-02  0.8801849E-01
          2   -1    0    0  501    0  0.00000000000E+00  0.00000000000E+00  0.38459572141E+04  0.38459572141E+04  0.00000000000E+00 0. -1.
         -1   -1    0    0    0  501 -0.00000000000E+00 -0.00000000000E+00 -0.17287616961E+03  0.17287616961E+03  0.00000000000E+00 0.  1.
         24    2    1    2    0    0  0.50431767667E+03  0.25030896678E+03  0.11725754218E+04  0.13032074918E+04  0.80160769722E+02 0.  0.
        254    2    1    2    0    0 -0.50431767667E+03 -0.25030896678E+03  0.25005056227E+04  0.27156258919E+04  0.89727627737E+03 0.  0.
         23    2    4    4    0    0 -0.44280861143E+03  0.21223488909E+02  0.43045048467E+03  0.62488302230E+03  0.93065938817E+02 0.  0.
         23    2    4    4    0    0 -0.61509065235E+02 -0.27153245569E+03  0.20700551380E+04  0.20907428696E+04  0.92543140375E+02 0.  0.
          4    1    3    3  502    0  0.63042819088E+02  0.62180198687E+02  0.16463718075E+03  0.18693896178E+03  0.00000000000E+00 0. -1.
         -3    1    3    3    0  502  0.44127485758E+03  0.18812876810E+03  0.10079382410E+04  0.11162685300E+04  0.00000000000E+00 0.  1.
         11    1    5    5    0    0 -0.38686088664E+03  0.81535792403E+01  0.32728132004E+03  0.50679472068E+03  0.00000000000E+00 0. -1.
        -11    1    5    5    0    0 -0.55947724794E+02  0.13069909669E+02  0.10316916464E+03  0.11808830162E+03  0.00000000000E+00 0.  1.
          3    1    6    6  503    0 -0.22070729471E+02 -0.21755508645E+03  0.13504965682E+04  0.13680856382E+04  0.00000000000E+00 0. -1.
         -3    1    6    6    0  503 -0.39438335764E+02 -0.53977369239E+02  0.71955856986E+03  0.72265723146E+03  0.00000000000E+00 0.  1.
<mgrwt>
<rscale>  0 0.16307966E+04</rscale>
<asrwt>0</asrwt>
<pdfrwt beam="1">  1        2 0.59168566E+00 0.16307966E+04</pdfrwt>
<pdfrwt beam="2">  1       -1 0.26596337E-01 0.16307966E+04</pdfrwt>
<totfact> 0.63137197E+00</totfact>
</mgrwt>
</event>
<event>
12    6  0.1542110E-007  0.1335387E+04  0.7818608E-02  0.9001964E-01
          2   -1    0    0  501    0  0.00000000000E+00  0.00000000000E+00  0.12425097551E+04  0.12425097551E+04  0.00000000000E+00 0. -1.
         -1   -1    0    0    0  501 -0.00000000000E+00 -0.00000000000E+00 -0.35880168924E+03  0.35880168924E+03  0.00000000000E+00 0.  1.
         24    2    1    2    0    0 -0.62886028001E+02 -0.19114144729E+03 -0.11401729399E+03  0.24494966356E+03  0.80688840365E+02 0.  0.
        254    2    1    2    0    0  0.62886028001E+02  0.19114144729E+03  0.99772535984E+03  0.13563617808E+04  0.89653314568E+03 0.  0.
         23    2    4    4    0    0 -0.15831672666E+03  0.21782323623E+03  0.10687577426E+04  0.11060587499E+04  0.92799233542E+02 0.  0.
         23    2    4    4    0    0  0.22120275466E+03 -0.26681788940E+02 -0.71032382782E+02  0.25030303083E+03  0.89238059737E+02 0.  0.
          4    1    3    3  502    0 -0.72727613546E+02 -0.11090175916E+03 -0.49641104358E+02  0.14160771589E+03  0.00000000000E+00 0. -1.
         -3    1    3    3    0  502  0.98415855455E+01 -0.80239688127E+02 -0.64376189631E+02  0.10334194767E+03  0.00000000000E+00 0.  1.
         11    1    5    5    0    0 -0.31049997868E+00  0.61562362016E+02  0.27291337766E+03  0.27977085719E+03  0.00000000000E+00 0.  1.
        -11    1    5    5    0    0 -0.15800622668E+03  0.15626087421E+03  0.79584436496E+03  0.82628789276E+03  0.00000000000E+00 0. -1.
          4    1    6    6  503    0  0.18714515563E+03 -0.55665068097E+02 -0.55933378394E+02  0.20310207261E+03  0.00000000000E+00 0. -1.
         -4    1    6    6    0  503  0.34057599036E+02  0.28983279157E+02 -0.15099004388E+02  0.47200958214E+02  0.00000000000E+00 0.  1.
<mgrwt>
<rscale>  0 0.13353870E+04</rscale>
<asrwt>0</asrwt>
<pdfrwt beam="1">  1        2 0.19115534E+00 0.13353870E+04</pdfrwt>
<pdfrwt beam="2">  1       -1 0.55200261E-01 0.13353870E+04</pdfrwt>
<totfact> 0.66072745E+01</totfact>
</mgrwt>
</event>
<event>
12    6  0.1542110E-007  0.1944479E+04  0.7818608E-02  0.8633028E-01
          2   -1    0    0  501    0  0.00000000000E+00  0.00000000000E+00  0.27791870275E+04  0.27791870275E+04  0.00000000000E+00 0. -1.
         -1   -1    0    0    0  501 -0.00000000000E+00 -0.00000000000E+00 -0.34011739901E+03  0.34011739901E+03  0.00000000000E+00 0.  1.
         24    2    1    2    0    0  0.32658361187E+03 -0.43507247131E+03  0.18247468520E+04  0.19055465003E+04  0.73901827281E+02 0.  0.
        254    2    1    2    0    0 -0.32658361187E+03  0.43507247131E+03  0.61432277643E+03  0.12137579262E+04  0.89435502952E+03 0.  0.
         23    2    4    4    0    0 -0.59564592062E+03  0.31302578553E+03  0.22468549156E+03  0.71594462168E+03  0.96508683724E+02 0.  0.
         23    2    4    4    0    0  0.26906230876E+03  0.12204668578E+03  0.38963728486E+03  0.49781330447E+03  0.93332485480E+02 0.  0.
          2    1    3    3  502    0  0.14298259995E+03 -0.20958232537E+03  0.97288046226E+03  0.10054179076E+04  0.00000000000E+00 0. -1.
         -1    1    3    3    0  502  0.18360101191E+03 -0.22549014594E+03  0.85186638977E+03  0.90012859277E+03  0.00000000000E+00 0.  1.
         11    1    5    5    0    0 -0.58661358852E+03  0.31546225779E+03  0.23063514357E+03  0.70485779259E+03  0.00000000000E+00 0.  1.
        -11    1    5    5    0    0 -0.90323321069E+01 -0.24364722606E+01 -0.59496520061E+01  0.11086829094E+02  0.00000000000E+00 0. -1.
          3    1    6    6  503    0 -0.57842658124E+01  0.57811346469E+01  0.26780083585E+02  0.28000930799E+02  0.00000000000E+00 0. -1.
         -3    1    6    6    0  503  0.27484657457E+03  0.11626555114E+03  0.36285720128E+03  0.46981237367E+03  0.00000000000E+00 0.  1.
<mgrwt>
<rscale>  0 0.19444792E+04</rscale>
<asrwt>0</asrwt>
<pdfrwt beam="1">  1        2 0.42756722E+00 0.19444792E+04</pdfrwt>
<pdfrwt beam="2">  1       -1 0.52325756E-01 0.19444792E+04</pdfrwt>
<totfact> 0.93193184E+00</totfact>
</mgrwt>
</event>
<event>
12    6  0.1542110E-007  0.1659690E+04  0.7818608E-02  0.8784695E-01
         -1   -1    0    0    0  501 -0.00000000000E+00  0.00000000000E+00  0.62090586793E+03  0.62090586793E+03  0.00000000000E+00 0.  1.
          2   -1    0    0  501    0  0.00000000000E+00 -0.00000000000E+00 -0.11090930736E+04  0.11090930736E+04  0.00000000000E+00 0. -1.
         24    2    1    2    0    0  0.46615187937E+03  0.14202815492E+03 -0.23405123344E+03  0.54657288185E+03  0.80575206273E+02 0.  0.
        254    2    1    2    0    0 -0.46615187937E+03 -0.14202815492E+03 -0.25413597218E+03  0.11834260596E+04  0.10480661119E+04 0.  0.
         23    2    4    4    0    0 -0.39705175974E+03  0.41284407052E+03 -0.53814226811E+02  0.58267365329E+03  0.92316243205E+02 0.  0.
         23    2    4    4    0    0 -0.69100119634E+02 -0.55487222544E+03 -0.20032174537E+03  0.60075240634E+03  0.90092391208E+02 0.  0.
          4    1    3    3  502    0  0.29576745726E+03  0.86338676785E+02 -0.10429870259E+03  0.32528598993E+03  0.00000000000E+00 0. -1.
         -3    1    3    3    0  502  0.17038442211E+03  0.55689478139E+02 -0.12975253085E+03  0.22128689192E+03  0.00000000000E+00 0.  1.
         11    1    5    5    0    0 -0.12838750910E+03  0.17159270880E+03 -0.56303819295E+02  0.22157962513E+03  0.00000000000E+00 0. -1.
        -11    1    5    5    0    0 -0.26866425064E+03  0.24125136172E+03  0.24895924833E+01  0.36109402816E+03  0.00000000000E+00 0.  1.
          1    1    6    6  503    0 -0.18822138635E+00  0.98441737573E+00 -0.87171145326E+01  0.87745421895E+01  0.00000000000E+00 0. -1.
         -1    1    6    6    0  503 -0.68911898248E+02 -0.55585664282E+03 -0.19160463084E+03  0.59197786415E+03  0.00000000000E+00 0.  1.
<mgrwt>
<rscale>  0 0.16596896E+04</rscale>
<asrwt>0</asrwt>
<pdfrwt beam="1">  1        2 0.17062970E+00 0.16596896E+04</pdfrwt>
<pdfrwt beam="2">  1       -1 0.95523980E-01 0.16596896E+04</pdfrwt>
<totfact> 0.24766649E+01</totfact>
</mgrwt>
</event>
<event>
12    6  0.1542110E-007  0.3033860E+04  0.7818608E-02  0.8234128E-01
          2   -1    0    0  501    0  0.00000000000E+00  0.00000000000E+00  0.35853245993E+04  0.35853245993E+04  0.00000000000E+00 0. -1.
         -1   -1    0    0    0  501 -0.00000000000E+00 -0.00000000000E+00 -0.64180406406E+03  0.64180406406E+03  0.00000000000E+00 0.  1.
         24    2    1    2    0    0  0.11747280630E+04  0.70782985874E+03  0.11384948440E+04  0.17840555585E+04  0.75329907182E+02 0.  0.
        254    2    1    2    0    0 -0.11747280630E+04 -0.70782985874E+03  0.18050256912E+04  0.24430731049E+04  0.91075755206E+03 0.  0.
         23    2    4    4    0    0 -0.10999631530E+03 -0.46669636823E+03  0.27157302003E+03  0.55852173748E+03  0.91049088604E+02 0.  0.
         23    2    4    4    0    0 -0.10647317477E+04 -0.24113349052E+03  0.15334526712E+04  0.18845513674E+04  0.90871923951E+02 0.  0.
          2    1    3    3  502    0  0.11730759844E+04  0.70109677588E+03  0.11333376442E+04  0.17754149290E+04  0.00000000000E+00 0. -1.
         -1    1    3    3    0  502  0.16520786935E+01  0.67330828585E+01  0.51571997801E+01  0.86406295119E+01  0.00000000000E+00 0.  1.
         11    1    5    5    0    0 -0.46157425247E+02 -0.12109605262E+03  0.32940997281E+02  0.13371563546E+03  0.00000000000E+00 0.  1.
        -11    1    5    5    0    0 -0.63838890057E+02 -0.34560031561E+03  0.23863202275E+03  0.42480610202E+03  0.00000000000E+00 0. -1.
          4    1    6    6  503    0 -0.10055778137E+04 -0.22797243736E+03  0.14798945148E+04  0.18036756766E+04  0.00000000000E+00 0. -1.
         -4    1    6    6    0  503 -0.59153934070E+02 -0.13161053160E+02  0.53558156417E+02  0.80875690754E+02  0.00000000000E+00 0.  1.
<mgrwt>
<rscale>  0 0.30338595E+04</rscale>
<asrwt>0</asrwt>
<pdfrwt beam="1">  1        2 0.55158839E+00 0.30338595E+04</pdfrwt>
<pdfrwt beam="2">  1       -1 0.98739088E-01 0.30338595E+04</pdfrwt>
<totfact> 0.67238179E-01</totfact>
</mgrwt>
</event>
<event>
12    6  0.1542110E-007  0.1202570E+04  0.7818608E-02  0.9110610E-01
          2   -1    0    0  501    0  0.00000000000E+00  0.00000000000E+00  0.35614466615E+04  0.35614466615E+04  0.00000000000E+00 0. -1.
         -1   -1    0    0    0  501 -0.00000000000E+00 -0.00000000000E+00 -0.10151588046E+03  0.10151588046E+03  0.00000000000E+00 0.  1.
         24    2    1    2    0    0 -0.20613587979E+03  0.79139319105E+02  0.99944429349E+03  0.10266425983E+04  0.79693763998E+02 0.  0.
        254    2    1    2    0    0  0.20613587979E+03 -0.79139319105E+02  0.24604864875E+04  0.26363199436E+04  0.92056181612E+03 0.  0.
         23    2    4    4    0    0 -0.27260618385E+03  0.80699656284E+01  0.28430074882E+03  0.40451577195E+03  0.91797811271E+02 0.  0.
         23    2    4    4    0    0  0.47874206364E+03 -0.87209284734E+02  0.21761857387E+04  0.22318041717E+04  0.91466216227E+02 0.  0.
          4    1    3    3  502    0 -0.20457450663E+03  0.89923921273E+02  0.93904078836E+03  0.96526402740E+03  0.00000000000E+00 0. -1.
         -3    1    3    3    0  502 -0.15613731557E+01 -0.10784602168E+02  0.60403505130E+02  0.61378570870E+02  0.00000000000E+00 0.  1.
         11    1    5    5    0    0 -0.22902850116E+03  0.41218497174E+02  0.23722188605E+03  0.33230594649E+03  0.00000000000E+00 0. -1.
        -11    1    5    5    0    0 -0.43577682696E+02 -0.33148531546E+02  0.47078862769E+02  0.72209825456E+02  0.00000000000E+00 0.  1.
          1    1    6    6  503    0  0.33064399504E+03 -0.87166672056E+02  0.13626363940E+04  0.14048848431E+04  0.00000000000E+00 0. -1.
         -1    1    6    6    0  503  0.14809806860E+03 -0.42612677453E-01  0.81354934471E+03  0.82691932861E+03  0.00000000000E+00 0.  1.
<mgrwt>
<rscale>  0 0.12025696E+04</rscale>
<asrwt>0</asrwt>
<pdfrwt beam="1">  1        2 0.54791477E+00 0.12025696E+04</pdfrwt>
<pdfrwt beam="2">  1       -1 0.15617831E-01 0.12025696E+04</pdfrwt>
<totfact> 0.26166415E+01</totfact>
</mgrwt>
</event>
<event>
12    6  0.1542110E-007  0.2164726E+04  0.7818608E-02  0.8533255E-01
          2   -1    0    0  501    0  0.00000000000E+00  0.00000000000E+00  0.17977796304E+04  0.17977796304E+04  0.00000000000E+00 0. -1.
         -1   -1    0    0    0  501 -0.00000000000E+00 -0.00000000000E+00 -0.65164229784E+03  0.65164229784E+03  0.00000000000E+00 0.  1.
         24    2    1    2    0    0  0.43427304421E+03 -0.53088809143E+03 -0.17446335591E+03  0.71254752591E+03  0.82772408316E+02 0.  0.
        254    2    1    2    0    0 -0.43427304421E+03  0.53088809143E+03  0.13206006884E+04  0.17368744023E+04  0.89571829753E+03 0.  0.
         23    2    4    4    0    0 -0.46080587727E+03  0.88641222834E+02  0.11637108287E+04  0.12579689801E+04  0.89798325116E+02 0.  0.
         23    2    4    4    0    0  0.26532833055E+02  0.44224686860E+03  0.15688985970E+03  0.47890542216E+03  0.91922202314E+02 0.  0.
          2    1    3    3  502    0  0.55530077961E+02 -0.72135271480E+02  0.50040849123E+01  0.91170871531E+02  0.00000000000E+00 0. -1.
         -1    1    3    3    0  502  0.37874296625E+03 -0.45875281995E+03 -0.17946744082E+03  0.62137665438E+03  0.00000000000E+00 0.  1.
         11    1    5    5    0    0 -0.47281881337E+02  0.24318874595E+02  0.78040492542E+02  0.94431469546E+02  0.00000000000E+00 0. -1.
        -11    1    5    5    0    0 -0.41352399593E+03  0.64322348239E+02  0.10856703362E+04  0.11635375106E+04  0.00000000000E+00 0.  1.
          2    1    6    6  503    0  0.25972519348E+02  0.88444820721E+02  0.66724088967E+02  0.11379438528E+03  0.00000000000E+00 0. -1.
         -2    1    6    6    0  503  0.56031370603E+00  0.35380204788E+03  0.90165770735E+02  0.36511103687E+03  0.00000000000E+00 0.  1.
<mgrwt>
<rscale>  0 0.21647256E+04</rscale>
<asrwt>0</asrwt>
<pdfrwt beam="1">  1        2 0.27658148E+00 0.21647256E+04</pdfrwt>
<pdfrwt beam="2">  1       -1 0.10025266E+00 0.21647256E+04</pdfrwt>
<totfact> 0.85584664E+00</totfact>
</mgrwt>
</event>
<event>
12    6  0.1542110E-007  0.2291107E+04  0.7818608E-02  0.8481436E-01
         -3   -1    0    0    0  501 -0.00000000000E+00  0.00000000000E+00  0.14950141162E+04  0.14950141162E+04  0.00000000000E+00 0.  1.
          4   -1    0    0  501    0  0.00000000000E+00 -0.00000000000E+00 -0.87777985979E+03  0.87777985979E+03  0.00000000000E+00 0. -1.
         24    2    1    2    0    0  0.15604322511E+03  0.89424847096E+03  0.42360028827E+02  0.91222382570E+03  0.79549482808E+02 0.  0.
        254    2    1    2    0    0 -0.15604322511E+03 -0.89424847096E+03  0.57487422762E+03  0.14605701503E+04  0.98932045895E+03 0.  0.
         23    2    4    4    0    0 -0.33434349525E+02 -0.10828856995E+04  0.54099102209E+03  0.12144305540E+04  0.91711452149E+02 0.  0.
         23    2    4    4    0    0 -0.12260887559E+03  0.18863722856E+03  0.33883205538E+02  0.24613959636E+03  0.93913198797E+02 0.  0.
          2    1    3    3  502    0  0.92535716462E+02  0.59469835086E+03 -0.79672378514E+01  0.60190735518E+03  0.00000000000E+00 0. -1.
         -1    1    3    3    0  502  0.63507508651E+02  0.29955012010E+03  0.50327266678E+02  0.31031647053E+03  0.00000000000E+00 0.  1.
         11    1    5    5    0    0  0.87880951537E+01 -0.17396164354E+02  0.19088745064E+01  0.19583180348E+02  0.00000000000E+00 0.  1.
        -11    1    5    5    0    0 -0.42222444679E+02 -0.10654895352E+04  0.53908214758E+03  0.11948473736E+04  0.00000000000E+00 0. -1.
          3    1    6    6  503    0 -0.12819106873E+03  0.12313322325E+03  0.30188345503E+02  0.18029441748E+03  0.00000000000E+00 0. -1.
         -3    1    6    6    0  503  0.55821931384E+01  0.65504005308E+02  0.36948600351E+01  0.65845178884E+02  0.00000000000E+00 0.  1.
<mgrwt>
<rscale>  0 0.22911074E+04</rscale>
<asrwt>0</asrwt>
<pdfrwt beam="1">  1        4 0.13504306E+00 0.22911074E+04</pdfrwt>
<pdfrwt beam="2">  1       -3 0.23000217E+00 0.22911074E+04</pdfrwt>
<totfact> 0.77957525E-02</totfact>
</mgrwt>
</event>
<event>
12    6  0.1542110E-007  0.2046796E+04  0.7818608E-02  0.8585049E-01
         -1   -1    0    0    0  501 -0.00000000000E+00  0.00000000000E+00  0.98424923431E+03  0.98424923431E+03  0.00000000000E+00 0.  1.
          2   -1    0    0  501    0  0.00000000000E+00 -0.00000000000E+00 -0.10641041360E+04  0.10641041360E+04  0.00000000000E+00 0. -1.
         24    2    1    2    0    0 -0.18641395307E+03  0.78457102733E+03 -0.13734665648E+03  0.82172880478E+03  0.77924744058E+02 0.  0.
        254    2    1    2    0    0  0.18641395307E+03 -0.78457102733E+03  0.57491754764E+02  0.12266245656E+04  0.92249697243E+03 0.  0.
         23    2    4    4    0    0 -0.27126988002E+03 -0.68392894837E+03 -0.25344715506E+02  0.74188124107E+03  0.91647515157E+02 0.  0.
         23    2    4    4    0    0  0.45768383309E+03 -0.10064207896E+03  0.82836470269E+02  0.48474332449E+03  0.92254488779E+02 0.  0.
          2    1    3    3  502    0 -0.76109640442E+02  0.41047015755E+03 -0.10435649423E+03  0.43031233482E+03  0.00000000000E+00 0. -1.
         -1    1    3    3    0  502 -0.11030431263E+03  0.37410086977E+03 -0.32990162252E+02  0.39141646996E+03  0.00000000000E+00 0.  1.
         11    1    5    5    0    0 -0.35509719199E+02 -0.14478405095E+03  0.25538293053E+02  0.15124670568E+03  0.00000000000E+00 0.  1.
        -11    1    5    5    0    0 -0.23576016082E+03 -0.53914489742E+03 -0.50883008558E+02  0.59063453539E+03  0.00000000000E+00 0. -1.
          1    1    6    6  503    0  0.18659594544E+03 -0.64560050277E+02  0.74813268650E+02  0.21114703908E+03  0.00000000000E+00 0. -1.
         -1    1    6    6    0  503  0.27108788765E+03 -0.36082028683E+02  0.80232016192E+01  0.27359628541E+03  0.00000000000E+00 0.  1.
<mgrwt>
<rscale>  0 0.20467962E+04</rscale>
<asrwt>0</asrwt>
<pdfrwt beam="1">  1        2 0.16370833E+00 0.20467962E+04</pdfrwt>
<pdfrwt beam="2">  1       -1 0.15142296E+00 0.20467962E+04</pdfrwt>
<totfact> 0.82343903E+00</totfact>
</mgrwt>
</event>
<event>
12    6  0.1542110E-007  0.1362794E+04  0.7818608E-02  0.8981199E-01
          2   -1    0    0  501    0  0.00000000000E+00  0.00000000000E+00  0.12360818919E+04  0.12360818919E+04  0.00000000000E+00 0. -1.
         -1   -1    0    0    0  501 -0.00000000000E+00 -0.00000000000E+00 -0.37562407236E+03  0.37562407236E+03  0.00000000000E+00 0.  1.
         24    2    1    2    0    0 -0.14328532717E+03  0.24222195819E+01  0.67916369154E+03  0.69732648806E+03  0.66815858260E+02 0.  0.
        254    2    1    2    0    0  0.14328532717E+03 -0.24222195819E+01  0.18129412804E+03  0.91437947624E+03  0.88469526594E+03 0.  0.
         23    2    4    4    0    0 -0.24516716338E+03  0.49046861216E+01 -0.22350207721E+03  0.34424968944E+03  0.91780587346E+02 0.  0.
         23    2    4    4    0    0  0.38845249054E+03 -0.73269057035E+01  0.40479620525E+03  0.57012978680E+03  0.10118787011E+03 0.  0.
          4    1    3    3  502    0 -0.52827478506E+02 -0.67530793633E+01  0.40483254995E+03  0.40832063389E+03  0.00000000000E+00 0. -1.
         -3    1    3    3    0  502 -0.90457848660E+02  0.91752989452E+01  0.27433114159E+03  0.28900585416E+03  0.00000000000E+00 0.  1.
         11    1    5    5    0    0 -0.16990868324E+03 -0.39438813284E+02 -0.14565180469E+03  0.22724178499E+03  0.00000000000E+00 0. -1.
        -11    1    5    5    0    0 -0.75258480138E+02  0.44343499406E+02 -0.77850272521E+02  0.11700790445E+03  0.00000000000E+00 0.  1.
          2    1    6    6  503    0  0.20168946135E+03  0.43630209150E+02  0.18389543633E+03  0.27640507497E+03  0.00000000000E+00 0. -1.
         -2    1    6    6    0  503  0.18676302920E+03 -0.50957114853E+02  0.22090076892E+03  0.29372471183E+03  0.00000000000E+00 0.  1.
<mgrwt>
<rscale>  0 0.13627944E+04</rscale>
<asrwt>0</asrwt>
<pdfrwt beam="1">  1        2 0.19016644E+00 0.13627944E+04</pdfrwt>
<pdfrwt beam="2">  1       -1 0.57788319E-01 0.13627944E+04</pdfrwt>
<totfact> 0.60831587E+01</totfact>
</mgrwt>
</event>
<event>
12    6  0.1542110E-007  0.2618177E+04  0.7818608E-02  0.8362053E-01
          2   -1    0    0  501    0  0.00000000000E+00  0.00000000000E+00  0.22506337959E+04  0.22506337959E+04  0.00000000000E+00 0. -1.
         -1   -1    0    0    0  501 -0.00000000000E+00 -0.00000000000E+00 -0.76143540328E+03  0.76143540328E+03  0.00000000000E+00 0.  1.
         24    2    1    2    0    0  0.19782100699E+03  0.10844772616E+04  0.10677310861E+04  0.15368812137E+04  0.82037254401E+02 0.  0.
        254    2    1    2    0    0 -0.19782100699E+03 -0.10844772616E+04  0.42146730654E+03  0.14751879855E+04  0.88505413412E+03 0.  0.
         23    2    4    4    0    0  0.18031427968E+03 -0.99183474276E+03  0.27151247964E+03  0.10481520694E+04  0.93028691826E+02 0.  0.
         23    2    4    4    0    0 -0.37813528667E+03 -0.92642518839E+02  0.14995482690E+03  0.42703591613E+03  0.91127889456E+02 0.  0.
          2    1    3    3  502    0  0.14303426431E+03  0.87891723782E+03  0.82220850260E+03  0.12120153190E+04  0.00000000000E+00 0. -1.
         -1    1    3    3    0  502  0.54786742680E+02  0.20556002377E+03  0.24552258350E+03  0.32486589473E+03  0.00000000000E+00 0.  1.
         11    1    5    5    0    0  0.41344488083E+02 -0.23798494462E+03  0.24522492123E+02  0.24279117196E+03  0.00000000000E+00 0. -1.
        -11    1    5    5    0    0  0.13896979160E+03 -0.75384979813E+03  0.24698998752E+03  0.80536089740E+03  0.00000000000E+00 0.  1.
          3    1    6    6  503    0 -0.23137505245E+03 -0.66090665160E+02  0.13805421294E+03  0.27741909925E+03  0.00000000000E+00 0. -1.
         -3    1    6    6    0  503 -0.14676023422E+03 -0.26551853679E+02  0.11900613956E+02  0.14961681688E+03  0.00000000000E+00 0.  1.
<mgrwt>
<rscale>  0 0.26181767E+04</rscale>
<asrwt>0</asrwt>
<pdfrwt beam="1">  1        2 0.34625135E+00 0.26181767E+04</pdfrwt>
<pdfrwt beam="2">  1       -1 0.11714391E+00 0.26181767E+04</pdfrwt>
<totfact> 0.31883776E+00</totfact>
</mgrwt>
</event>
<event>
12    6  0.1542110E-007  0.1575059E+04  0.7818608E-02  0.8836018E-01
          2   -1    0    0  501    0  0.00000000000E+00  0.00000000000E+00  0.45961049805E+03  0.45961049805E+03  0.00000000000E+00 0. -1.
         -1   -1    0    0    0  501 -0.00000000000E+00 -0.00000000000E+00 -0.13494101779E+04  0.13494101779E+04  0.00000000000E+00 0.  1.
         24    2    1    2    0    0  0.43578437728E+03 -0.22442484095E+03 -0.50668988602E+03  0.70950312969E+03  0.79909434501E+02 0.  0.
        254    2    1    2    0    0 -0.43578437728E+03  0.22442484095E+03 -0.38310979381E+03  0.10995175463E+04  0.90658214614E+03 0.  0.
         23    2    4    4    0    0 -0.43521492153E+03  0.50592927308E+03 -0.43110764654E+03  0.79990631709E+03  0.92843179242E+02 0.  0.
         23    2    4    4    0    0 -0.56945574206E+00 -0.28150443213E+03  0.47997852727E+02  0.29961122917E+03  0.90653324213E+02 0.  0.
          4    1    3    3  502    0  0.50631819290E+02 -0.63986121471E+01 -0.30750020051E+02  0.59582607321E+02  0.00000000000E+00 0. -1.
         -3    1    3    3    0  502  0.38515255799E+03 -0.21802622880E+03 -0.47593986597E+03  0.64992052237E+03  0.00000000000E+00 0.  1.
         11    1    5    5    0    0 -0.42307543567E+03  0.50819606554E+03 -0.42564301979E+03  0.78640196184E+03  0.00000000000E+00 0.  1.
        -11    1    5    5    0    0 -0.12139485863E+02 -0.22667924592E+01 -0.54646267440E+01  0.13504355243E+02  0.00000000000E+00 0. -1.
          4    1    6    6  503    0  0.88980827687E+01 -0.28214228454E+03  0.55286951634E+02  0.28764577456E+03  0.00000000000E+00 0.  1.
         -4    1    6    6    0  503 -0.94675385107E+01  0.63785241044E+00 -0.72890989066E+01  0.11965454610E+02  0.00000000000E+00 0. -1.
<mgrwt>
<rscale>  0 0.15750595E+04</rscale>
<asrwt>0</asrwt>
<pdfrwt beam="1">  1        2 0.70709308E-01 0.15750595E+04</pdfrwt>
<pdfrwt beam="2">  1       -1 0.20760156E+00 0.15750595E+04</pdfrwt>
<totfact> 0.99524176E+00</totfact>
</mgrwt>
</event>
<event>
12    6  0.1542110E-007  0.4121926E+04  0.7818608E-02  0.7980392E-01
          2   -1    0    0  501    0  0.00000000000E+00  0.00000000000E+00  0.31704273721E+04  0.31704273721E+04  0.00000000000E+00 0. -1.
         -1   -1    0    0    0  501 -0.00000000000E+00 -0.00000000000E+00 -0.13397465747E+04  0.13397465747E+04  0.00000000000E+00 0.  1.
         24    2    1    2    0    0  0.16176440094E+04 -0.18452621052E+03  0.20705889077E+04  0.26353213924E+04  0.82209205147E+02 0.  0.
        254    2    1    2    0    0 -0.16176440094E+04  0.18452621052E+03 -0.23990811026E+03  0.18748525544E+04  0.89816153105E+03 0.  0.
         23    2    4    4    0    0 -0.10226356747E+04 -0.87516010968E+02  0.24046288695E+03  0.10581817876E+04  0.92106027243E+02 0.  0.
         23    2    4    4    0    0 -0.59500833472E+03  0.27204222148E+03 -0.48037099720E+03  0.81667076683E+03  0.90293730545E+02 0.  0.
          2    1    3    3  502    0  0.13725872635E+04 -0.14105387205E+03  0.17120126036E+04  0.21988358615E+04  0.00000000000E+00 0. -1.
         -1    1    3    3    0  502  0.24505674588E+03 -0.43472338462E+02  0.35857630406E+03  0.43648553097E+03  0.00000000000E+00 0.  1.
         11    1    5    5    0    0 -0.10479495547E+03 -0.25508584201E+01 -0.27785581454E+01  0.10486281493E+03  0.00000000000E+00 0.  1.
        -11    1    5    5    0    0 -0.91784071922E+03 -0.84965152548E+02  0.24324144509E+03  0.95331897265E+03  0.00000000000E+00 0. -1.
          3    1    6    6  503    0 -0.57472551786E+03  0.27780609675E+03 -0.47238102255E+03  0.79412182865E+03  0.00000000000E+00 0. -1.
         -3    1    6    6    0  503 -0.20282816864E+02 -0.57638752678E+01 -0.79899746557E+01  0.22548938180E+02  0.00000000000E+00 0.  1.
<mgrwt>
<rscale>  0 0.41219264E+04</rscale>
<asrwt>0</asrwt>
<pdfrwt beam="1">  1        2 0.48775805E+00 0.41219264E+04</pdfrwt>
<pdfrwt beam="2">  1       -1 0.20611486E+00 0.41219264E+04</pdfrwt>
<totfact> 0.16412419E-01</totfact>
</mgrwt>
</event>
<event>
12    6  0.1542110E-007  0.1970820E+04  0.7818608E-02  0.8620386E-01
         -1   -1    0    0    0  501 -0.00000000000E+00  0.00000000000E+00  0.94760352155E+03  0.94760352155E+03  0.00000000000E+00 0.  1.
          2   -1    0    0  501    0  0.00000000000E+00 -0.00000000000E+00 -0.10247251296E+04  0.10247251296E+04  0.00000000000E+00 0. -1.
         24    2    1    2    0    0 -0.51799204481E+03  0.51116779688E+03  0.19666367310E+03  0.75807935555E+03  0.79996462018E+02 0.  0.
        254    2    1    2    0    0  0.51799204481E+03 -0.51116779688E+03 -0.27378528113E+03  0.12142492956E+04  0.93264928915E+03 0.  0.
         23    2    4    4    0    0  0.69547492729E+03 -0.12462332232E+03 -0.31431658840E+03  0.77766112997E+03  0.82131409171E+02 0.  0.
         23    2    4    4    0    0 -0.17748288248E+03 -0.38654447457E+03  0.40531307270E+02  0.43658816559E+03  0.89719758566E+02 0.  0.
          4    1    3    3  502    0 -0.10407243512E+03  0.70892207896E+02  0.54946554132E+02  0.13738959460E+03  0.00000000000E+00 0. -1.
         -3    1    3    3    0  502 -0.41391960969E+03  0.44027558899E+03  0.14171711897E+03  0.62068976096E+03  0.00000000000E+00 0.  1.
         11    1    5    5    0    0  0.59795276611E+02 -0.30654096550E+02 -0.45276427600E+02  0.81025327130E+02  0.00000000000E+00 0.  1.
        -11    1    5    5    0    0  0.63567965068E+03 -0.93969225766E+02 -0.26904016080E+03  0.69663580284E+03  0.00000000000E+00 0. -1.
          4    1    6    6  503    0 -0.14569378460E+03 -0.36669855785E+03  0.23099833773E+02  0.39525702210E+03  0.00000000000E+00 0. -1.
         -4    1    6    6    0  503 -0.31789097877E+02 -0.19845916718E+02  0.17431473497E+02  0.41331143493E+02  0.00000000000E+00 0.  1.
<mgrwt>
<rscale>  0 0.19708203E+04</rscale>
<asrwt>0</asrwt>
<pdfrwt beam="1">  1        2 0.15765002E+00 0.19708203E+04</pdfrwt>
<pdfrwt beam="2">  1       -1 0.14578516E+00 0.19708203E+04</pdfrwt>
<totfact> 0.97171618E+00</totfact>
</mgrwt>
</event>
<event>
12    6  0.1542110E-007  0.1187148E+04  0.7818608E-02  0.9124181E-01
         -1   -1    0    0    0  501 -0.00000000000E+00  0.00000000000E+00  0.42388440542E+03  0.42388440542E+03  0.00000000000E+00 0.  1.
          2   -1    0    0  501    0  0.00000000000E+00 -0.00000000000E+00 -0.83119405257E+03  0.83119405257E+03  0.00000000000E+00 0. -1.
         24    2    1    2    0    0 -0.13595351177E+02  0.29500251550E+02 -0.33884903333E+03  0.34981180317E+03  0.80588658224E+02 0.  0.
        254    2    1    2    0    0  0.13595351177E+02 -0.29500251550E+02 -0.68460613813E+02  0.90526665482E+03  0.90208966421E+03 0.  0.
         23    2    4    4    0    0 -0.39556117835E+03 -0.19602425766E+03 -0.61749002351E+02  0.45415241340E+03  0.86875312329E+02 0.  0.
         23    2    4    4    0    0  0.40915652953E+03  0.16652400611E+03 -0.67116114624E+01  0.45111424142E+03  0.91212404958E+02 0.  0.
          4    1    3    3  502    0 -0.36140605476E+02  0.38942653237E+02 -0.29374075282E+03  0.29850678966E+03  0.00000000000E+00 0. -1.
         -3    1    3    3    0  502  0.22545254298E+02 -0.94424016863E+01 -0.45108280511E+02  0.51305013514E+02  0.00000000000E+00 0.  1.
         11    1    5    5    0    0 -0.23274848334E+03 -0.12888516090E+03 -0.78113016602E+02  0.27728123730E+03  0.00000000000E+00 0.  1.
        -11    1    5    5    0    0 -0.16281269501E+03 -0.67139096768E+02  0.16364014251E+02  0.17687117610E+03  0.00000000000E+00 0. -1.
          4    1    6    6  503    0  0.74848725360E+02  0.44222581336E+02  0.32871720911E+02  0.92943630355E+02  0.00000000000E+00 0.  1.
         -4    1    6    6    0  503  0.33430780417E+03  0.12230142478E+03 -0.39583332373E+02  0.35817061107E+03  0.00000000000E+00 0. -1.
<mgrwt>
<rscale>  0 0.11871482E+04</rscale>
<asrwt>0</asrwt>
<pdfrwt beam="1">  1        2 0.12787601E+00 0.11871482E+04</pdfrwt>
<pdfrwt beam="2">  1       -1 0.65212985E-01 0.11871482E+04</pdfrwt>
<totfact> 0.87944191E+01</totfact>
</mgrwt>
</event>
<event>
12    6  0.1542110E-007  0.3084697E+04  0.7818608E-02  0.8219950E-01
          2   -1    0    0  501    0  0.00000000000E+00  0.00000000000E+00  0.32028708723E+04  0.32028708723E+04  0.00000000000E+00 0. -1.
         -1   -1    0    0    0  501 -0.00000000000E+00 -0.00000000000E+00 -0.74272076932E+03  0.74272076932E+03  0.00000000000E+00 0.  1.
         24    2    1    2    0    0 -0.32208386192E+03 -0.60901306000E+02 -0.63142271436E+03  0.71592922813E+03  0.80081410468E+02 0.  0.
        254    2    1    2    0    0  0.32208386192E+03  0.60901306000E+02  0.30915728173E+04  0.32296624135E+04  0.87489990112E+03 0.  0.
         23    2    4    4    0    0  0.36721709460E+03 -0.34643577794E+03  0.18427504222E+04  0.19124406077E+04  0.82666902701E+02 0.  0.
         23    2    4    4    0    0 -0.45133232683E+02  0.40733708394E+03  0.12488223952E+04  0.13172218058E+04  0.86921817110E+02 0.  0.
          4    1    3    3  502    0 -0.38935638149E+02 -0.14496132513E+02 -0.35977024068E+02  0.54958784891E+02  0.00000000000E+00 0. -1.
         -3    1    3    3    0  502 -0.28314822377E+03 -0.46405173487E+02 -0.59544569029E+03  0.66097044324E+03  0.00000000000E+00 0.  1.
         11    1    5    5    0    0  0.27220066299E+03 -0.28229138063E+03  0.15260253709E+04  0.15756062507E+04  0.00000000000E+00 0. -1.
        -11    1    5    5    0    0  0.95016431607E+02 -0.64144397307E+02  0.31672505128E+03  0.33683435705E+03  0.00000000000E+00 0.  1.
          1    1    6    6  503    0 -0.41887845748E+02  0.35087816771E+03  0.11532215915E+04  0.12061468067E+04  0.00000000000E+00 0. -1.
         -1    1    6    6    0  503 -0.32453869352E+01  0.56458916228E+02  0.95600803641E+02  0.11107499905E+03  0.00000000000E+00 0.  1.
<mgrwt>
<rscale>  0 0.30846969E+04</rscale>
<asrwt>0</asrwt>
<pdfrwt beam="1">  1        2 0.49274936E+00 0.30846969E+04</pdfrwt>
<pdfrwt beam="2">  1       -1 0.11426474E+00 0.30846969E+04</pdfrwt>
<totfact> 0.86837185E-01</totfact>
</mgrwt>
</event>
<event>
12    6  0.1542110E-007  0.2511034E+04  0.7818608E-02  0.8399065E-01
          2   -1    0    0  501    0  0.00000000000E+00  0.00000000000E+00  0.17891199148E+04  0.17891199148E+04  0.00000000000E+00 0. -1.
         -1   -1    0    0    0  501 -0.00000000000E+00 -0.00000000000E+00 -0.88106051449E+03  0.88106051449E+03  0.00000000000E+00 0.  1.
         24    2    1    2    0    0  0.69091333615E+03 -0.84111319504E+03  0.50054221325E+03  0.12006522623E+04  0.78681019929E+02 0.  0.
        254    2    1    2    0    0 -0.69091333615E+03  0.84111319504E+03  0.40751718710E+03  0.14695281670E+04  0.89922751894E+03 0.  0.
         23    2    4    4    0    0  0.30314673909E+02  0.36571800086E+03  0.46504873002E+03  0.59912642505E+03  0.89518245578E+02 0.  0.
         23    2    4    4    0    0 -0.72122801006E+03  0.47539519417E+03 -0.57531542923E+02  0.87040174192E+03  0.90104832121E+02 0.  0.
          4    1    3    3  502    0  0.38110479935E+03 -0.42406464614E+03  0.22879754251E+03  0.61434518607E+03  0.00000000000E+00 0. -1.
         -3    1    3    3    0  502  0.30980853680E+03 -0.41704854890E+03  0.27174467075E+03  0.58630707628E+03  0.00000000000E+00 0.  1.
         11    1    5    5    0    0  0.41567356329E+02  0.16461107070E+03  0.26866106239E+03  0.31781034620E+03  0.00000000000E+00 0. -1.
        -11    1    5    5    0    0 -0.11252682419E+02  0.20110693016E+03  0.19638766763E+03  0.28131607885E+03  0.00000000000E+00 0.  1.
          1    1    6    6  503    0 -0.25936084326E+03  0.20146648655E+03  0.13739006096E+02  0.32870283313E+03  0.00000000000E+00 0. -1.
         -1    1    6    6    0  503 -0.46186716680E+03  0.27392870762E+03 -0.71270549019E+02  0.54169890879E+03  0.00000000000E+00 0.  1.
<mgrwt>
<rscale>  0 0.25110340E+04</rscale>
<asrwt>0</asrwt>
<pdfrwt beam="1">  1        2 0.27524922E+00 0.25110340E+04</pdfrwt>
<pdfrwt beam="2">  1       -1 0.13554777E+00 0.25110340E+04</pdfrwt>
<totfact> 0.40458245E+00</totfact>
</mgrwt>
</event>
<event>
12    6  0.1542110E-007  0.1559683E+04  0.7818608E-02  0.8845706E-01
         -1   -1    0    0    0  501 -0.00000000000E+00  0.00000000000E+00  0.53546440082E+03  0.53546440082E+03  0.00000000000E+00 0.  1.
          2   -1    0    0  501    0  0.00000000000E+00 -0.00000000000E+00 -0.11357481204E+04  0.11357481204E+04  0.00000000000E+00 0. -1.
         24    2    1    2    0    0 -0.21276526785E+03  0.25835175452E+03 -0.62606673241E+03  0.71427041545E+03  0.78790765292E+02 0.  0.
        254    2    1    2    0    0  0.21276526785E+03 -0.25835175452E+03  0.25783012883E+02  0.95694210572E+03  0.89613544829E+03 0.  0.
         23    2    4    4    0    0  0.27831812198E+03 -0.24359229458E+03  0.40840816595E+03  0.55775322187E+03  0.86563522868E+02 0.  0.
         23    2    4    4    0    0 -0.65552854131E+02 -0.14759459941E+02 -0.38262515307E+03  0.39918888385E+03  0.91840834555E+02 0.  0.
          4    1    3    3  502    0 -0.89701762882E+02  0.15998348985E+03 -0.38233200496E+03  0.42405056928E+03  0.00000000000E+00 0. -1.
         -3    1    3    3    0  502 -0.12306350496E+03  0.98368264674E+02 -0.24373472745E+03  0.29021984617E+03  0.00000000000E+00 0.  1.
         11    1    5    5    0    0  0.27967806709E+03 -0.23557415309E+03  0.41009463052E+03  0.54944754872E+03  0.00000000000E+00 0.  1.
        -11    1    5    5    0    0 -0.13599451161E+01 -0.80181414868E+01 -0.16864645708E+01  0.83056731437E+01  0.00000000000E+00 0. -1.
          1    1    6    6  503    0 -0.60380089028E+02  0.24199502051E+02 -0.15344732305E+03  0.16666568933E+03  0.00000000000E+00 0. -1.
         -1    1    6    6    0  503 -0.51727651029E+01 -0.38958961991E+02 -0.22917783002E+03  0.23252319452E+03  0.00000000000E+00 0.  1.
<mgrwt>
<rscale>  0 0.15596829E+04</rscale>
<asrwt>0</asrwt>
<pdfrwt beam="1">  1        2 0.17473048E+00 0.15596829E+04</pdfrwt>
<pdfrwt beam="2">  1       -1 0.82379139E-01 0.15596829E+04</pdfrwt>
<totfact> 0.33290909E+01</totfact>
</mgrwt>
</event>
<event>
12    6  0.1542110E-007  0.4889826E+04  0.7818608E-02  0.7845731E-01
         -1   -1    0    0    0  501 -0.00000000000E+00  0.00000000000E+00  0.49631808810E+04  0.49631808810E+04  0.00000000000E+00 0.  1.
          2   -1    0    0  501    0  0.00000000000E+00 -0.00000000000E+00 -0.12043889083E+04  0.12043889083E+04  0.00000000000E+00 0. -1.
         24    2    1    2    0    0 -0.37524066987E+03  0.23142535806E+04  0.21449018937E+04  0.31786673072E+04  0.82137204174E+02 0.  0.
        254    2    1    2    0    0  0.37524066987E+03 -0.23142535806E+04  0.16138900789E+04  0.29889024822E+04  0.91231664778E+03 0.  0.
         23    2    4    4    0    0  0.49789338307E+03 -0.12792722934E+04  0.50896751124E+03  0.14671266962E+04  0.94749108796E+02 0.  0.
         23    2    4    4    0    0 -0.12265271320E+03 -0.10349812872E+04  0.11049225677E+04  0.15217757860E+04  0.93368675156E+02 0.  0.
          2    1    3    3  502    0 -0.16480617542E+03  0.10709612982E+04  0.10456079826E+04  0.15057938873E+04  0.00000000000E+00 0. -1.
         -1    1    3    3    0  502 -0.21043449444E+03  0.12432922824E+04  0.10992939112E+04  0.16728734199E+04  0.00000000000E+00 0.  1.
         11    1    5    5    0    0  0.14142613425E+02 -0.69652789161E+02  0.45433969326E+02  0.84355024279E+02  0.00000000000E+00 0.  1.
        -11    1    5    5    0    0  0.48375076964E+03 -0.12096195042E+04  0.46353354191E+03  0.13827716719E+04  0.00000000000E+00 0. -1.
          1    1    6    6  503    0 -0.88290483861E+02 -0.95840125272E+03  0.10154907383E+04  0.13991245871E+04  0.00000000000E+00 0. -1.
         -1    1    6    6    0  503 -0.34362229339E+02 -0.76580034462E+02  0.89431829428E+02  0.12265119893E+03  0.00000000000E+00 0.  1.
<mgrwt>
<rscale>  0 0.48898262E+04</rscale>
<asrwt>0</asrwt>
<pdfrwt beam="1">  1        2 0.18529060E+00 0.48898262E+04</pdfrwt>
<pdfrwt beam="2">  1       -1 0.76356628E+00 0.48898262E+04</pdfrwt>
<totfact> 0.17468198E-03</totfact>
</mgrwt>
</event>
<event>
12    6  0.1542110E-007  0.1692939E+04  0.7818608E-02  0.8765402E-01
         -1   -1    0    0    0  501 -0.00000000000E+00  0.00000000000E+00  0.45748357629E+03  0.45748357629E+03  0.00000000000E+00 0.  1.
          2   -1    0    0  501    0  0.00000000000E+00 -0.00000000000E+00 -0.15661991932E+04  0.15661991932E+04  0.00000000000E+00 0. -1.
         24    2    1    2    0    0  0.53692818981E+03 -0.15665654715E+03 -0.65003124285E+03  0.86147254937E+03  0.82226406084E+02 0.  0.
        254    2    1    2    0    0 -0.53692818981E+03  0.15665654715E+03 -0.45868437405E+03  0.11622102201E+04  0.90967471436E+03 0.  0.
         23    2    4    4    0    0 -0.14074490262E+03  0.45883278922E+02  0.26872536218E+03  0.32158541354E+03  0.96381818965E+02 0.  0.
         23    2    4    4    0    0 -0.39618328719E+03  0.11077326823E+03 -0.72740973623E+03  0.84062480656E+03  0.91067156728E+02 0.  0.
          4    1    3    3  502    0  0.23919734307E+03 -0.34258506584E+02 -0.31282328885E+03  0.39528144942E+03  0.00000000000E+00 0. -1.
         -3    1    3    3    0  502  0.29773084673E+03 -0.12239804057E+03 -0.33720795400E+03  0.46619109995E+03  0.00000000000E+00 0.  1.
         11    1    5    5    0    0 -0.79682038798E+02  0.74457672336E+02  0.17290587782E+03  0.20442508374E+03  0.00000000000E+00 0.  1.
        -11    1    5    5    0    0 -0.61062863819E+02 -0.28574393414E+02  0.95819484360E+02  0.11716032980E+03  0.00000000000E+00 0. -1.
          2    1    6    6  503    0 -0.21029807237E+03  0.10156991013E+03 -0.36719417217E+03  0.43517041026E+03  0.00000000000E+00 0. -1.
         -2    1    6    6    0  503 -0.18588521482E+03  0.92033580958E+01 -0.36021556406E+03  0.40545439630E+03  0.00000000000E+00 0.  1.
<mgrwt>
<rscale>  0 0.16929388E+04</rscale>
<asrwt>0</asrwt>
<pdfrwt beam="1">  1        2 0.24095372E+00 0.16929388E+04</pdfrwt>
<pdfrwt beam="2">  1       -1 0.70382090E-01 0.16929388E+04</pdfrwt>
<totfact> 0.25781520E+01</totfact>
</mgrwt>
</event>
<event>
12    6  0.1542110E-007  0.1321314E+04  0.7818608E-02  0.9012832E-01
          2   -1    0    0  501    0  0.00000000000E+00  0.00000000000E+00  0.23010190219E+04  0.23010190219E+04  0.00000000000E+00 0. -1.
         -1   -1    0    0    0  501 -0.00000000000E+00 -0.00000000000E+00 -0.18968444188E+03  0.18968444188E+03  0.00000000000E+00 0.  1.
         24    2    1    2    0    0  0.22789906425E+03 -0.22816481355E+03  0.42611911355E+03  0.54020367018E+03  0.79027468079E+02 0.  0.
        254    2    1    2    0    0 -0.22789906425E+03  0.22816481355E+03  0.16852154665E+04  0.19504997936E+04  0.92763199103E+03 0.  0.
         23    2    4    4    0    0  0.28216987994E+03  0.23256940141E+03  0.33432929306E+03  0.50363531162E+03  0.90355316915E+02 0.  0.
         23    2    4    4    0    0 -0.51006894420E+03 -0.44045878581E+01  0.13508861734E+04  0.14468644820E+04  0.91288813506E+02 0.  0.
          4    1    3    3  502    0  0.12743609447E+03 -0.99744604172E+02  0.15654308373E+03  0.22515479408E+03  0.00000000000E+00 0. -1.
         -3    1    3    3    0  502  0.10046296978E+03 -0.12842020938E+03  0.26957602982E+03  0.31504887609E+03  0.00000000000E+00 0.  1.
         11    1    5    5    0    0  0.12044179201E+03  0.94279788008E+02  0.81960697387E+02  0.17352942000E+03  0.00000000000E+00 0. -1.
        -11    1    5    5    0    0  0.16172808793E+03  0.13828961340E+03  0.25236859567E+03  0.33010589162E+03  0.00000000000E+00 0.  1.
          3    1    6    6  503    0 -0.50176458443E+03 -0.48879848497E+01  0.12697746548E+04  0.13653275302E+04  0.00000000000E+00 0. -1.
         -3    1    6    6    0  503 -0.83043597634E+01  0.48339699162E+00  0.81111518612E+02  0.81536951839E+02  0.00000000000E+00 0.  1.
<mgrwt>
<rscale>  0 0.13213138E+04</rscale>
<asrwt>0</asrwt>
<pdfrwt beam="1">  1        2 0.35400291E+00 0.13213138E+04</pdfrwt>
<pdfrwt beam="2">  1       -1 0.29182223E-01 0.13213138E+04</pdfrwt>
<totfact> 0.54208401E+01</totfact>
</mgrwt>
</event>
<event>
12    6  0.1542110E-007  0.1670068E+04  0.7818608E-02  0.8778622E-01
         -1   -1    0    0    0  501 -0.00000000000E+00  0.00000000000E+00  0.68621449799E+03  0.68621449799E+03  0.00000000000E+00 0.  1.
          2   -1    0    0  501    0  0.00000000000E+00 -0.00000000000E+00 -0.10161275164E+04  0.10161275164E+04  0.00000000000E+00 0. -1.
         24    2    1    2    0    0  0.27196370459E+03 -0.22954789484E+03  0.36209155020E+03  0.51281705566E+03  0.72211835685E+02 0.  0.
        254    2    1    2    0    0 -0.27196370459E+03  0.22954789484E+03 -0.69200456865E+03  0.11895249588E+04  0.89969039779E+03 0.  0.
         23    2    4    4    0    0 -0.35629660892E+03  0.31036575744E+03 -0.84724647917E+03  0.97463898150E+03  0.93916829639E+02 0.  0.
         23    2    4    4    0    0  0.84332904332E+02 -0.80817862596E+02  0.15524191051E+03  0.21488597727E+03  0.91827919401E+02 0.  0.
          2    1    3    3  502    0  0.79440355927E+02 -0.10551751442E+03  0.15917671898E+03  0.20683796524E+03  0.00000000000E+00 0. -1.
         -1    1    3    3    0  502  0.19252334867E+03 -0.12403038042E+03  0.20291483122E+03  0.30597909043E+03  0.00000000000E+00 0.  1.
         11    1    5    5    0    0 -0.13357274930E+03  0.63565544235E+02 -0.29608585012E+03  0.33098200617E+03  0.00000000000E+00 0.  1.
        -11    1    5    5    0    0 -0.22272385963E+03  0.24680021320E+03 -0.55116062905E+03  0.64365697534E+03  0.00000000000E+00 0. -1.
          1    1    6    6  503    0 -0.39985068161E+01 -0.47327123585E+02  0.24094778525E+02  0.53257891770E+02  0.00000000000E+00 0. -1.
         -1    1    6    6    0  503  0.88331411148E+02 -0.33490739011E+02  0.13114713199E+03  0.16162808550E+03  0.00000000000E+00 0.  1.
<mgrwt>
<rscale>  0 0.16700676E+04</rscale>
<asrwt>0</asrwt>
<pdfrwt beam="1">  1        2 0.15632731E+00 0.16700676E+04</pdfrwt>
<pdfrwt beam="2">  1       -1 0.10557146E+00 0.16700676E+04</pdfrwt>
<totfact> 0.22502473E+01</totfact>
</mgrwt>
</event>
<event>
12    6  0.1542110E-007  0.1884810E+04  0.7818608E-02  0.8662454E-01
         -1   -1    0    0    0  501 -0.00000000000E+00  0.00000000000E+00  0.77158001951E+03  0.77158001951E+03  0.00000000000E+00 0.  1.
          2   -1    0    0  501    0  0.00000000000E+00 -0.00000000000E+00 -0.11510504515E+04  0.11510504515E+04  0.00000000000E+00 0. -1.
         24    2    1    2    0    0 -0.70539433037E+03  0.16695782512E+03 -0.10903112861E+03  0.73735387296E+03  0.79667247183E+02 0.  0.
        254    2    1    2    0    0  0.70539433037E+03 -0.16695782512E+03 -0.27043930341E+03  0.11852765981E+04  0.89793491995E+03 0.  0.
         23    2    4    4    0    0 -0.16076239459E+03 -0.15324890070E+03 -0.19740721784E+03  0.31108677113E+03  0.92063002530E+02 0.  0.
         23    2    4    4    0    0  0.86615672496E+03 -0.13708924427E+02 -0.73032085563E+02  0.87418982696E+03  0.91971524072E+02 0.  0.
          2    1    3    3  502    0 -0.66608435261E+03  0.16835543654E+03 -0.87696215170E+02  0.69260561935E+03  0.00000000000E+00 0. -1.
         -1    1    3    3    0  502 -0.39309977763E+02 -0.13976114178E+01 -0.21334913444E+02  0.44748253609E+02  0.00000000000E+00 0.  1.
         11    1    5    5    0    0 -0.77643946184E+00 -0.35484076733E+02 -0.59407946528E+02  0.69202793806E+02  0.00000000000E+00 0.  1.
        -11    1    5    5    0    0 -0.15998595513E+03 -0.11776482396E+03 -0.13799927132E+03  0.24188397732E+03  0.00000000000E+00 0. -1.
          2    1    6    6  503    0  0.40642973040E+03  0.38135613872E+02 -0.23219031913E+02  0.40887476597E+03  0.00000000000E+00 0. -1.
         -2    1    6    6    0  503  0.45972699456E+03 -0.51844538299E+02 -0.49813053650E+02  0.46531506100E+03  0.00000000000E+00 0.  1.
<mgrwt>
<rscale>  0 0.18848104E+04</rscale>
<asrwt>0</asrwt>
<pdfrwt beam="1">  1        2 0.17708469E+00 0.18848104E+04</pdfrwt>
<pdfrwt beam="2">  1       -1 0.11870462E+00 0.18848104E+04</pdfrwt>
<totfact> 0.13783398E+01</totfact>
</mgrwt>
</event>
<event>
12    6  0.1542110E-007  0.1849106E+04  0.7818608E-02  0.8680613E-01
         -1   -1    0    0    0  501 -0.00000000000E+00  0.00000000000E+00  0.35442133969E+03  0.35442133969E+03  0.00000000000E+00 0.  1.
          2   -1    0    0  501    0  0.00000000000E+00 -0.00000000000E+00 -0.24118137760E+04  0.24118137760E+04  0.00000000000E+00 0. -1.
         24    2    1    2    0    0  0.38172786730E+01 -0.50516131963E+03 -0.15231770582E+04  0.16067977292E+04  0.80796419649E+02 0.  0.
        254    2    1    2    0    0 -0.38172786730E+01  0.50516131963E+03 -0.53421537811E+03  0.11594373865E+04  0.89649676662E+03 0.  0.
         23    2    4    4    0    0 -0.79220778877E+02  0.18397650200E+03  0.23162432422E+03  0.32065062708E+03  0.95098433102E+02 0.  0.
         23    2    4    4    0    0  0.75403500204E+02  0.32118481762E+03 -0.76583970233E+03  0.83878675943E+03  0.90594719563E+02 0.  0.
          4    1    3    3  502    0  0.24770256005E+01 -0.41410120545E+03 -0.13348138209E+04  0.13975742844E+04  0.00000000000E+00 0. -1.
         -3    1    3    3    0  502  0.13402530725E+01 -0.91060114174E+02 -0.18836323725E+03  0.20922344472E+03  0.00000000000E+00 0.  1.
         11    1    5    5    0    0 -0.77837546150E+02  0.18164238817E+03  0.17501157750E+03  0.26397290208E+03  0.00000000000E+00 0.  1.
        -11    1    5    5    0    0 -0.13832327263E+01  0.23341138341E+01  0.56612746720E+02  0.56677725002E+02  0.00000000000E+00 0. -1.
          3    1    6    6  503    0  0.38117252378E+02  0.72810292624E+02 -0.11653699938E+03  0.14260131790E+03  0.00000000000E+00 0. -1.
         -3    1    6    6    0  503  0.37286247825E+02  0.24837452500E+03 -0.64930270295E+03  0.69618544153E+03  0.00000000000E+00 0.  1.
<mgrwt>
<rscale>  0 0.18491060E+04</rscale>
<asrwt>0</asrwt>
<pdfrwt beam="1">  1        2 0.37104827E+00 0.18491060E+04</pdfrwt>
<pdfrwt beam="2">  1       -1 0.54526360E-01 0.18491060E+04</pdfrwt>
<totfact> 0.14248098E+01</totfact>
</mgrwt>
</event>
<event>
12    6  0.1542110E-007  0.2513950E+04  0.7818608E-02  0.8398033E-01
          2   -1    0    0  501    0  0.00000000000E+00  0.00000000000E+00  0.10151243274E+04  0.10151243274E+04  0.00000000000E+00 0. -1.
         -1   -1    0    0    0  501 -0.00000000000E+00 -0.00000000000E+00 -0.15564456944E+04  0.15564456944E+04  0.00000000000E+00 0.  1.
         24    2    1    2    0    0 -0.77017052270E+03 -0.54663431477E+03  0.32721782883E+03  0.10029686970E+04  0.83084244063E+02 0.  0.
        254    2    1    2    0    0  0.77017052270E+03  0.54663431477E+03 -0.86853919585E+03  0.15686013247E+04  0.90231816623E+03 0.  0.
         23    2    4    4    0    0  0.45386719017E+03  0.50275490371E+03 -0.49333922701E+02  0.68538350430E+03  0.92513742379E+02 0.  0.
         23    2    4    4    0    0  0.31630333253E+03  0.43879411061E+02 -0.81920527315E+03  0.88321782043E+03  0.83685350458E+02 0.  0.
          2    1    3    3  502    0 -0.20766143437E+02 -0.34681456414E+02  0.11246758916E+02  0.41958619119E+02  0.00000000000E+00 0. -1.
         -1    1    3    3    0  502 -0.74940437926E+03 -0.51195285835E+03  0.31597106991E+03  0.96101007792E+03  0.00000000000E+00 0.  1.
         11    1    5    5    0    0  0.16493936656E+03  0.13647363230E+03  0.14233807540E+02  0.21455220398E+03  0.00000000000E+00 0. -1.
        -11    1    5    5    0    0  0.28892782361E+03  0.36628127140E+03 -0.63567730241E+02  0.47083130032E+03  0.00000000000E+00 0.  1.
          1    1    6    6  503    0  0.30046965610E+03  0.19649580750E+02 -0.75199554285E+03  0.81004037969E+03  0.00000000000E+00 0.  1.
         -1    1    6    6    0  503  0.15833676429E+02  0.24229830311E+02 -0.67209730293E+02  0.73177440733E+02  0.00000000000E+00 0. -1.
<mgrwt>
<rscale>  0 0.25139498E+04</rscale>
<asrwt>0</asrwt>
<pdfrwt beam="1">  1        2 0.15617297E+00 0.25139498E+04</pdfrwt>
<pdfrwt beam="2">  1       -1 0.23945318E+00 0.25139498E+04</pdfrwt>
<totfact> 0.20450009E+00</totfact>
</mgrwt>
</event>
<event>
12    6  0.1542110E-007  0.1304128E+04  0.7818608E-02  0.9026298E-01
          2   -1    0    0  501    0  0.00000000000E+00  0.00000000000E+00  0.18384954969E+04  0.18384954969E+04  0.00000000000E+00 0. -1.
         -1   -1    0    0    0  501 -0.00000000000E+00 -0.00000000000E+00 -0.23126926308E+03  0.23126926308E+03  0.00000000000E+00 0.  1.
         24    2    1    2    0    0  0.17702018391E+03  0.42143581308E+02 -0.22772407552E+02  0.19990306278E+03  0.79563967997E+02 0.  0.
        254    2    1    2    0    0 -0.17702018391E+03 -0.42143581308E+02  0.16299986414E+04  0.18698616972E+04  0.89798383552E+03 0.  0.
         23    2    4    4    0    0  0.24248998350E+03  0.24499104921E+03  0.40434918534E+03  0.53960746054E+03  0.94106012006E+02 0.  0.
         23    2    4    4    0    0 -0.41951016742E+03 -0.28713463052E+03  0.12256494560E+04  0.13302542367E+04  0.94470463575E+02 0.  0.
          4    1    3    3  502    0  0.57110380850E+02 -0.47440547858E+01 -0.40167447441E+02  0.69982322701E+02  0.00000000000E+00 0. -1.
         -3    1    3    3    0  502  0.11990980306E+03  0.46887636094E+02  0.17395039889E+02  0.12992074008E+03  0.00000000000E+00 0.  1.
         11    1    5    5    0    0  0.71816890382E+02  0.35120708240E+02  0.14095535753E+03  0.16204796422E+03  0.00000000000E+00 0. -1.
        -11    1    5    5    0    0  0.17067309312E+03  0.20987034097E+03  0.26339382781E+03  0.37755949632E+03  0.00000000000E+00 0.  1.
          1    1    6    6  503    0  0.25659851138E+01 -0.10068700769E+02  0.44924726223E+02  0.46110671660E+02  0.00000000000E+00 0. -1.
         -1    1    6    6    0  503 -0.42207615253E+03 -0.27706592975E+03  0.11807247298E+04  0.12841435650E+04  0.00000000000E+00 0.  1.
<mgrwt>
<rscale>  0 0.13041281E+04</rscale>
<asrwt>0</asrwt>
<pdfrwt beam="1">  1        2 0.28284545E+00 0.13041281E+04</pdfrwt>
<pdfrwt beam="2">  1       -1 0.35579888E-01 0.13041281E+04</pdfrwt>
<totfact> 0.69101446E+01</totfact>
</mgrwt>
</event>
<event>
12    6  0.1542110E-007  0.1134159E+04  0.7818608E-02  0.9172523E-01
          2   -1    0    0  501    0  0.00000000000E+00  0.00000000000E+00  0.86726366465E+03  0.86726366465E+03  0.00000000000E+00 0. -1.
         -1   -1    0    0    0  501 -0.00000000000E+00 -0.00000000000E+00 -0.37079770481E+03  0.37079770481E+03  0.00000000000E+00 0.  1.
         24    2    1    2    0    0  0.95320197575E+02 -0.15069736531E+01 -0.10114569190E+03  0.16013548372E+03  0.79528052412E+02 0.  0.
        254    2    1    2    0    0 -0.95320197575E+02  0.15069736531E+01  0.59761165174E+03  0.10779258857E+04  0.89201811518E+03 0.  0.
         23    2    4    4    0    0  0.17403931818E+03 -0.65321085221E+02  0.72899835305E+03  0.75792069786E+03  0.91916576608E+02 0.  0.
         23    2    4    4    0    0 -0.26935951576E+03  0.66828058874E+02 -0.13138670131E+03  0.32000518788E+03  0.90112800443E+02 0.  0.
          4    1    3    3  502    0 -0.11836124159E+02 -0.58834365289E+01 -0.26051181228E+02  0.29212543605E+02  0.00000000000E+00 0. -1.
         -1    1    3    3    0  502  0.10715632173E+03  0.43764628758E+01 -0.75094510668E+02  0.13092294011E+03  0.00000000000E+00 0.  1.
         11    1    5    5    0    0  0.14899699746E+03 -0.38071247644E+02  0.67605017534E+03  0.69332053534E+03  0.00000000000E+00 0.  1.
        -11    1    5    5    0    0  0.25042320725E+02 -0.27249837577E+02  0.52948177706E+02  0.64600162520E+02  0.00000000000E+00 0. -1.
          4    1    6    6  503    0 -0.12043211088E+03  0.47976246730E+02 -0.15903290888E+02  0.13060830081E+03  0.00000000000E+00 0. -1.
         -4    1    6    6    0  503 -0.14892740488E+03  0.18851812144E+02 -0.11548341042E+03  0.18939688706E+03  0.00000000000E+00 0.  1.
<mgrwt>
<rscale>  0 0.11341594E+04</rscale>
<asrwt>0</asrwt>
<pdfrwt beam="1">  1        2 0.13342518E+00 0.11341594E+04</pdfrwt>
<pdfrwt beam="2">  1       -1 0.57045801E-01 0.11341594E+04</pdfrwt>
<totfact> 0.10861057E+02</totfact>
</mgrwt>
</event>
<event>
12    6  0.1542110E-007  0.5328854E+04  0.7818608E-02  0.7779688E-01
         -1   -1    0    0    0  501 -0.00000000000E+00  0.00000000000E+00  0.22712358798E+04  0.22712358798E+04  0.00000000000E+00 0.  1.
          2   -1    0    0  501    0  0.00000000000E+00 -0.00000000000E+00 -0.31256870160E+04  0.31256870160E+04  0.00000000000E+00 0. -1.
         24    2    1    2    0    0  0.63730963945E+03 -0.22446409643E+04  0.71687780541E+03  0.24430512376E+04  0.10004462324E+03 0.  0.
        254    2    1    2    0    0 -0.63730963945E+03  0.22446409643E+04 -0.15713289417E+04  0.29538716582E+04  0.90094755412E+03 0.  0.
         23    2    4    4    0    0  0.12363737760E+03  0.11756805141E+04 -0.72774280074E+03  0.13911983700E+04  0.91172628150E+02 0.  0.
         23    2    4    4    0    0 -0.76094701705E+03  0.10689604501E+04 -0.84358614093E+03  0.15626732882E+04  0.92700711512E+02 0.  0.
          4    1    3    3  502    0  0.11514484841E+03 -0.28350715832E+03  0.99284688321E+02  0.32170187172E+03  0.00000000000E+00 0. -1.
         -3    1    3    3    0  502  0.52216479104E+03 -0.19611338059E+04  0.61759311709E+03  0.21213493659E+04  0.00000000000E+00 0.  1.
         11    1    5    5    0    0 -0.81409188154E+00  0.14609403242E+03 -0.12078357349E+03  0.18955949114E+03  0.00000000000E+00 0. -1.
        -11    1    5    5    0    0  0.12445146948E+03  0.10295864817E+04 -0.60695922725E+03  0.12016388788E+04  0.00000000000E+00 0.  1.
          1    1    6    6  503    0 -0.78511612348E+01  0.32105771911E+02 -0.12793956872E+02  0.35441594986E+02  0.00000000000E+00 0. -1.
         -1    1    6    6    0  503 -0.75309585582E+03  0.10368546782E+04 -0.83079218406E+03  0.15272316932E+04  0.00000000000E+00 0.  1.
<mgrwt>
<rscale>  0 0.53288545E+04</rscale>
<asrwt>0</asrwt>
<pdfrwt beam="1">  1        2 0.48087493E+00 0.53288545E+04</pdfrwt>
<pdfrwt beam="2">  1       -1 0.34942090E+00 0.53288545E+04</pdfrwt>
<totfact> 0.18303105E-02</totfact>
</mgrwt>
</event>
<event>
12    6  0.1542110E-007  0.1327335E+04  0.7818608E-02  0.9008165E-01
         -1   -1    0    0    0  501 -0.00000000000E+00  0.00000000000E+00  0.48861663494E+03  0.48861663494E+03  0.00000000000E+00 0.  1.
          2   -1    0    0  501    0  0.00000000000E+00 -0.00000000000E+00 -0.90143117352E+03  0.90143117352E+03  0.00000000000E+00 0. -1.
         24    2    1    2    0    0  0.55472136565E+02 -0.17153813238E+03 -0.43331569629E+03  0.47615277556E+03  0.80352250948E+02 0.  0.
        254    2    1    2    0    0 -0.55472136565E+02  0.17153813238E+03  0.20501157712E+02  0.91389503290E+03  0.89570159366E+03 0.  0.
         23    2    4    4    0    0  0.24596456160E+03 -0.26316180140E+03 -0.34783541969E+02  0.37399445719E+03  0.94388876136E+02 0.  0.
         23    2    4    4    0    0 -0.30143669817E+03  0.43469993378E+03  0.55284699681E+02  0.53990057571E+03  0.92779945039E+02 0.  0.
          4    1    3    3  502    0  0.43705968610E+02 -0.76160825058E+02 -0.29454327155E+03  0.30735390315E+03  0.00000000000E+00 0. -1.
         -1    1    3    3    0  502  0.11766167955E+02 -0.95377307326E+02 -0.13877242473E+03  0.16879887241E+03  0.00000000000E+00 0.  1.
         11    1    5    5    0    0  0.24996319145E+03 -0.23853975189E+03 -0.22661863226E+02  0.34626055271E+03  0.00000000000E+00 0. -1.
        -11    1    5    5    0    0 -0.39986298509E+01 -0.24622049502E+02 -0.12121678743E+02  0.27733904484E+02  0.00000000000E+00 0.  1.
          1    1    6    6  503    0 -0.23724005721E+03  0.35315316754E+03  0.71584096776E+01  0.42550117193E+03  0.00000000000E+00 0. -1.
         -1    1    6    6    0  503 -0.64196640960E+02  0.81546766239E+02  0.48126290003E+02  0.11439940377E+03  0.00000000000E+00 0.  1.
<mgrwt>
<rscale>  0 0.13273346E+04</rscale>
<asrwt>0</asrwt>
<pdfrwt beam="1">  1        2 0.13868172E+00 0.13273346E+04</pdfrwt>
<pdfrwt beam="2">  1       -1 0.75171791E-01 0.13273346E+04</pdfrwt>
<totfact> 0.58139223E+01</totfact>
</mgrwt>
</event>
<event>
12    6  0.1542110E-007  0.1598827E+04  0.7818608E-02  0.8821269E-01
         -1   -1    0    0    0  501 -0.00000000000E+00  0.00000000000E+00  0.28950192535E+03  0.28950192535E+03  0.00000000000E+00 0.  1.
          2   -1    0    0  501    0  0.00000000000E+00 -0.00000000000E+00 -0.22074529931E+04  0.22074529931E+04  0.00000000000E+00 0. -1.
         24    2    1    2    0    0  0.38362043947E+03 -0.23202348540E+03 -0.18103565960E+03  0.49006327955E+03  0.79928521565E+02 0.  0.
        254    2    1    2    0    0 -0.38362043947E+03  0.23202348540E+03 -0.17369154082E+04  0.20068916389E+04  0.89985519716E+03 0.  0.
         23    2    4    4    0    0  0.18890709525E+03  0.13503214713E+02 -0.10938525142E+04  0.11138368286E+04  0.90834632240E+02 0.  0.
         23    2    4    4    0    0 -0.57252753472E+03  0.21852027069E+03 -0.64306289395E+03  0.89305481033E+03  0.92076717763E+02 0.  0.
          2    1    3    3  502    0  0.84113560146E+02 -0.14889999713E+02 -0.31333218585E+02  0.90986667588E+02  0.00000000000E+00 0. -1.
         -1    1    3    3    0  502  0.29950687933E+03 -0.21713348569E+03 -0.14970244101E+03  0.39907661196E+03  0.00000000000E+00 0.  1.
         11    1    5    5    0    0  0.18936374979E+03 -0.63683813392E+01 -0.10138189120E+04  0.10313718885E+04  0.00000000000E+00 0.  1.
        -11    1    5    5    0    0 -0.45665454414E+00  0.19871596052E+02 -0.80033602198E+02  0.82464940088E+02  0.00000000000E+00 0. -1.
          2    1    6    6  503    0  0.11684860108E+01 -0.27974093592E+01 -0.10270472676E+02  0.10708569823E+02  0.00000000000E+00 0. -1.
         -2    1    6    6    0  503 -0.57369602073E+03  0.22131768005E+03 -0.63279242128E+03  0.88234624050E+03  0.00000000000E+00 0.  1.
<mgrwt>
<rscale>  0 0.15988269E+04</rscale>
<asrwt>0</asrwt>
<pdfrwt beam="1">  1        2 0.33960814E+00 0.15988269E+04</pdfrwt>
<pdfrwt beam="2">  1       -1 0.44538759E-01 0.15988269E+04</pdfrwt>
<totfact> 0.27910480E+01</totfact>
</mgrwt>
</event>
<event>
12    6  0.1542110E-007  0.1953733E+04  0.7818608E-02  0.8628563E-01
          2   -1    0    0  501    0  0.00000000000E+00  0.00000000000E+00  0.24386293519E+04  0.24386293519E+04  0.00000000000E+00 0. -1.
         -1   -1    0    0    0  501 -0.00000000000E+00 -0.00000000000E+00 -0.39131342127E+03  0.39131342127E+03  0.00000000000E+00 0.  1.
         24    2    1    2    0    0 -0.44463817627E+03  0.74372792430E+02 -0.73334136423E+02  0.46366033538E+03  0.79803452236E+02 0.  0.
        254    2    1    2    0    0  0.44463817627E+03 -0.74372792430E+02  0.21206500670E+04  0.23662824378E+04  0.94810413372E+03 0.  0.
         23    2    4    4    0    0 -0.28525031707E+03 -0.53302815286E+02  0.77454467881E+03  0.83214894486E+03  0.91342615718E+02 0.  0.
         23    2    4    4    0    0  0.72988849335E+03 -0.21069977144E+02  0.13461053882E+04  0.15341334929E+04  0.91568013963E+02 0.  0.
          4    1    3    3  502    0 -0.71091814145E+02  0.26527305169E+01  0.16051572758E+02  0.72929664785E+02  0.00000000000E+00 0. -1.
         -3    1    3    3    0  502 -0.37354636213E+03  0.71720061913E+02 -0.89385709181E+02  0.39073067060E+03  0.00000000000E+00 0.  1.
         11    1    5    5    0    0 -0.26250553156E+03 -0.43644426848E+02  0.60669175301E+03  0.66248688536E+03  0.00000000000E+00 0. -1.
        -11    1    5    5    0    0 -0.22744785508E+02 -0.96583884383E+01  0.16785292580E+03  0.16966205950E+03  0.00000000000E+00 0.  1.
          2    1    6    6  503    0  0.47658252940E+03 -0.49936971046E+02  0.92835419446E+03  0.10447325585E+04  0.00000000000E+00 0. -1.
         -2    1    6    6    0  503  0.25330596394E+03  0.28866993902E+02  0.41775119376E+03  0.48940093440E+03  0.00000000000E+00 0.  1.
<mgrwt>
<rscale>  0 0.19537332E+04</rscale>
<asrwt>0</asrwt>
<pdfrwt beam="1">  1        2 0.37517374E+00 0.19537332E+04</pdfrwt>
<pdfrwt beam="2">  1       -1 0.60202067E-01 0.19537332E+04</pdfrwt>
<totfact> 0.11225342E+01</totfact>
</mgrwt>
</event>
<event>
12    6  0.1542110E-007  0.2165770E+04  0.7818608E-02  0.8532812E-01
          2   -1    0    0  501    0  0.00000000000E+00  0.00000000000E+00  0.35548453620E+04  0.35548453620E+04  0.00000000000E+00 0. -1.
         -1   -1    0    0    0  501 -0.00000000000E+00 -0.00000000000E+00 -0.32987093344E+03  0.32987093344E+03  0.00000000000E+00 0.  1.
         24    2    1    2    0    0  0.54296685542E+03 -0.52171188926E+03  0.21967973865E+04  0.23236298301E+04  0.79627437332E+02 0.  0.
        254    2    1    2    0    0 -0.54296685542E+03  0.52171188926E+03  0.10281770421E+04  0.15610864653E+04  0.90158006901E+03 0.  0.
         23    2    4    4    0    0  0.13311699329E+03  0.46219488217E+03  0.39868045762E+03  0.63100570587E+03  0.88757256302E+02 0.  0.
         23    2    4    4    0    0 -0.67608384870E+03  0.59517007088E+02  0.62949658450E+03  0.93008075947E+03  0.90291885677E+02 0.  0.
          4    1    3    3  502    0  0.10609911589E+03 -0.86686085146E+02  0.31789071943E+03  0.34615893641E+03  0.00000000000E+00 0. -1.
         -3    1    3    3    0  502  0.43686773952E+03 -0.43502580411E+03  0.18789066670E+04  0.19774708937E+04  0.00000000000E+00 0.  1.
         11    1    5    5    0    0  0.12377364851E+03  0.37199924853E+03  0.36055675366E+03  0.53263921145E+03  0.00000000000E+00 0.  1.
        -11    1    5    5    0    0  0.93433447783E+01  0.90195633643E+02  0.38123703962E+02  0.98366494416E+02  0.00000000000E+00 0. -1.
          2    1    6    6  503    0 -0.21859679481E+02 -0.42692661013E+00  0.26228306099E+01  0.22020606117E+02  0.00000000000E+00 0. -1.
         -2    1    6    6    0  503 -0.65422416922E+03  0.59943933698E+02  0.62687375389E+03  0.90806015335E+03  0.00000000000E+00 0.  1.
<mgrwt>
<rscale>  0 0.21657702E+04</rscale>
<asrwt>0</asrwt>
<pdfrwt beam="1">  1        2 0.54689926E+00 0.21657702E+04</pdfrwt>
<pdfrwt beam="2">  1       -1 0.50749377E-01 0.21657702E+04</pdfrwt>
<totfact> 0.30389804E+00</totfact>
</mgrwt>
</event>
<event>
12    6  0.1542110E-007  0.2489990E+04  0.7818608E-02  0.8406560E-01
          2   -1    0    0  501    0  0.00000000000E+00  0.00000000000E+00  0.21931373393E+04  0.21931373393E+04  0.00000000000E+00 0. -1.
         -1   -1    0    0    0  501 -0.00000000000E+00 -0.00000000000E+00 -0.70675583015E+03  0.70675583015E+03  0.00000000000E+00 0.  1.
         24    2    1    2    0    0 -0.30568237972E+03 -0.45970082747E+03 -0.42713942887E+03  0.70315460311E+03  0.84921941356E+02 0.  0.
        254    2    1    2    0    0  0.30568237972E+03  0.45970082747E+03  0.19135209380E+04  0.21967385664E+04  0.92700128403E+03 0.  0.
         23    2    4    4    0    0 -0.29907792052E+03  0.32866702270E+03  0.80292421798E+03  0.92220449310E+03  0.91127454241E+02 0.  0.
         23    2    4    4    0    0  0.60476030024E+03  0.13103380478E+03  0.11105967201E+04  0.12745340733E+04  0.90039716661E+02 0.  0.
          4    1    3    3  502    0 -0.12132592653E+03 -0.20927429832E+03 -0.13779062942E+03  0.27839175624E+03  0.00000000000E+00 0. -1.
         -3    1    3    3    0  502 -0.18435645319E+03 -0.25042652915E+03 -0.28934879945E+03  0.42476284687E+03  0.00000000000E+00 0.  1.
         11    1    5    5    0    0 -0.66363128540E+02  0.10637112018E+03  0.16037184916E+03  0.20356328265E+03  0.00000000000E+00 0.  1.
        -11    1    5    5    0    0 -0.23271479198E+03  0.22229590251E+03  0.64255236882E+03  0.71864121045E+03  0.00000000000E+00 0. -1.
          3    1    6    6  503    0  0.70954090608E+01  0.91949354790E+01  0.69120299423E+01  0.13515466182E+02  0.00000000000E+00 0. -1.
         -3    1    6    6    0  503  0.59766489118E+03  0.12183886930E+03  0.11036846901E+04  0.12610186071E+04  0.00000000000E+00 0.  1.
<mgrwt>
<rscale>  0 0.24899900E+04</rscale>
<asrwt>0</asrwt>
<pdfrwt beam="1">  1        2 0.33740574E+00 0.24899900E+04</pdfrwt>
<pdfrwt beam="2">  1       -1 0.10873167E+00 0.24899900E+04</pdfrwt>
<totfact> 0.41492395E+00</totfact>
</mgrwt>
</event>
<event>
12    6  0.1542110E-007  0.2489641E+04  0.7818608E-02  0.8406685E-01
         -1   -1    0    0    0  501 -0.00000000000E+00  0.00000000000E+00  0.52470871445E+03  0.52470871445E+03  0.00000000000E+00 0.  1.
          2   -1    0    0  501    0  0.00000000000E+00 -0.00000000000E+00 -0.29532161709E+04  0.29532161709E+04  0.00000000000E+00 0. -1.
         24    2    1    2    0    0 -0.14789940675E+03 -0.10466596908E+04 -0.12444995915E+04  0.16348772837E+04  0.81693062933E+02 0.  0.
        254    2    1    2    0    0  0.14789940675E+03  0.10466596908E+04 -0.11840078650E+04  0.18430476017E+04  0.93679191646E+03 0.  0.
         23    2    4    4    0    0 -0.33079779603E+03  0.43072950759E+03 -0.20366027880E+03  0.58681631761E+03  0.88998825214E+02 0.  0.
         23    2    4    4    0    0  0.47869720277E+03  0.61593018325E+03 -0.98034758616E+03  0.12562312840E+04  0.92274843557E+02 0.  0.
          2    1    3    3  502    0 -0.28085114828E+02 -0.16411206917E+03 -0.24386100169E+03  0.29527907658E+03  0.00000000000E+00 0. -1.
         -1    1    3    3    0  502 -0.11981429192E+03 -0.88254762167E+03 -0.10006385898E+04  0.13395982071E+04  0.00000000000E+00 0.  1.
         11    1    5    5    0    0 -0.26824354887E+03  0.31162445441E+03 -0.18543431658E+03  0.45105463955E+03  0.00000000000E+00 0.  1.
        -11    1    5    5    0    0 -0.62554247155E+02  0.11910505318E+03 -0.18225962222E+02  0.13576167806E+03  0.00000000000E+00 0. -1.
          1    1    6    6  503    0  0.14679396492E+03  0.14063087128E+03 -0.30010624588E+03  0.36247657705E+03  0.00000000000E+00 0. -1.
         -1    1    6    6    0  503  0.33190323785E+03  0.47529931197E+03 -0.68024134028E+03  0.89375470700E+03  0.00000000000E+00 0.  1.
<mgrwt>
<rscale>  0 0.24896411E+04</rscale>
<asrwt>0</asrwt>
<pdfrwt beam="1">  1        2 0.45434095E+00 0.24896411E+04</pdfrwt>
<pdfrwt beam="2">  1       -1 0.80724418E-01 0.24896411E+04</pdfrwt>
<totfact> 0.28932505E+00</totfact>
</mgrwt>
</event>
<event>
12    6  0.1542110E-007  0.1626992E+04  0.7818608E-02  0.8804135E-01
         -1   -1    0    0    0  501 -0.00000000000E+00  0.00000000000E+00  0.48130265625E+03  0.48130265625E+03  0.00000000000E+00 0.  1.
          2   -1    0    0  501    0  0.00000000000E+00 -0.00000000000E+00 -0.13749681979E+04  0.13749681979E+04  0.00000000000E+00 0. -1.
         24    2    1    2    0    0  0.35295968960E+03  0.37454926084E+03 -0.60070718147E+03  0.79508277816E+03  0.80248457807E+02 0.  0.
        254    2    1    2    0    0 -0.35295968960E+03 -0.37454926084E+03 -0.29295836016E+03  0.10611880760E+04  0.88058380664E+03 0.  0.
         23    2    4    4    0    0 -0.62473916245E+03 -0.36787444200E+03 -0.24270899729E+03  0.77009695788E+03  0.92255303363E+02 0.  0.
         23    2    4    4    0    0  0.27177947285E+03 -0.66748188325E+01 -0.50249362867E+02  0.29109111809E+03  0.91106561192E+02 0.  0.
          4    1    3    3  502    0  0.32007708876E+03  0.35407839369E+03 -0.52175870437E+03  0.70714425488E+03  0.00000000000E+00 0. -1.
         -3    1    3    3    0  502  0.32882600843E+02  0.20470867149E+02 -0.78948477107E+02  0.87938523285E+02  0.00000000000E+00 0.  1.
         11    1    5    5    0    0 -0.34101547748E+03 -0.21724562138E+03 -0.18097794403E+03  0.44299010385E+03  0.00000000000E+00 0. -1.
        -11    1    5    5    0    0 -0.28372368497E+03 -0.15062882063E+03 -0.61731053263E+02  0.32710685403E+03  0.00000000000E+00 0.  1.
          2    1    6    6  503    0  0.19728350286E+03  0.29671098370E+02 -0.12169841057E+02  0.19987310877E+03  0.00000000000E+00 0. -1.
         -2    1    6    6    0  503  0.74495969988E+02 -0.36345917203E+02 -0.38079521811E+02  0.91218009313E+02  0.00000000000E+00 0.  1.
<mgrwt>
<rscale>  0 0.16269921E+04</rscale>
<asrwt>0</asrwt>
<pdfrwt beam="1">  1        2 0.21153357E+00 0.16269921E+04</pdfrwt>
<pdfrwt beam="2">  1       -1 0.74046562E-01 0.16269921E+04</pdfrwt>
<totfact> 0.29960856E+01</totfact>
</mgrwt>
</event>
<event>
12    6  0.1542110E-007  0.2079776E+04  0.7818608E-02  0.8570205E-01
         -1   -1    0    0    0  501 -0.00000000000E+00  0.00000000000E+00  0.87636279808E+03  0.87636279808E+03  0.00000000000E+00 0.  1.
          2   -1    0    0  501    0  0.00000000000E+00 -0.00000000000E+00 -0.12339266732E+04  0.12339266732E+04  0.00000000000E+00 0. -1.
         24    2    1    2    0    0 -0.73848907750E+03  0.18158252869E+03 -0.50832502448E+03  0.91884916144E+03  0.86897172850E+02 0.  0.
        254    2    1    2    0    0  0.73848907750E+03 -0.18158252869E+03  0.15076114938E+03  0.11914403098E+04  0.90468931428E+03 0.  0.
         23    2    4    4    0    0 -0.57196776381E+02  0.13453707378E+03  0.27238853118E+03  0.32191837186E+03  0.89801062220E+02 0.  0.
         23    2    4    4    0    0  0.79568585388E+03 -0.31611960247E+03 -0.12162738179E+03  0.86952193795E+03  0.90706115820E+02 0.  0.
          4    1    3    3  502    0 -0.37115183358E+03  0.12372809897E+03 -0.29643604416E+03  0.49085298646E+03  0.00000000000E+00 0. -1.
         -3    1    3    3    0  502 -0.36733724392E+03  0.57854429714E+02 -0.21188898032E+03  0.42799617497E+03  0.00000000000E+00 0.  1.
         11    1    5    5    0    0 -0.66069297393E+02  0.10592684229E+03  0.14632607191E+03  0.19234595732E+03  0.00000000000E+00 0. -1.
        -11    1    5    5    0    0  0.88725210120E+01  0.28610231495E+02  0.12606245927E+03  0.12957241455E+03  0.00000000000E+00 0.  1.
          3    1    6    6  503    0  0.77467966878E+03 -0.28969967172E+03 -0.11993348756E+03  0.83572634903E+03  0.00000000000E+00 0. -1.
         -3    1    6    6    0  503  0.21006185100E+02 -0.26419930749E+02 -0.16938942307E+01  0.33795588927E+02  0.00000000000E+00 0.  1.
<mgrwt>
<rscale>  0 0.20797764E+04</rscale>
<asrwt>0</asrwt>
<pdfrwt beam="1">  1        2 0.18983487E+00 0.20797764E+04</pdfrwt>
<pdfrwt beam="2">  1       -1 0.13482505E+00 0.20797764E+04</pdfrwt>
<totfact> 0.87936324E+00</totfact>
</mgrwt>
</event>
<event>
12    6  0.1542110E-007  0.1034640E+04  0.7818608E-02  0.9271348E-01
          2   -1    0    0  501    0  0.00000000000E+00  0.00000000000E+00  0.17162774916E+04  0.17162774916E+04  0.00000000000E+00 0. -1.
         -1   -1    0    0    0  501 -0.00000000000E+00 -0.00000000000E+00 -0.15593040027E+03  0.15593040027E+03  0.00000000000E+00 0.  1.
         24    2    1    2    0    0  0.78742458942E+02  0.51716631864E+02  0.28438075992E+03  0.30982697897E+03  0.79027561215E+02 0.  0.
        254    2    1    2    0    0 -0.78742458942E+02 -0.51716631864E+02  0.12759663314E+04  0.15623809129E+04  0.89669897583E+03 0.  0.
         23    2    4    4    0    0 -0.45266497346E+03  0.50665239581E+02  0.45703267817E+03  0.65156679380E+03  0.90486867400E+02 0.  0.
         23    2    4    4    0    0  0.37392251452E+03 -0.10238187145E+03  0.81893365324E+03  0.91081411910E+03  0.92897452429E+02 0.  0.
          2    1    3    3  502    0  0.90672937292E+02  0.59741916452E+02  0.25159901652E+03  0.27403055168E+03  0.00000000000E+00 0. -1.
         -1    1    3    3    0  502 -0.11930478350E+02 -0.80252845882E+01  0.32781743400E+02  0.35796427290E+02  0.00000000000E+00 0.  1.
         11    1    5    5    0    0 -0.30498699875E+03 -0.78571318235E+01  0.31406459935E+03  0.43785314489E+03  0.00000000000E+00 0.  1.
        -11    1    5    5    0    0 -0.14767797471E+03  0.58522371405E+02  0.14296807882E+03  0.21371364891E+03  0.00000000000E+00 0. -1.
          4    1    6    6  503    0  0.38020948247E+02  0.17274456361E+02  0.97597961395E+02  0.10615724854E+03  0.00000000000E+00 0.  1.
         -4    1    6    6    0  503  0.33590156627E+03 -0.11965632781E+03  0.72133569185E+03  0.80465687056E+03  0.00000000000E+00 0. -1.
<mgrwt>
<rscale>  0 0.10346397E+04</rscale>
<asrwt>0</asrwt>
<pdfrwt beam="1">  1        2 0.26404268E+00 0.10346397E+04</pdfrwt>
<pdfrwt beam="2">  1       -1 0.23989294E-01 0.10346397E+04</pdfrwt>
<totfact> 0.16398922E+02</totfact>
</mgrwt>
</event>
<event>
12    6  0.1542110E-007  0.1428898E+04  0.7818608E-02  0.8933162E-01
          2   -1    0    0  501    0  0.00000000000E+00  0.00000000000E+00  0.12719259278E+04  0.12719259278E+04  0.00000000000E+00 0. -1.
         -1   -1    0    0    0  501 -0.00000000000E+00 -0.00000000000E+00 -0.40131071826E+03  0.40131071826E+03  0.00000000000E+00 0.  1.
         24    2    1    2    0    0 -0.31216521057E+03 -0.26899725203E+03  0.17781452773E+03  0.45572738969E+03  0.79137899602E+02 0.  0.
        254    2    1    2    0    0  0.31216521057E+03  0.26899725203E+03  0.69280068181E+03  0.12175092564E+04  0.91244143063E+03 0.  0.
         23    2    4    4    0    0  0.40337672826E+03 -0.23873333351E+03  0.32772116474E+03  0.57913234313E+03  0.91031420951E+02 0.  0.
         23    2    4    4    0    0 -0.91211517696E+02  0.50773058555E+03  0.36507951707E+03  0.63837691324E+03  0.90178384944E+02 0.  0.
          4    1    3    3  502    0 -0.47094961853E+02 -0.12369068436E+02  0.71221973576E+01  0.49210313768E+02  0.00000000000E+00 0. -1.
         -1    1    3    3    0  502 -0.26507024872E+03 -0.25662818360E+03  0.17069233038E+03  0.40651707593E+03  0.00000000000E+00 0.  1.
         11    1    5    5    0    0  0.37454472149E+03 -0.21977524468E+03  0.26842307852E+03  0.51052507838E+03  0.00000000000E+00 0. -1.
        -11    1    5    5    0    0  0.28832006772E+02 -0.18958088831E+02  0.59298086218E+02  0.68607264745E+02  0.00000000000E+00 0.  1.
          4    1    6    6  503    0 -0.98121095874E+02  0.50735779731E+03  0.36001628166E+03  0.62980267307E+03  0.00000000000E+00 0. -1.
         -4    1    6    6    0  503  0.69095781778E+01  0.37278823947E+00  0.50632354049E+01  0.85742401665E+01  0.00000000000E+00 0.  1.
<mgrwt>
<rscale>  0 0.14288982E+04</rscale>
<asrwt>0</asrwt>
<pdfrwt beam="1">  1        2 0.19568091E+00 0.14288982E+04</pdfrwt>
<pdfrwt beam="2">  1       -1 0.61740111E-01 0.14288982E+04</pdfrwt>
<totfact> 0.50584259E+01</totfact>
</mgrwt>
</event>
<event>
12    6  0.1542110E-007  0.2926093E+04  0.7818608E-02  0.8265156E-01
         -1   -1    0    0    0  501 -0.00000000000E+00  0.00000000000E+00  0.18243370842E+04  0.18243370842E+04  0.00000000000E+00 0.  1.
          2   -1    0    0  501    0  0.00000000000E+00 -0.00000000000E+00 -0.11733057393E+04  0.11733057393E+04  0.00000000000E+00 0. -1.
         24    2    1    2    0    0 -0.10096284965E+04 -0.13853836428E+03 -0.57086350444E+03  0.11708750423E+04  0.80750509685E+02 0.  0.
        254    2    1    2    0    0  0.10096284965E+04  0.13853836428E+03  0.12218948493E+04  0.18267677812E+04  0.89750260411E+03 0.  0.
         23    2    4    4    0    0  0.10471323006E+04 -0.13175797735E+03  0.10551685742E+04  0.14951037365E+04  0.90045784283E+02 0.  0.
         23    2    4    4    0    0 -0.37503804176E+02  0.27029634163E+03  0.16672627516E+03  0.33166404473E+03  0.87958740984E+02 0.  0.
          2    1    3    3  502    0 -0.67947686839E+03 -0.11866215753E+03 -0.41777116788E+03  0.80641321357E+03  0.00000000000E+00 0. -1.
         -1    1    3    3    0  502 -0.33015162807E+03 -0.19876206754E+02 -0.15309233655E+03  0.36446182876E+03  0.00000000000E+00 0.  1.
         11    1    5    5    0    0  0.58907459658E+03 -0.11904211497E+03  0.59601108834E+03  0.84640954797E+03  0.00000000000E+00 0. -1.
        -11    1    5    5    0    0  0.45805770406E+03 -0.12715862375E+02  0.45915748581E+03  0.64869418849E+03  0.00000000000E+00 0.  1.
          1    1    6    6  503    0  0.28897305124E+02  0.71564664184E+02  0.45316581968E+02  0.89499430191E+02  0.00000000000E+00 0. -1.
         -1    1    6    6    0  503 -0.66401109300E+02  0.19873167744E+03  0.12140969319E+03  0.24216461454E+03  0.00000000000E+00 0.  1.
<mgrwt>
<rscale>  0 0.29260931E+04</rscale>
<asrwt>0</asrwt>
<pdfrwt beam="1">  1        2 0.18050858E+00 0.29260931E+04</pdfrwt>
<pdfrwt beam="2">  1       -1 0.28066724E+00 0.29260931E+04</pdfrwt>
<totfact> 0.84975642E-01</totfact>
</mgrwt>
</event>
<event>
12    6  0.1542110E-007  0.2060689E+04  0.7818608E-02  0.8578761E-01
          2   -1    0    0  501    0  0.00000000000E+00  0.00000000000E+00  0.16731329193E+04  0.16731329193E+04  0.00000000000E+00 0. -1.
         -1   -1    0    0    0  501 -0.00000000000E+00 -0.00000000000E+00 -0.63450426768E+03  0.63450426768E+03  0.00000000000E+00 0.  1.
         24    2    1    2    0    0 -0.49258309243E+03  0.49049841528E+03 -0.87674776103E+02  0.70521596842E+03  0.80099297141E+02 0.  0.
        254    2    1    2    0    0  0.49258309243E+03 -0.49049841528E+03  0.11263034278E+04  0.16024212186E+04  0.90330922286E+03 0.  0.
         23    2    4    4    0    0  0.74865648015E+03 -0.33518647133E+03  0.78123976433E+03  0.11364501081E+04  0.91360730448E+02 0.  0.
         23    2    4    4    0    0 -0.25607338772E+03 -0.15531194395E+03  0.34506366344E+03  0.46597111047E+03  0.91459084483E+02 0.  0.
          4    1    3    3  502    0 -0.19887834987E+03  0.14438597637E+03 -0.26913191229E+02  0.24723314519E+03  0.00000000000E+00 0. -1.
         -3    1    3    3    0  502 -0.29370474256E+03  0.34611243891E+03 -0.60761584874E+02  0.45798282322E+03  0.00000000000E+00 0.  1.
         11    1    5    5    0    0  0.33865362938E+03 -0.19874335523E+03  0.39294337496E+03  0.55550850387E+03  0.00000000000E+00 0. -1.
        -11    1    5    5    0    0  0.41000285077E+03 -0.13644311610E+03  0.38829638938E+03  0.58094160427E+03  0.00000000000E+00 0.  1.
          4    1    6    6  503    0 -0.16831963494E+03 -0.52309396887E+02  0.17187936963E+03  0.24619157218E+03  0.00000000000E+00 0.  1.
         -4    1    6    6    0  503 -0.87753752789E+02 -0.10300254707E+03  0.17318429381E+03  0.21977953830E+03  0.00000000000E+00 0. -1.
<mgrwt>
<rscale>  0 0.20606892E+04</rscale>
<asrwt>0</asrwt>
<pdfrwt beam="1">  1        2 0.25740506E+00 0.20606892E+04</pdfrwt>
<pdfrwt beam="2">  1       -1 0.97616042E-01 0.20606892E+04</pdfrwt>
<totfact> 0.10763078E+01</totfact>
</mgrwt>
</event>
<event>
12    6  0.1542110E-007  0.1807367E+04  0.7818608E-02  0.8702392E-01
         -1   -1    0    0    0  501 -0.00000000000E+00  0.00000000000E+00  0.22488219393E+04  0.22488219393E+04  0.00000000000E+00 0.  1.
          2   -1    0    0  501    0  0.00000000000E+00 -0.00000000000E+00 -0.36314301175E+03  0.36314301175E+03  0.00000000000E+00 0. -1.
         24    2    1    2    0    0  0.49823602621E+03  0.23317519573E+03  0.14146580241E+03  0.57353324393E+03  0.79485841039E+02 0.  0.
        254    2    1    2    0    0 -0.49823602621E+03 -0.23317519573E+03  0.17442131252E+04  0.20384317072E+04  0.90017475470E+03 0.  0.
         23    2    4    4    0    0  0.38154342259E+02 -0.45651015669E+03  0.73598337429E+03  0.87120413811E+03  0.86416699978E+02 0.  0.
         23    2    4    4    0    0 -0.53639036847E+03  0.22333496097E+03  0.10082297509E+04  0.11672275691E+04  0.91103431264E+02 0.  0.
          2    1    3    3  502    0  0.46790679597E+03  0.21790695314E+03  0.11110028663E+03  0.52798057126E+03  0.00000000000E+00 0. -1.
         -1    1    3    3    0  502  0.30329230245E+02  0.15268242587E+02  0.30365515780E+02  0.45552672672E+02  0.00000000000E+00 0.  1.
         11    1    5    5    0    0  0.23975045240E+01 -0.35142857622E+01  0.38650477761E+02  0.38883899799E+02  0.00000000000E+00 0. -1.
        -11    1    5    5    0    0  0.35756837735E+02 -0.45299587093E+03  0.69733289653E+03  0.83232023832E+03  0.00000000000E+00 0.  1.
          3    1    6    6  503    0 -0.10316306224E+03  0.67898793438E+01  0.19437575383E+03  0.22016051769E+03  0.00000000000E+00 0. -1.
         -3    1    6    6    0  503 -0.43322730623E+03  0.21654508162E+03  0.81385399706E+03  0.94706705136E+03  0.00000000000E+00 0.  1.
<mgrwt>
<rscale>  0 0.18073671E+04</rscale>
<asrwt>0</asrwt>
<pdfrwt beam="1">  1        2 0.55868157E-01 0.18073671E+04</pdfrwt>
<pdfrwt beam="2">  1       -1 0.34597260E+00 0.18073671E+04</pdfrwt>
<totfact> 0.15844507E+00</totfact>
</mgrwt>
</event>
<event>
12    6  0.1542110E-007  0.2134779E+04  0.7818608E-02  0.8546076E-01
          2   -1    0    0  501    0  0.00000000000E+00  0.00000000000E+00  0.28072677303E+04  0.28072677303E+04  0.00000000000E+00 0. -1.
         -1   -1    0    0    0  501 -0.00000000000E+00 -0.00000000000E+00 -0.40584676358E+03  0.40584676358E+03  0.00000000000E+00 0.  1.
         24    2    1    2    0    0  0.15929492072E+03 -0.78641009009E+03  0.43541198335E+03  0.91644779185E+03  0.80481416334E+02 0.  0.
        254    2    1    2    0    0 -0.15929492072E+03  0.78641009009E+03  0.19660089834E+04  0.22966667020E+04  0.87502623730E+03 0.  0.
         23    2    4    4    0    0  0.35171441413E+03  0.31424774844E+03  0.70084385739E+03  0.84975684541E+03  0.91923377697E+02 0.  0.
         23    2    4    4    0    0 -0.51100933485E+03  0.47216234165E+03  0.12651651260E+04  0.14469098566E+04  0.94008084867E+02 0.  0.
          2    1    3    3  502    0  0.83958799666E+02 -0.46891139020E+03  0.30125140313E+03  0.56363053482E+03  0.00000000000E+00 0. -1.
         -1    1    3    3    0  502  0.75336121057E+02 -0.31749869989E+03  0.13416058022E+03  0.35281725702E+03  0.00000000000E+00 0.  1.
         11    1    5    5    0    0  0.20076736798E+03  0.21640453132E+03  0.37161750503E+03  0.47459248547E+03  0.00000000000E+00 0.  1.
        -11    1    5    5    0    0  0.15094704615E+03  0.97843217126E+02  0.32922635236E+03  0.37516435994E+03  0.00000000000E+00 0. -1.
          4    1    6    6  503    0 -0.22622048875E+02  0.46068719428E+02  0.63992319397E+02  0.82031097438E+02  0.00000000000E+00 0. -1.
         -4    1    6    6    0  503 -0.48838728598E+03  0.42609362222E+03  0.12011728066E+04  0.13648787592E+04  0.00000000000E+00 0.  1.
<mgrwt>
<rscale>  0 0.21347792E+04</rscale>
<asrwt>0</asrwt>
<pdfrwt beam="1">  1        2 0.43188733E+00 0.21347792E+04</pdfrwt>
<pdfrwt beam="2">  1       -1 0.62437965E-01 0.21347792E+04</pdfrwt>
<totfact> 0.62339633E+00</totfact>
</mgrwt>
</event>
<event>
12    6  0.1542110E-007  0.1785921E+04  0.7818608E-02  0.8713822E-01
          2   -1    0    0  501    0  0.00000000000E+00  0.00000000000E+00  0.26166984958E+04  0.26166984958E+04  0.00000000000E+00 0. -1.
         -1   -1    0    0    0  501 -0.00000000000E+00 -0.00000000000E+00 -0.30472705691E+03  0.30472705691E+03  0.00000000000E+00 0.  1.
         24    2    1    2    0    0 -0.60288757465E+03  0.25232275455E+03  0.90634617128E+03  0.11203041041E+04  0.80484181215E+02 0.  0.
        254    2    1    2    0    0  0.60288757465E+03 -0.25232275455E+03  0.14056252676E+04  0.18011214485E+04  0.91712369909E+03 0.  0.
         23    2    4    4    0    0  0.78226829373E+03 -0.31733498326E+03  0.13262937098E+04  0.15746412331E+04  0.88288353325E+02 0.  0.
         23    2    4    4    0    0 -0.17938071909E+03  0.65012228706E+02  0.79331557776E+02  0.22648021545E+03  0.92713319804E+02 0.  0.
          4    1    3    3  502    0 -0.16766093018E+02  0.23838955054E+02  0.47094906563E+02  0.55383462128E+02  0.00000000000E+00 0. -1.
         -3    1    3    3    0  502 -0.58612148163E+03  0.22848379950E+03  0.85925126472E+03  0.10649206420E+04  0.00000000000E+00 0.  1.
         11    1    5    5    0    0  0.77247748574E+03 -0.30328819896E+03  0.12821126272E+04  0.15272583234E+04  0.00000000000E+00 0.  1.
        -11    1    5    5    0    0  0.97908079900E+01 -0.14046784297E+02  0.44181082618E+02  0.47382909698E+02  0.00000000000E+00 0. -1.
          4    1    6    6  503    0 -0.16477833495E+03  0.75969844123E+02  0.43993633720E+02  0.18670499911E+03  0.00000000000E+00 0.  1.
         -4    1    6    6    0  503 -0.14602384135E+02 -0.10957615417E+02  0.35337924056E+02  0.39775216337E+02  0.00000000000E+00 0. -1.
<mgrwt>
<rscale>  0 0.17859214E+04</rscale>
<asrwt>0</asrwt>
<pdfrwt beam="1">  1        2 0.40256898E+00 0.17859214E+04</pdfrwt>
<pdfrwt beam="2">  1       -1 0.46881087E-01 0.17859214E+04</pdfrwt>
<totfact> 0.14544669E+01</totfact>
</mgrwt>
</event>
<event>
12    6  0.1542110E-007  0.1970808E+04  0.7818608E-02  0.8620392E-01
          2   -1    0    0  501    0  0.00000000000E+00  0.00000000000E+00  0.85896023949E+03  0.85896023949E+03  0.00000000000E+00 0. -1.
         -1   -1    0    0    0  501 -0.00000000000E+00 -0.00000000000E+00 -0.11304606265E+04  0.11304606265E+04  0.00000000000E+00 0.  1.
         24    2    1    2    0    0  0.48542491340E+03 -0.46871406258E+03 -0.45092807104E+03  0.81569205469E+03  0.81775202968E+02 0.  0.
        254    2    1    2    0    0 -0.48542491340E+03  0.46871406258E+03  0.17942768402E+03  0.11737288113E+04  0.94345896026E+03 0.  0.
         23    2    4    4    0    0  0.19872618523E+03  0.41333138357E+03  0.83165675514E+02  0.47437007927E+03  0.88178870393E+02 0.  0.
         23    2    4    4    0    0 -0.68415109863E+03  0.55382679007E+02  0.96262008507E+02  0.69935873204E+03  0.93307528654E+02 0.  0.
          4    1    3    3  502    0  0.47951537357E+03 -0.44130186648E+03 -0.43223132136E+03  0.78198864827E+03  0.00000000000E+00 0. -1.
         -1    1    3    3    0  502  0.59095398264E+01 -0.27412196094E+02 -0.18696749680E+02  0.33703406419E+02  0.00000000000E+00 0.  1.
         11    1    5    5    0    0  0.29881425617E+02  0.14998105117E+03  0.43776749407E+02  0.15907111333E+03  0.00000000000E+00 0. -1.
        -11    1    5    5    0    0  0.16884475962E+03  0.26335033240E+03  0.39388926107E+02  0.31529896594E+03  0.00000000000E+00 0.  1.
          3    1    6    6  503    0 -0.29782033554E+03  0.41637584534E+01 -0.35427247164E+00  0.29784965109E+03  0.00000000000E+00 0. -1.
         -3    1    6    6    0  503 -0.38633076309E+03  0.51218920553E+02  0.96616280979E+02  0.40150908095E+03  0.00000000000E+00 0.  1.
<mgrwt>
<rscale>  0 0.19708077E+04</rscale>
<asrwt>0</asrwt>
<pdfrwt beam="1">  1        2 0.13214773E+00 0.19708077E+04</pdfrwt>
<pdfrwt beam="2">  1       -1 0.17391702E+00 0.19708077E+04</pdfrwt>
<totfact> 0.76577090E+00</totfact>
</mgrwt>
</event>
<event>
12    6  0.1542110E-007  0.1653524E+04  0.7818608E-02  0.8788325E-01
          2   -1    0    0  501    0  0.00000000000E+00  0.00000000000E+00  0.10660467917E+04  0.10660467917E+04  0.00000000000E+00 0. -1.
         -1   -1    0    0    0  501 -0.00000000000E+00 -0.00000000000E+00 -0.64118672050E+03  0.64118672050E+03  0.00000000000E+00 0.  1.
         24    2    1    2    0    0  0.33692227993E+03 -0.39506283521E+03 -0.11596900624E+03  0.53801459425E+03  0.80122573201E+02 0.  0.
        254    2    1    2    0    0 -0.33692227993E+03  0.39506283521E+03  0.54082907741E+03  0.11692189179E+04  0.89720985314E+03 0.  0.
         23    2    4    4    0    0  0.44137834076E+02  0.18951463406E+03 -0.20817555600E+03  0.29907766220E+03  0.90809916789E+02 0.  0.
         23    2    4    4    0    0 -0.38106011401E+03  0.20554820114E+03  0.74900463341E+03  0.87014125572E+03  0.93171833484E+02 0.  0.
          2    1    3    3  502    0  0.41198906322E+02 -0.96010156052E+02 -0.30548857627E+02  0.10885096531E+03  0.00000000000E+00 0. -1.
         -1    1    3    3    0  502  0.29572337361E+03 -0.29905267915E+03 -0.85420148616E+02  0.42916362893E+03  0.00000000000E+00 0.  1.
         11    1    5    5    0    0  0.53741788545E+01  0.80694611968E+02 -0.29047889204E+02  0.85931845472E+02  0.00000000000E+00 0. -1.
        -11    1    5    5    0    0  0.38763655221E+02  0.10882002210E+03 -0.17912766679E+03  0.21314581672E+03  0.00000000000E+00 0.  1.
          1    1    6    6  503    0 -0.78743785053E+02  0.70521110808E+02  0.12473403353E+03  0.16350042775E+03  0.00000000000E+00 0. -1.
         -1    1    6    6    0  503 -0.30231632896E+03  0.13502709033E+03  0.62427059989E+03  0.70664082797E+03  0.00000000000E+00 0.  1.
<mgrwt>
<rscale>  0 0.16535236E+04</rscale>
<asrwt>0</asrwt>
<pdfrwt beam="1">  1        2 0.16400720E+00 0.16535236E+04</pdfrwt>
<pdfrwt beam="2">  1       -1 0.98644111E-01 0.16535236E+04</pdfrwt>
<totfact> 0.24503960E+01</totfact>
</mgrwt>
</event>
<event>
12    6  0.1542110E-007  0.2580294E+04  0.7818608E-02  0.8374926E-01
          2   -1    0    0  501    0  0.00000000000E+00  0.00000000000E+00  0.91415102939E+03  0.91415102939E+03  0.00000000000E+00 0. -1.
         -1   -1    0    0    0  501 -0.00000000000E+00 -0.00000000000E+00 -0.18207917839E+04  0.18207917839E+04  0.00000000000E+00 0.  1.
         24    2    1    2    0    0  0.32857505058E+03 -0.29143424833E+03 -0.15094389179E+04  0.15740893953E+04  0.80349813044E+02 0.  0.
        254    2    1    2    0    0 -0.32857505058E+03  0.29143424833E+03  0.60279816340E+03  0.11608534180E+04  0.88956143539E+03 0.  0.
         23    2    4    4    0    0  0.64626999994E+02  0.23732954758E+03  0.69513912422E+03  0.74348125806E+03  0.95100030437E+02 0.  0.
         23    2    4    4    0    0 -0.39320205058E+03  0.54104700757E+02 -0.92340960817E+02  0.41737215995E+03  0.90208068572E+02 0.  0.
          2    1    3    3  502    0  0.24133995804E+02 -0.36735665187E+02 -0.89445655710E+02  0.99661849148E+02  0.00000000000E+00 0. -1.
         -1    1    3    3    0  502  0.30444105478E+03 -0.25469858315E+03 -0.14199932622E+04  0.14744275461E+04  0.00000000000E+00 0.  1.
         11    1    5    5    0    0  0.21313429072E+01  0.78628424644E+01 -0.64722810396E+00  0.81722590773E+01  0.00000000000E+00 0. -1.
        -11    1    5    5    0    0  0.62495657087E+02  0.22946670511E+03  0.69578635232E+03  0.73530899898E+03  0.00000000000E+00 0.  1.
          1    1    6    6  503    0 -0.56715736898E+02 -0.15582439116E+02 -0.36541944104E+02  0.69244500862E+02  0.00000000000E+00 0. -1.
         -1    1    6    6    0  503 -0.33648631368E+03  0.69687139873E+02 -0.55799016713E+02  0.34812765909E+03  0.00000000000E+00 0.  1.
<mgrwt>
<rscale>  0 0.25802935E+04</rscale>
<asrwt>0</asrwt>
<pdfrwt beam="1">  1        2 0.14063862E+00 0.25802935E+04</pdfrwt>
<pdfrwt beam="2">  1       -1 0.28012181E+00 0.25802935E+04</pdfrwt>
<totfact> 0.12873132E+00</totfact>
</mgrwt>
</event>
<event>
12    6  0.1542110E-007  0.1199117E+04  0.7818608E-02  0.9113629E-01
         -1   -1    0    0    0  501 -0.00000000000E+00  0.00000000000E+00  0.86690129172E+03  0.86690129172E+03  0.00000000000E+00 0.  1.
          2   -1    0    0  501    0  0.00000000000E+00 -0.00000000000E+00 -0.41466152212E+03  0.41466152212E+03  0.00000000000E+00 0. -1.
         24    2    1    2    0    0  0.23468544659E+03  0.64409135736E+02  0.78794328901E+02  0.26692322662E+03  0.76247406735E+02 0.  0.
        254    2    1    2    0    0 -0.23468544659E+03 -0.64409135736E+02  0.37344544069E+03  0.10146395872E+04  0.91148570980E+03 0.  0.
         23    2    4    4    0    0  0.58577439160E+02  0.19210630862E+03 -0.21165281800E+03  0.30588791417E+03  0.91838719904E+02 0.  0.
         23    2    4    4    0    0 -0.29326288575E+03 -0.25651544436E+03  0.58509825870E+03  0.70875167305E+03  0.90474683616E+02 0.  0.
          4    1    3    3  502    0  0.20555465582E+03  0.37147504126E+02  0.42875271406E+02  0.21323916734E+03  0.00000000000E+00 0. -1.
         -1    1    3    3    0  502  0.29130790777E+02  0.27261631610E+02  0.35919057496E+02  0.53684059279E+02  0.00000000000E+00 0.  1.
         11    1    5    5    0    0  0.25856585697E+01  0.22367116935E+02  0.69051741345E+01  0.23551114200E+02  0.00000000000E+00 0. -1.
        -11    1    5    5    0    0  0.55991780591E+02  0.16973919169E+03 -0.21855799214E+03  0.28233679997E+03  0.00000000000E+00 0.  1.
          2    1    6    6  503    0 -0.14927209325E+03 -0.15815187417E+03  0.25274022858E+03  0.33342434865E+03  0.00000000000E+00 0. -1.
         -2    1    6    6    0  503 -0.14399079250E+03 -0.98363570184E+02  0.33235803012E+03  0.37532732441E+03  0.00000000000E+00 0.  1.
<mgrwt>
<rscale>  0 0.11991174E+04</rscale>
<asrwt>0</asrwt>
<pdfrwt beam="1">  1        2 0.63794081E-01 0.11991174E+04</pdfrwt>
<pdfrwt beam="2">  1       -1 0.13336943E+00 0.11991174E+04</pdfrwt>
<totfact> 0.40978813E+01</totfact>
</mgrwt>
</event>
<event>
12    6  0.1542110E-007  0.1992596E+04  0.7818608E-02  0.8610090E-01
         -1   -1    0    0    0  501 -0.00000000000E+00  0.00000000000E+00  0.33273209917E+03  0.33273209917E+03  0.00000000000E+00 0.  1.
          2   -1    0    0  501    0  0.00000000000E+00 -0.00000000000E+00 -0.29832095117E+04  0.29832095117E+04  0.00000000000E+00 0. -1.
         24    2    1    2    0    0  0.31612570209E+03 -0.25840220596E+03 -0.21809542045E+04  0.22202345962E+04  0.78570099270E+02 0.  0.
        254    2    1    2    0    0 -0.31612570209E+03  0.25840220596E+03 -0.46952320803E+03  0.10957070147E+04  0.90189503798E+03 0.  0.
         23    2    4    4    0    0 -0.62475478557E+03  0.18120372688E+03 -0.32962814111E+03  0.73595877194E+03  0.99132587249E+02 0.  0.
         23    2    4    4    0    0  0.30862908349E+03  0.77198479077E+02 -0.13989506692E+03  0.35974824272E+03  0.92933589444E+02 0.  0.
          2    1    3    3  502    0  0.29237545739E+03 -0.20476396636E+03 -0.18496925626E+04  0.18838190641E+04  0.00000000000E+00 0. -1.
         -1    1    3    3    0  502  0.23750244697E+02 -0.53638239595E+02 -0.33126164189E+03  0.33641553213E+03  0.00000000000E+00 0.  1.
         11    1    5    5    0    0 -0.50304289771E+03  0.10489842718E+03 -0.26927706697E+03  0.58014306490E+03  0.00000000000E+00 0. -1.
        -11    1    5    5    0    0 -0.12171188786E+03  0.76305299701E+02 -0.60351074146E+02  0.15581570704E+03  0.00000000000E+00 0.  1.
          1    1    6    6  503    0  0.31313193931E+03  0.81698884301E+02 -0.14147692787E+03  0.35318839198E+03  0.00000000000E+00 0. -1.
         -1    1    6    6    0  503 -0.45028558211E+01 -0.45004052239E+01  0.15818609434E+01  0.65598507429E+01  0.00000000000E+00 0.  1.
<mgrwt>
<rscale>  0 0.19925959E+04</rscale>
<asrwt>0</asrwt>
<pdfrwt beam="1">  1        2 0.45895532E+00 0.19925959E+04</pdfrwt>
<pdfrwt beam="2">  1       -1 0.51189552E-01 0.19925959E+04</pdfrwt>
<totfact> 0.72604052E+00</totfact>
</mgrwt>
</event>
<event>
12    6  0.1542110E-007  0.3632140E+04  0.7818608E-02  0.8083169E-01
         -1   -1    0    0    0  501 -0.00000000000E+00  0.00000000000E+00  0.10159203132E+04  0.10159203132E+04  0.00000000000E+00 0.  1.
          2   -1    0    0  501    0  0.00000000000E+00 -0.00000000000E+00 -0.32464252790E+04  0.32464252790E+04  0.00000000000E+00 0. -1.
         24    2    1    2    0    0  0.13971848151E+04  0.52300458908E+03 -0.20100601793E+04  0.25044611903E+04  0.79528117917E+02 0.  0.
        254    2    1    2    0    0 -0.13971848151E+04 -0.52300458908E+03 -0.22044478653E+03  0.17578844019E+04  0.90327319178E+03 0.  0.
         23    2    4    4    0    0 -0.19268751742E+03 -0.14769006459E+03  0.29436318146E+03  0.39231141411E+03  0.91201581659E+02 0.  0.
         23    2    4    4    0    0 -0.12044972976E+04 -0.37531452448E+03 -0.51480796799E+03  0.13655729878E+04  0.89931133836E+02 0.  0.
          2    1    3    3  502    0  0.96759684913E+03  0.37135019973E+03 -0.13355378907E+04  0.16905046852E+04  0.00000000000E+00 0. -1.
         -1    1    3    3    0  502  0.42958796593E+03  0.15165438935E+03 -0.67452228866E+03  0.81395650509E+03  0.00000000000E+00 0.  1.
         11    1    5    5    0    0 -0.19054248769E+03 -0.12631680317E+03  0.29178559219E+03  0.37067668687E+03  0.00000000000E+00 0.  1.
        -11    1    5    5    0    0 -0.21450297298E+01 -0.21373261426E+02  0.25775892661E+01  0.21634727245E+02  0.00000000000E+00 0. -1.
          1    1    6    6  503    0 -0.79720462613E+03 -0.29201467209E+03 -0.33794679700E+03  0.91379200163E+03  0.00000000000E+00 0. -1.
         -1    1    6    6    0  503 -0.40729267151E+03 -0.83299852390E+02 -0.17686117098E+03  0.45178098618E+03  0.00000000000E+00 0.  1.
<mgrwt>
<rscale>  0 0.36321395E+04</rscale>
<asrwt>0</asrwt>
<pdfrwt beam="1">  1        2 0.49945003E+00 0.36321395E+04</pdfrwt>
<pdfrwt beam="2">  1       -1 0.15629544E+00 0.36321395E+04</pdfrwt>
<totfact> 0.34756143E-01</totfact>
</mgrwt>
</event>
<event>
12    6  0.1542110E-007  0.1035418E+04  0.7818608E-02  0.9270530E-01
          2   -1    0    0  501    0  0.00000000000E+00  0.00000000000E+00  0.12928949903E+04  0.12928949903E+04  0.00000000000E+00 0. -1.
         -1   -1    0    0    0  501 -0.00000000000E+00 -0.00000000000E+00 -0.20730423239E+03  0.20730423239E+03  0.00000000000E+00 0.  1.
         24    2    1    2    0    0 -0.37016788244E+02 -0.40841755464E+02  0.36924928711E+03  0.38178486523E+03  0.79852086290E+02 0.  0.
        254    2    1    2    0    0  0.37016788244E+02  0.40841755464E+02  0.71634147081E+03  0.11184143575E+04  0.85712734212E+03 0.  0.
         23    2    4    4    0    0  0.46640295339E+02 -0.10013938266E+03 -0.16693593489E+03  0.21949879450E+03  0.90049438204E+02 0.  0.
         23    2    4    4    0    0 -0.96235070947E+01  0.14098113812E+03  0.88327740570E+03  0.89891556297E+03  0.88892748572E+02 0.  0.
          4    1    3    3  502    0 -0.57849815788E+01 -0.57934998780E+02  0.27354344578E+03  0.27967114049E+03  0.00000000000E+00 0. -1.
         -3    1    3    3    0  502 -0.31231806665E+02  0.17093243316E+02  0.95705841334E+02  0.10211372474E+03  0.00000000000E+00 0.  1.
         11    1    5    5    0    0  0.19460697385E+02 -0.78717453824E+02 -0.44978957940E+02  0.92726818864E+02  0.00000000000E+00 0.  1.
        -11    1    5    5    0    0  0.27179597954E+02 -0.21421928834E+02 -0.12195697695E+03  0.12677197564E+03  0.00000000000E+00 0. -1.
          1    1    6    6  503    0 -0.26132042925E+02  0.14986255291E+01  0.11983742083E+03  0.12266269595E+03  0.00000000000E+00 0. -1.
         -1    1    6    6    0  503  0.16508535831E+02  0.13948251259E+03  0.76343998487E+03  0.77625286703E+03  0.00000000000E+00 0.  1.
<mgrwt>
<rscale>  0 0.10354180E+04</rscale>
<asrwt>0</asrwt>
<pdfrwt beam="1">  1        2 0.19890692E+00 0.10354180E+04</pdfrwt>
<pdfrwt beam="2">  1       -1 0.31892960E-01 0.10354180E+04</pdfrwt>
<totfact> 0.17339179E+02</totfact>
</mgrwt>
</event>
<event>
12    6  0.1542110E-007  0.1452758E+04  0.7818608E-02  0.8916491E-01
          2   -1    0    0  501    0  0.00000000000E+00  0.00000000000E+00  0.87812562525E+03  0.87812562525E+03  0.00000000000E+00 0. -1.
         -1   -1    0    0    0  501 -0.00000000000E+00 -0.00000000000E+00 -0.60085504962E+03  0.60085504962E+03  0.00000000000E+00 0.  1.
         24    2    1    2    0    0  0.28577087530E+03  0.29090622394E+03 -0.10950244870E+03  0.42982156412E+03  0.80401283675E+02 0.  0.
        254    2    1    2    0    0 -0.28577087530E+03 -0.29090622394E+03  0.38677302433E+03  0.10491591107E+04  0.88591762767E+03 0.  0.
         23    2    4    4    0    0  0.25997382722E+03 -0.14350593977E+03 -0.68081109102E+02  0.31753636014E+03  0.89520707150E+02 0.  0.
         23    2    4    4    0    0 -0.54574470251E+03 -0.14740028417E+03  0.45485413343E+03  0.73162275061E+03  0.93890587431E+02 0.  0.
          4    1    3    3  502    0  0.24397602431E+03  0.20832106180E+03 -0.65927238847E+02  0.32751849727E+03  0.00000000000E+00 0. -1.
         -3    1    3    3    0  502  0.41794850985E+02  0.82585162135E+02 -0.43575209851E+02  0.10230306685E+03  0.00000000000E+00 0.  1.
         11    1    5    5    0    0  0.24530980293E+03 -0.14227256763E+03 -0.40748487311E+02  0.28649401762E+03  0.00000000000E+00 0.  1.
        -11    1    5    5    0    0  0.14664024285E+02 -0.12333721339E+01 -0.27332621791E+02  0.31042342518E+02  0.00000000000E+00 0. -1.
          1    1    6    6  503    0 -0.25974841367E+02 -0.27140368492E+02  0.16074333661E+02  0.40861671387E+02  0.00000000000E+00 0. -1.
         -1    1    6    6    0  503 -0.51976986115E+03 -0.12025991568E+03  0.43877979977E+03  0.69076107922E+03  0.00000000000E+00 0.  1.
<mgrwt>
<rscale>  0 0.14527577E+04</rscale>
<asrwt>0</asrwt>
<pdfrwt beam="1">  1        2 0.13509625E+00 0.14527577E+04</pdfrwt>
<pdfrwt beam="2">  1       -1 0.92439239E-01 0.14527577E+04</pdfrwt>
<totfact> 0.38241948E+01</totfact>
</mgrwt>
</event>
<event>
12    6  0.1542110E-007  0.1739812E+04  0.7818608E-02  0.8738978E-01
         -1   -1    0    0    0  501 -0.00000000000E+00  0.00000000000E+00  0.13123795613E+04  0.13123795613E+04  0.00000000000E+00 0.  1.
          2   -1    0    0  501    0  0.00000000000E+00 -0.00000000000E+00 -0.57661414004E+03  0.57661414004E+03  0.00000000000E+00 0. -1.
         24    2    1    2    0    0 -0.13577500126E+03  0.13778662999E+03 -0.38588239933E+03  0.43914867972E+03  0.80785706778E+02 0.  0.
        254    2    1    2    0    0  0.13577500126E+03 -0.13778662999E+03  0.11216478206E+04  0.14498450216E+04  0.89807390949E+03 0.  0.
         23    2    4    4    0    0  0.20927973990E+03  0.30447722463E+03  0.22216545535E+03  0.44088043865E+03  0.92269614632E+02 0.  0.
         23    2    4    4    0    0 -0.73504738646E+02 -0.44226385463E+03  0.89948236527E+03  0.10089645830E+04  0.89110833050E+02 0.  0.
          4    1    3    3  502    0 -0.13929748318E+03  0.10337288390E+03 -0.29965925551E+03  0.34624472755E+03  0.00000000000E+00 0. -1.
         -3    1    3    3    0  502  0.35224819176E+01  0.34413746095E+02 -0.86223143819E+02  0.92903952172E+02  0.00000000000E+00 0.  1.
         11    1    5    5    0    0  0.21805494002E+03  0.28472331881E+03  0.20364276721E+03  0.41241447814E+03  0.00000000000E+00 0.  1.
        -11    1    5    5    0    0 -0.87752001144E+01  0.19753905820E+02  0.18522688140E+02  0.28465960516E+02  0.00000000000E+00 0. -1.
          4    1    6    6  503    0 -0.24991391743E+02 -0.15902816741E+03  0.42224047288E+03  0.45188665020E+03  0.00000000000E+00 0. -1.
         -4    1    6    6    0  503 -0.48513346903E+02 -0.28323568721E+03  0.47724189239E+03  0.55707793278E+03  0.00000000000E+00 0.  1.
<mgrwt>
<rscale>  0 0.17398122E+04</rscale>
<asrwt>0</asrwt>
<pdfrwt beam="1">  1        2 0.88709868E-01 0.17398122E+04</pdfrwt>
<pdfrwt beam="2">  1       -1 0.20190455E+00 0.17398122E+04</pdfrwt>
<totfact> 0.82326142E+00</totfact>
</mgrwt>
</event>
<event>
12    6  0.1542110E-007  0.1993662E+04  0.7818608E-02  0.8609590E-01
          2   -1    0    0  501    0  0.00000000000E+00  0.00000000000E+00  0.34370260618E+04  0.34370260618E+04  0.00000000000E+00 0. -1.
         -1   -1    0    0    0  501 -0.00000000000E+00 -0.00000000000E+00 -0.28910802774E+03  0.28910802774E+03  0.00000000000E+00 0.  1.
         24    2    1    2    0    0  0.13466679272E+03 -0.54387982686E+03  0.22122717398E+04  0.22836760880E+04  0.84201027606E+02 0.  0.
        254    2    1    2    0    0 -0.13466679272E+03  0.54387982686E+03  0.93564629422E+03  0.14424580015E+04  0.94409252042E+03 0.  0.
         23    2    4    4    0    0 -0.43570145112E+03  0.18960678085E+03  0.82745594353E+03  0.95782098143E+03  0.83373905686E+02 0.  0.
         23    2    4    4    0    0  0.30103465840E+03  0.35427304600E+03  0.10819035069E+03  0.48463702007E+03  0.83884638397E+02 0.  0.
          2    1    3    3  502    0  0.10904262272E+03 -0.51395265611E+03  0.20050930145E+04  0.20727845095E+04  0.00000000000E+00 0. -1.
         -1    1    3    3    0  502  0.25624169995E+02 -0.29927170746E+02  0.20717872533E+03  0.21089157846E+03  0.00000000000E+00 0.  1.
         11    1    5    5    0    0 -0.15724119267E+03  0.56399724014E+02  0.36997117593E+03  0.40593643906E+03  0.00000000000E+00 0. -1.
        -11    1    5    5    0    0 -0.27846025844E+03  0.13320705684E+03  0.45748476760E+03  0.55188454237E+03  0.00000000000E+00 0.  1.
          1    1    6    6  503    0 -0.60782268713E+00  0.19658692048E+02  0.14646379942E+02  0.24522440067E+02  0.00000000000E+00 0. -1.
         -1    1    6    6    0  503  0.30164248109E+03  0.33461435396E+03  0.93543970748E+02  0.46011458000E+03  0.00000000000E+00 0.  1.
<mgrwt>
<rscale>  0 0.19936618E+04</rscale>
<asrwt>0</asrwt>
<pdfrwt beam="1">  1        2 0.52877321E+00 0.19936618E+04</pdfrwt>
<pdfrwt beam="2">  1       -1 0.44478161E-01 0.19936618E+04</pdfrwt>
<totfact> 0.47867009E+00</totfact>
</mgrwt>
</event>
<event>
12    6  0.1542110E-007  0.2326669E+04  0.7818608E-02  0.8467480E-01
         -1   -1    0    0    0  501 -0.00000000000E+00  0.00000000000E+00  0.59010960857E+03  0.59010960857E+03  0.00000000000E+00 0.  1.
          2   -1    0    0  501    0  0.00000000000E+00 -0.00000000000E+00 -0.22933820879E+04  0.22933820879E+04  0.00000000000E+00 0. -1.
         24    2    1    2    0    0  0.73488863559E+03  0.60220264559E+03 -0.10767442501E+04  0.14378994080E+04  0.73940477113E+02 0.  0.
        254    2    1    2    0    0 -0.73488863559E+03 -0.60220264559E+03 -0.62652822915E+03  0.14455922885E+04  0.89134174673E+03 0.  0.
         23    2    4    4    0    0 -0.24066132091E+03  0.35617702573E+02  0.16868121047E+03  0.30895290364E+03  0.88385823423E+02 0.  0.
         23    2    4    4    0    0 -0.49422731467E+03 -0.63782034816E+03 -0.79520943962E+03  0.11366393848E+04  0.92280025808E+02 0.  0.
          4    1    3    3  502    0  0.13979026862E+03  0.14768782677E+03 -0.25482094435E+03  0.32601645212E+03  0.00000000000E+00 0. -1.
         -3    1    3    3    0  502  0.59509836697E+03  0.45451481882E+03 -0.82192330579E+03  0.11118829558E+04  0.00000000000E+00 0.  1.
         11    1    5    5    0    0 -0.55141430703E+02  0.46011593551E+02  0.33958731040E+02  0.79440792638E+02  0.00000000000E+00 0.  1.
        -11    1    5    5    0    0 -0.18551989021E+03 -0.10393890978E+02  0.13472247943E+03  0.22951211100E+03  0.00000000000E+00 0. -1.
          2    1    6    6  503    0 -0.30489950359E+03 -0.43993741400E+03 -0.57146836373E+03  0.78299727092E+03  0.00000000000E+00 0. -1.
         -2    1    6    6    0  503 -0.18932781108E+03 -0.19788293416E+03 -0.22374107590E+03  0.35364211390E+03  0.00000000000E+00 0.  1.
<mgrwt>
<rscale>  0 0.23266687E+04</rscale>
<asrwt>0</asrwt>
<pdfrwt beam="1">  1        2 0.35282801E+00 0.23266687E+04</pdfrwt>
<pdfrwt beam="2">  1       -1 0.90786094E-01 0.23266687E+04</pdfrwt>
<totfact> 0.55767063E+00</totfact>
</mgrwt>
</event>
<event>
12    6  0.1542110E-007  0.1276270E+04  0.7818608E-02  0.9048598E-01
          2   -1    0    0  501    0  0.00000000000E+00  0.00000000000E+00  0.42693587965E+04  0.42693587965E+04  0.00000000000E+00 0. -1.
         -1   -1    0    0    0  501 -0.00000000000E+00 -0.00000000000E+00 -0.95381060483E+02  0.95381060483E+02  0.00000000000E+00 0.  1.
         24    2    1    2    0    0  0.18377839227E+03  0.12587206465E+03  0.31557913948E+03  0.39453368131E+03  0.80301670559E+02 0.  0.
        254    2    1    2    0    0 -0.18377839227E+03 -0.12587206465E+03  0.38583985965E+04  0.39702061757E+04  0.90866884694E+03 0.  0.
         23    2    4    4    0    0  0.30332510657E+03  0.35678705592E+02  0.24097916520E+04  0.24307839113E+04  0.91299105823E+02 0.  0.
         23    2    4    4    0    0 -0.48710349884E+03 -0.16155077024E+03  0.14486069445E+04  0.15394222644E+04  0.89388805395E+02 0.  0.
          4    1    3    3  502    0  0.20792765398E+02 -0.97499715025E+01  0.47309493582E+02  0.52588869737E+02  0.00000000000E+00 0. -1.
         -1    1    3    3    0  502  0.16298562687E+03  0.13562203615E+03  0.26826964589E+03  0.34194481158E+03  0.00000000000E+00 0.  1.
         11    1    5    5    0    0  0.23890984353E+03  0.31101330739E+02  0.21327719560E+04  0.21463367449E+04  0.00000000000E+00 0.  1.
        -11    1    5    5    0    0  0.64415263040E+02  0.45773748527E+01  0.27701969603E+03  0.28444716638E+03  0.00000000000E+00 0. -1.
          1    1    6    6  503    0 -0.72230107453E+01  0.50109830855E+01  0.63564380050E+02  0.64169402731E+02  0.00000000000E+00 0. -1.
         -1    1    6    6    0  503 -0.47988048810E+03 -0.16656175332E+03  0.13850425645E+04  0.14752528617E+04  0.00000000000E+00 0.  1.
<mgrwt>
<rscale>  0 0.12762695E+04</rscale>
<asrwt>0</asrwt>
<pdfrwt beam="1">  1        2 0.65682428E+00 0.12762695E+04</pdfrwt>
<pdfrwt beam="2">  1       -1 0.14674013E-01 0.12762695E+04</pdfrwt>
<totfact> 0.80440225E+00</totfact>
</mgrwt>
</event>
<event>
12    6  0.1542110E-007  0.1097774E+04  0.7818608E-02  0.9207364E-01
          2   -1    0    0  501    0  0.00000000000E+00  0.00000000000E+00  0.32245551748E+04  0.32245551748E+04  0.00000000000E+00 0. -1.
         -1   -1    0    0    0  501 -0.00000000000E+00 -0.00000000000E+00 -0.93432111855E+02  0.93432111855E+02  0.00000000000E+00 0.  1.
         24    2    1    2    0    0 -0.20111484809E+02 -0.15982905452E+02  0.97159031971E+03  0.97514916741E+03  0.79172117895E+02 0.  0.
        254    2    1    2    0    0  0.20111484809E+02  0.15982905452E+02  0.21595327432E+04  0.23428381192E+04  0.90810178879E+03 0.  0.
         23    2    4    4    0    0 -0.13854905934E+03  0.16546089394E+03  0.20783162952E+04  0.20915047545E+04  0.91762551242E+02 0.  0.
         23    2    4    4    0    0  0.15866054415E+03 -0.14947798849E+03  0.81216448009E+02  0.25133336475E+03  0.95160451346E+02 0.  0.
          2    1    3    3  502    0 -0.31833828412E+02 -0.42123630407E+02  0.71989413053E+03  0.72182778558E+03  0.00000000000E+00 0. -1.
         -1    1    3    3    0  502  0.11722343602E+02  0.26140724955E+02  0.25169618918E+03  0.25332138183E+03  0.00000000000E+00 0.  1.
         11    1    5    5    0    0 -0.64845083766E+02  0.13487077392E+03  0.11357982471E+04  0.11456145376E+04  0.00000000000E+00 0. -1.
        -11    1    5    5    0    0 -0.73703975572E+02  0.30590120019E+02  0.94251804810E+03  0.94589021691E+03  0.00000000000E+00 0.  1.
          3    1    6    6  503    0  0.13499359580E+03 -0.15964807586E+03  0.84224760666E+02  0.22539873412E+03  0.00000000000E+00 0. -1.
         -3    1    6    6    0  503  0.23666948346E+02  0.10170087373E+02 -0.30083126565E+01  0.25934630636E+02  0.00000000000E+00 0.  1.
<mgrwt>
<rscale>  0 0.10977741E+04</rscale>
<asrwt>0</asrwt>
<pdfrwt beam="1">  1        2 0.49608533E+00 0.10977741E+04</pdfrwt>
<pdfrwt beam="2">  1       -1 0.14374174E-01 0.10977741E+04</pdfrwt>
<totfact> 0.51074690E+01</totfact>
</mgrwt>
</event>
<event>
12    6  0.1542110E-007  0.2814351E+04  0.7818608E-02  0.8298827E-01
         -1   -1    0    0    0  501 -0.00000000000E+00  0.00000000000E+00  0.13854604905E+04  0.13854604905E+04  0.00000000000E+00 0.  1.
          2   -1    0    0  501    0  0.00000000000E+00 -0.00000000000E+00 -0.14292304387E+04  0.14292304387E+04  0.00000000000E+00 0. -1.
         24    2    1    2    0    0  0.15598048140E+03  0.12523669030E+04 -0.28767051171E+03  0.12968983955E+04  0.80239359299E+02 0.  0.
        254    2    1    2    0    0 -0.15598048140E+03 -0.12523669030E+04  0.24390056346E+03  0.15177925337E+04  0.80712695421E+03 0.  0.
         23    2    4    4    0    0  0.25632710776E+03 -0.30202900037E+03  0.25097453586E+03  0.47784327632E+03  0.91765330296E+02 0.  0.
         23    2    4    4    0    0 -0.41230758916E+03 -0.95033790260E+03 -0.70739723929E+01  0.10399492574E+04  0.91130343957E+02 0.  0.
          4    1    3    3  502    0  0.67108080888E+01  0.37295219008E+02  0.49211185377E+01  0.38212376447E+02  0.00000000000E+00 0. -1.
         -3    1    3    3    0  502  0.14926967331E+03  0.12150716840E+04 -0.29259163025E+03  0.12586860191E+04  0.00000000000E+00 0.  1.
         11    1    5    5    0    0  0.16001097387E+03 -0.20793582561E+03  0.21297906674E+03  0.33793623985E+03  0.00000000000E+00 0. -1.
        -11    1    5    5    0    0  0.96316133891E+02 -0.94093174752E+02  0.37995469119E+02  0.13990703648E+03  0.00000000000E+00 0.  1.
          3    1    6    6  503    0 -0.41056196982E+03 -0.91628696087E+03  0.40927685246E+01  0.10040715495E+04  0.00000000000E+00 0. -1.
         -3    1    6    6    0  503 -0.17456193407E+01 -0.34050941721E+02 -0.11166740918E+02  0.35877707866E+02  0.00000000000E+00 0.  1.
<mgrwt>
<rscale>  0 0.28143506E+04</rscale>
<asrwt>0</asrwt>
<pdfrwt beam="1">  1        2 0.21988161E+00 0.28143506E+04</pdfrwt>
<pdfrwt beam="2">  1       -1 0.21314777E+00 0.28143506E+04</pdfrwt>
<totfact> 0.16870025E+00</totfact>
</mgrwt>
</event>
<event>
12    6  0.1542110E-007  0.1862200E+04  0.7818608E-02  0.8673904E-01
         -1   -1    0    0    0  501 -0.00000000000E+00  0.00000000000E+00  0.60656458296E+03  0.60656458296E+03  0.00000000000E+00 0.  1.
          2   -1    0    0  501    0  0.00000000000E+00 -0.00000000000E+00 -0.14292744154E+04  0.14292744154E+04  0.00000000000E+00 0. -1.
         24    2    1    2    0    0 -0.18970447942E+03  0.67607604051E+03 -0.45514581232E+03  0.84268526200E+03  0.99469282993E+02 0.  0.
        254    2    1    2    0    0  0.18970447942E+03 -0.67607604051E+03 -0.36756402007E+03  0.11931537363E+04  0.89187775372E+03 0.  0.
         23    2    4    4    0    0  0.37729320782E+03 -0.13275983884E+03 -0.44583607903E+03  0.60593321172E+03  0.91705551732E+02 0.  0.
         23    2    4    4    0    0 -0.18758872840E+03 -0.54331620167E+03  0.78272058961E+02  0.58722052460E+03  0.91210762962E+02 0.  0.
          4    1    3    3  502    0 -0.81399393397E+02  0.37346572110E+03 -0.29938109737E+03  0.48552193312E+03  0.00000000000E+00 0. -1.
         -3    1    3    3    0  502 -0.10830508602E+03  0.30261031941E+03 -0.15576471495E+03  0.35716332888E+03  0.00000000000E+00 0.  1.
         11    1    5    5    0    0  0.33717924671E+03 -0.10222422635E+03 -0.34459224178E+03  0.49283207075E+03  0.00000000000E+00 0. -1.
        -11    1    5    5    0    0  0.40113961105E+02 -0.30535612483E+02 -0.10124383725E+03  0.11310114096E+03  0.00000000000E+00 0.  1.
          1    1    6    6  503    0 -0.18982302188E+03 -0.45729017303E+03  0.77568550916E+02  0.50116261041E+03  0.00000000000E+00 0. -1.
         -1    1    6    6    0  503  0.22342934787E+01 -0.86026028644E+02  0.70350804518E+00  0.86057914193E+02  0.00000000000E+00 0.  1.
<mgrwt>
<rscale>  0 0.18622000E+04</rscale>
<asrwt>0</asrwt>
<pdfrwt beam="1">  1        2 0.21988837E+00 0.18622000E+04</pdfrwt>
<pdfrwt beam="2">  1       -1 0.93317630E-01 0.18622000E+04</pdfrwt>
<totfact> 0.16613477E+01</totfact>
</mgrwt>
</event>
<event>
12    6  0.1542110E-007  0.1297691E+04  0.7818608E-02  0.9031398E-01
          2   -1    0    0  501    0  0.00000000000E+00  0.00000000000E+00  0.14621966918E+04  0.14621966918E+04  0.00000000000E+00 0. -1.
         -1   -1    0    0    0  501 -0.00000000000E+00 -0.00000000000E+00 -0.28792317469E+03  0.28792317469E+03  0.00000000000E+00 0.  1.
         24    2    1    2    0    0 -0.85880898611E+01 -0.34083387055E+03  0.22585231396E+03  0.41510840322E+03  0.71163446411E+02 0.  0.
        254    2    1    2    0    0  0.85880898611E+01  0.34083387055E+03  0.94842120319E+03  0.13350114633E+04  0.87550633687E+03 0.  0.
         23    2    4    4    0    0  0.26946931352E+03  0.38921290772E+03  0.17895029163E+03  0.51599443319E+03  0.10063125630E+03 0.  0.
         23    2    4    4    0    0 -0.26088122366E+03 -0.48379037167E+02  0.76947091156E+03  0.81901703012E+03  0.91125560581E+02 0.  0.
          4    1    3    3  502    0  0.96400596067E+01 -0.19463852777E+03  0.16634093133E+03  0.25621551998E+03  0.00000000000E+00 0. -1.
         -3    1    3    3    0  502 -0.18228149468E+02 -0.14619534278E+03  0.59511382624E+02  0.15889288324E+03  0.00000000000E+00 0.  1.
         11    1    5    5    0    0 -0.79630323034E+01  0.57780878338E+01 -0.46964869822E+00  0.98497082383E+01  0.00000000000E+00 0. -1.
        -11    1    5    5    0    0  0.27743234582E+03  0.38343481988E+03  0.17941994033E+03  0.50614472495E+03  0.00000000000E+00 0.  1.
          3    1    6    6  503    0 -0.69315020726E+02 -0.52469181353E+02  0.19695221691E+03  0.21528530567E+03  0.00000000000E+00 0. -1.
         -3    1    6    6    0  503 -0.19156620293E+03  0.40901441852E+01  0.57251869466E+03  0.60373172446E+03  0.00000000000E+00 0.  1.
<mgrwt>
<rscale>  0 0.12976907E+04</rscale>
<asrwt>0</asrwt>
<pdfrwt beam="1">  1        2 0.22495333E+00 0.12976907E+04</pdfrwt>
<pdfrwt beam="2">  1       -1 0.44295874E-01 0.12976907E+04</pdfrwt>
<totfact> 0.75116580E+01</totfact>
</mgrwt>
</event>
<event>
12    6  0.1542110E-007  0.2153743E+04  0.7818608E-02  0.8537932E-01
          2   -1    0    0  501    0  0.00000000000E+00  0.00000000000E+00  0.27797006136E+04  0.27797006136E+04  0.00000000000E+00 0. -1.
         -1   -1    0    0    0  501 -0.00000000000E+00 -0.00000000000E+00 -0.41718616105E+03  0.41718616105E+03  0.00000000000E+00 0.  1.
         24    2    1    2    0    0 -0.57406312671E+03 -0.63335349990E+03  0.63982001613E+03  0.10709080418E+04  0.82396915092E+02 0.  0.
        254    2    1    2    0    0  0.57406312671E+03  0.63335349990E+03  0.17226944364E+04  0.21259787328E+04  0.90632462290E+03 0.  0.
         23    2    4    4    0    0  0.25051160263E+03  0.69001518027E+03  0.60293582675E+03  0.95558218766E+03  0.10357940984E+03 0.  0.
         23    2    4    4    0    0  0.32355152408E+03 -0.56661680370E+02  0.11197586096E+04  0.11703965452E+04  0.89847617510E+02 0.  0.
          4    1    3    3  502    0 -0.92874520460E+02 -0.69794332555E+02  0.10958378979E+03  0.15970451588E+03  0.00000000000E+00 0. -1.
         -3    1    3    3    0  502 -0.48118860625E+03 -0.56355916734E+03  0.53023622634E+03  0.91120352589E+03  0.00000000000E+00 0.  1.
         11    1    5    5    0    0  0.77249441764E+02  0.27312258314E+03  0.29321581502E+03  0.40809182282E+03  0.00000000000E+00 0.  1.
        -11    1    5    5    0    0  0.17326216087E+03  0.41689259713E+03  0.30972001173E+03  0.54749036485E+03  0.00000000000E+00 0. -1.
          3    1    6    6  503    0  0.13579574342E+03  0.17656453259E+01  0.58706767861E+03  0.60257120799E+03  0.00000000000E+00 0. -1.
         -3    1    6    6    0  503  0.18775578066E+03 -0.58427325696E+02  0.53269093101E+03  0.56782533718E+03  0.00000000000E+00 0.  1.
<mgrwt>
<rscale>  0 0.21537434E+04</rscale>
<asrwt>0</asrwt>
<pdfrwt beam="1">  1        2 0.42764624E+00 0.21537434E+04</pdfrwt>
<pdfrwt beam="2">  1       -1 0.64182488E-01 0.21537434E+04</pdfrwt>
<totfact> 0.61188138E+00</totfact>
</mgrwt>
</event>
<event>
12    6  0.1542110E-007  0.2404659E+04  0.7818608E-02  0.8437761E-01
         -1   -1    0    0    0  501 -0.00000000000E+00  0.00000000000E+00  0.49272515481E+03  0.49272515481E+03  0.00000000000E+00 0.  1.
          2   -1    0    0  501    0  0.00000000000E+00 -0.00000000000E+00 -0.29338805314E+04  0.29338805314E+04  0.00000000000E+00 0. -1.
         24    2    1    2    0    0  0.17163423517E+03  0.54385638700E+03  0.17598997868E+03  0.60158982688E+03  0.75496800311E+02 0.  0.
        254    2    1    2    0    0 -0.17163423517E+03 -0.54385638700E+03 -0.26171453553E+04  0.28250158594E+04  0.89778990558E+03 0.  0.
         23    2    4    4    0    0  0.51141369019E+02  0.45608827069E+02  0.17148933838E+02  0.11490163373E+03  0.90623919418E+02 0.  0.
         23    2    4    4    0    0 -0.22277560419E+03 -0.58946521406E+03 -0.26342942891E+04  0.27101142256E+04  0.90080551783E+02 0.  0.
          2    1    3    3  502    0  0.54690825510E+02  0.81218983964E+02  0.35444251831E+02  0.10413407098E+03  0.00000000000E+00 0. -1.
         -1    1    3    3    0  502  0.11694340966E+03  0.46263740303E+03  0.14054572684E+03  0.49745575590E+03  0.00000000000E+00 0.  1.
         11    1    5    5    0    0  0.75567190267E+02  0.20418024505E+02  0.15344508199E+02  0.79766847132E+02  0.00000000000E+00 0.  1.
        -11    1    5    5    0    0 -0.24425821248E+02  0.25190802564E+02  0.18044256387E+01  0.35134786599E+02  0.00000000000E+00 0. -1.
          3    1    6    6  503    0 -0.71347590436E+02 -0.31132548258E+03 -0.13752181585E+04  0.14118211707E+04  0.00000000000E+00 0. -1.
         -3    1    6    6    0  503 -0.15142801375E+03 -0.27813973148E+03 -0.12590761307E+04  0.12982930549E+04  0.00000000000E+00 0.  1.
<mgrwt>
<rscale>  0 0.24046594E+04</rscale>
<asrwt>0</asrwt>
<pdfrwt beam="1">  1        2 0.45136622E+00 0.24046594E+04</pdfrwt>
<pdfrwt beam="2">  1       -1 0.75803872E-01 0.24046594E+04</pdfrwt>
<totfact> 0.34235180E+00</totfact>
</mgrwt>
</event>
<event>
12    6  0.1542110E-007  0.1715297E+04  0.7818608E-02  0.8752688E-01
          2   -1    0    0  501    0  0.00000000000E+00  0.00000000000E+00  0.32715618869E+04  0.32715618869E+04  0.00000000000E+00 0. -1.
         -1   -1    0    0    0  501 -0.00000000000E+00 -0.00000000000E+00 -0.22483478137E+03  0.22483478137E+03  0.00000000000E+00 0.  1.
         24    2    1    2    0    0 -0.84164456449E+01  0.41428889533E+03  0.20398039466E+04  0.20831335546E+04  0.83301502515E+02 0.  0.
        254    2    1    2    0    0  0.84164456449E+01 -0.41428889533E+03  0.10069231589E+04  0.14132631137E+04  0.90095075068E+03 0.  0.
         23    2    4    4    0    0  0.29742683477E+03 -0.55444978408E+03  0.50718456071E+03  0.81301080349E+03  0.88730506921E+02 0.  0.
         23    2    4    4    0    0 -0.28901038913E+03  0.14016088875E+03  0.49973859823E+03  0.60025231020E+03  0.85977261984E+02 0.  0.
          2    1    3    3  502    0 -0.24736967581E+02  0.12648314952E+03  0.79566669791E+03  0.80603684707E+03  0.00000000000E+00 0. -1.
         -1    1    3    3    0  502  0.16320521936E+02  0.28780574581E+03  0.12441372487E+04  0.12770967075E+04  0.00000000000E+00 0.  1.
         11    1    5    5    0    0  0.47208511380E+02 -0.14820927928E+03  0.93223516816E+02  0.18134292955E+03  0.00000000000E+00 0.  1.
        -11    1    5    5    0    0  0.25021832339E+03 -0.40624050480E+03  0.41396104389E+03  0.63166787394E+03  0.00000000000E+00 0. -1.
          2    1    6    6  503    0 -0.24995774018E+03  0.90175595781E+02  0.43409520656E+03  0.50896872036E+03  0.00000000000E+00 0. -1.
         -2    1    6    6    0  503 -0.39052648951E+02  0.49985292971E+02  0.65643391671E+02  0.91283589838E+02  0.00000000000E+00 0.  1.
<mgrwt>
<rscale>  0 0.17152969E+04</rscale>
<asrwt>0</asrwt>
<pdfrwt beam="1">  1        2 0.50331718E+00 0.17152969E+04</pdfrwt>
<pdfrwt beam="2">  1       -1 0.34589969E-01 0.17152969E+04</pdfrwt>
<totfact> 0.10049721E+01</totfact>
</mgrwt>
</event>
<event>
12    6  0.1542110E-007  0.1173639E+04  0.7818608E-02  0.9136248E-01
          2   -1    0    0  501    0  0.00000000000E+00  0.00000000000E+00  0.97905157747E+03  0.97905157747E+03  0.00000000000E+00 0. -1.
         -1   -1    0    0    0  501 -0.00000000000E+00 -0.00000000000E+00 -0.35172535687E+03  0.35172535687E+03  0.00000000000E+00 0.  1.
         24    2    1    2    0    0  0.21811412015E+02 -0.49973452692E+02  0.38848578326E+03  0.40033902130E+03  0.79856399322E+02 0.  0.
        254    2    1    2    0    0 -0.21811412015E+02  0.49973452692E+02  0.23884043735E+03  0.93043791304E+03  0.89760618973E+03 0.  0.
         23    2    4    4    0    0  0.22762788809E+03  0.22589149593E+03  0.44163719254E+03  0.55308734881E+03  0.89558819801E+02 0.  0.
         23    2    4    4    0    0 -0.24943930011E+03 -0.17591804324E+03 -0.20279675520E+03  0.37735056423E+03  0.89998900170E+02 0.  0.
          2    1    3    3  502    0  0.83366213927E+01 -0.49050946370E+02  0.38222937946E+03  0.38545400908E+03  0.00000000000E+00 0. -1.
         -3    1    3    3    0  502  0.13474790622E+02 -0.92250632219E+00  0.62564038015E+01  0.14885012219E+02  0.00000000000E+00 0.  1.
         11    1    5    5    0    0  0.22813597855E+03  0.20832814640E+03  0.43652073933E+03  0.53478687078E+03  0.00000000000E+00 0. -1.
        -11    1    5    5    0    0 -0.50809045425E+00  0.17563349535E+02  0.51164532131E+01  0.18300478034E+02  0.00000000000E+00 0.  1.
          1    1    6    6  503    0 -0.25002506033E+03 -0.15311768773E+03 -0.17518380889E+03  0.34153612399E+03  0.00000000000E+00 0. -1.
         -1    1    6    6    0  503  0.58576022371E+00 -0.22800355506E+02 -0.27612946309E+02  0.35814440246E+02  0.00000000000E+00 0.  1.
<mgrwt>
<rscale>  0 0.11736392E+04</rscale>
<asrwt>0</asrwt>
<pdfrwt beam="1">  1        2 0.15062332E+00 0.11736392E+04</pdfrwt>
<pdfrwt beam="2">  1       -1 0.54111594E-01 0.11736392E+04</pdfrwt>
<totfact> 0.10102061E+02</totfact>
</mgrwt>
</event>
<event>
12    6  0.1542110E-007  0.1151756E+04  0.7818608E-02  0.9156165E-01
          2   -1    0    0  501    0  0.00000000000E+00  0.00000000000E+00  0.17278541596E+04  0.17278541596E+04  0.00000000000E+00 0. -1.
         -1   -1    0    0    0  501 -0.00000000000E+00 -0.00000000000E+00 -0.19193483117E+03  0.19193483117E+03  0.00000000000E+00 0.  1.
         24    2    1    2    0    0  0.11926307462E+03 -0.12016481176E+03  0.52768041210E+03  0.56094460741E+03  0.86884822102E+02 0.  0.
        254    2    1    2    0    0 -0.11926307462E+03  0.12016481176E+03  0.10082389163E+04  0.13588443833E+04  0.89512517719E+03 0.  0.
         23    2    4    4    0    0 -0.28267088805E+03 -0.92789159263E+02  0.10275141853E+04  0.10739447207E+04  0.95179846440E+02 0.  0.
         23    2    4    4    0    0  0.16340781342E+03  0.21295397102E+03 -0.19275268993E+02  0.28489966262E+03  0.93513499042E+02 0.  0.
          4    1    3    3  502    0  0.98381113480E+02 -0.12740417646E+03  0.50140754414E+03  0.52661199473E+03  0.00000000000E+00 0. -1.
         -3    1    3    3    0  502  0.20881961145E+02  0.72393647076E+01  0.26272867963E+02  0.34332612683E+02  0.00000000000E+00 0.  1.
         11    1    5    5    0    0 -0.37054466034E+02  0.84103170692E+01  0.23605590948E+03  0.23909445683E+03  0.00000000000E+00 0. -1.
        -11    1    5    5    0    0 -0.24561642202E+03 -0.10119947633E+03  0.79145827579E+03  0.83485026388E+03  0.00000000000E+00 0.  1.
          4    1    6    6  503    0  0.68234078632E+02  0.12731079711E+03  0.30326852151E+02  0.14759284030E+03  0.00000000000E+00 0. -1.
         -4    1    6    6    0  503  0.95173734792E+02  0.85643173909E+02 -0.49602121144E+02  0.13730682231E+03  0.00000000000E+00 0.  1.
<mgrwt>
<rscale>  0 0.11517559E+04</rscale>
<asrwt>0</asrwt>
<pdfrwt beam="1">  1        2 0.26582371E+00 0.11517559E+04</pdfrwt>
<pdfrwt beam="2">  1       -1 0.29528437E-01 0.11517559E+04</pdfrwt>
<totfact> 0.11195634E+02</totfact>
</mgrwt>
</event>
<event>
12    6  0.1542110E-007  0.1582000E+04  0.7818608E-02  0.8831683E-01
         -1   -1    0    0    0  501 -0.00000000000E+00  0.00000000000E+00  0.82556760804E+03  0.82556760804E+03  0.00000000000E+00 0.  1.
          2   -1    0    0  501    0  0.00000000000E+00 -0.00000000000E+00 -0.75787987201E+03  0.75787987201E+03  0.00000000000E+00 0. -1.
         24    2    1    2    0    0  0.26529165862E+03 -0.21612897630E+03 -0.37886386280E+03  0.51727814677E+03  0.83351401049E+02 0.  0.
        254    2    1    2    0    0 -0.26529165862E+03  0.21612897630E+03  0.44655159883E+03  0.10661693333E+04  0.90565849979E+03 0.  0.
         23    2    4    4    0    0 -0.18042058155E+03 -0.34116826222E+03  0.20444752032E+03  0.44625515137E+03  0.91637886076E+02 0.  0.
         23    2    4    4    0    0 -0.84871077070E+02  0.55729723853E+03  0.24210407851E+03  0.61991418190E+03  0.88858856010E+02 0.  0.
          2    1    3    3  502    0  0.18840225716E+03 -0.18452644056E+03 -0.24654413428E+03  0.36101167283E+03  0.00000000000E+00 0. -1.
         -1    1    3    3    0  502  0.76889401457E+02 -0.31602535742E+02 -0.13231972853E+03  0.15626647394E+03  0.00000000000E+00 0.  1.
         11    1    5    5    0    0 -0.11235852080E+03 -0.21966027153E+03  0.79697214033E+02  0.25928115629E+03  0.00000000000E+00 0. -1.
        -11    1    5    5    0    0 -0.68062060747E+02 -0.12150799070E+03  0.12475030629E+03  0.18697399508E+03  0.00000000000E+00 0.  1.
          2    1    6    6  503    0 -0.78822164287E+02  0.54721720290E+03  0.22029434859E+03  0.59513796783E+03  0.00000000000E+00 0. -1.
         -2    1    6    6    0  503 -0.60489127831E+01  0.10080035624E+02  0.21809729922E+02  0.24776214064E+02  0.00000000000E+00 0.  1.
<mgrwt>
<rscale>  0 0.15820001E+04</rscale>
<asrwt>0</asrwt>
<pdfrwt beam="1">  1        2 0.11659690E+00 0.15820001E+04</pdfrwt>
<pdfrwt beam="2">  1       -1 0.12701040E+00 0.15820001E+04</pdfrwt>
<totfact> 0.21816708E+01</totfact>
</mgrwt>
</event>
<event>
12    6  0.1542110E-007  0.2125739E+04  0.7818608E-02  0.8549989E-01
         -1   -1    0    0    0  501 -0.00000000000E+00  0.00000000000E+00  0.55241114087E+03  0.55241114087E+03  0.00000000000E+00 0.  1.
          2   -1    0    0  501    0  0.00000000000E+00 -0.00000000000E+00 -0.20450188515E+04  0.20450188515E+04  0.00000000000E+00 0. -1.
         24    2    1    2    0    0 -0.55337704788E+03  0.66161370701E+03 -0.47548440152E+03  0.98795734917E+03  0.77559353199E+02 0.  0.
        254    2    1    2    0    0  0.55337704788E+03 -0.66161370701E+03 -0.10171233091E+04  0.16094726432E+04  0.90105688435E+03 0.  0.
         23    2    4    4    0    0 -0.29873131648E+02 -0.64864689815E+03 -0.51710723351E+03  0.83562603707E+03  0.96102967717E+02 0.  0.
         23    2    4    4    0    0  0.58325017953E+03 -0.12966808863E+02 -0.50001607560E+03  0.77384660613E+03  0.92052071732E+02 0.  0.
          2    1    3    3  502    0 -0.27448807110E+03  0.37073217477E+03 -0.28499255210E+03  0.54222394022E+03  0.00000000000E+00 0. -1.
         -1    1    3    3    0  502 -0.27888897677E+03  0.29088153224E+03 -0.19049184941E+03  0.44573340895E+03  0.00000000000E+00 0.  1.
         11    1    5    5    0    0 -0.14270908288E+02 -0.53235818311E+03 -0.37495579442E+03  0.65130694892E+03  0.00000000000E+00 0. -1.
        -11    1    5    5    0    0 -0.15602223360E+02 -0.11628871504E+03 -0.14215143908E+03  0.18431908814E+03  0.00000000000E+00 0.  1.
          2    1    6    6  503    0  0.55435035672E+03 -0.20608151840E+01 -0.49368292129E+03  0.74231488718E+03  0.00000000000E+00 0. -1.
         -2    1    6    6    0  503  0.28899822808E+02 -0.10905993679E+02 -0.63331543084E+01  0.31531718950E+02  0.00000000000E+00 0.  1.
<mgrwt>
<rscale>  0 0.21257386E+04</rscale>
<asrwt>0</asrwt>
<pdfrwt beam="1">  1        2 0.31461829E+00 0.21257386E+04</pdfrwt>
<pdfrwt beam="2">  1       -1 0.84986327E-01 0.21257386E+04</pdfrwt>
<totfact> 0.90406665E+00</totfact>
</mgrwt>
</event>
<event>
12    6  0.1542110E-007  0.1292887E+04  0.7818608E-02  0.9035225E-01
          2   -1    0    0  501    0  0.00000000000E+00  0.00000000000E+00  0.15259178629E+04  0.15259178629E+04  0.00000000000E+00 0. -1.
         -1   -1    0    0    0  501 -0.00000000000E+00 -0.00000000000E+00 -0.27386079696E+03  0.27386079696E+03  0.00000000000E+00 0.  1.
         24    2    1    2    0    0 -0.13546927892E+03  0.20260588945E+03  0.46507409769E+03  0.53151773665E+03  0.82559772642E+02 0.  0.
        254    2    1    2    0    0  0.13546927892E+03 -0.20260588945E+03  0.78698296820E+03  0.12682609232E+04  0.96423156193E+03 0.  0.
         23    2    4    4    0    0  0.30772203161E+03  0.11554720413E+03  0.82519477505E+03  0.89310113435E+03  0.92947373782E+02 0.  0.
         23    2    4    4    0    0 -0.17225275270E+03 -0.31815309359E+03 -0.38211806851E+02  0.37515978881E+03  0.91609623869E+02 0.  0.
          2    1    3    3  502    0 -0.83712906073E+02  0.12376008859E+03  0.36296725053E+03  0.39251705075E+03  0.00000000000E+00 0. -1.
         -1    1    3    3    0  502 -0.51756372842E+02  0.78845800867E+02  0.10210684716E+03  0.13900068590E+03  0.00000000000E+00 0.  1.
         11    1    5    5    0    0  0.31151434774E+03  0.10395576369E+03  0.78056884486E+03  0.84683865714E+03  0.00000000000E+00 0. -1.
        -11    1    5    5    0    0 -0.37923161291E+01  0.11591440440E+02  0.44625930186E+02  0.46262477215E+02  0.00000000000E+00 0.  1.
          4    1    6    6  503    0 -0.29711330277E+02 -0.97499031580E+01  0.80087190773E+01  0.32279456930E+02  0.00000000000E+00 0.  1.
         -4    1    6    6    0  503 -0.14254142242E+03 -0.30840319043E+03 -0.46220525928E+02  0.34288033188E+03  0.00000000000E+00 0. -1.
<mgrwt>
<rscale>  0 0.12928868E+04</rscale>
<asrwt>0</asrwt>
<pdfrwt beam="1">  1        2 0.23475659E+00 0.12928868E+04</pdfrwt>
<pdfrwt beam="2">  1       -1 0.42132431E-01 0.12928868E+04</pdfrwt>
<totfact> 0.75890390E+01</totfact>
</mgrwt>
</event>
<event>
12    6  0.1542110E-007  0.1456031E+04  0.7818608E-02  0.8914230E-01
          2   -1    0    0  501    0  0.00000000000E+00  0.00000000000E+00  0.16918136917E+04  0.16918136917E+04  0.00000000000E+00 0. -1.
         -1   -1    0    0    0  501 -0.00000000000E+00 -0.00000000000E+00 -0.31327694167E+03  0.31327694167E+03  0.00000000000E+00 0.  1.
         24    2    1    2    0    0 -0.24565323327E+03  0.28796663732E+03  0.74456274568E+03  0.83894806022E+03  0.78675728530E+02 0.  0.
        254    2    1    2    0    0  0.24565323327E+03 -0.28796663732E+03  0.63397400439E+03  0.11661425732E+04  0.90260465739E+03 0.  0.
         23    2    4    4    0    0  0.27179182348E+03  0.28144493772E+03  0.25787657093E+03  0.47716821057E+03  0.90039586069E+02 0.  0.
         23    2    4    4    0    0 -0.26138590219E+02 -0.56941157504E+03  0.37609743345E+03  0.68897436262E+03  0.91233903846E+02 0.  0.
          4    1    3    3  502    0 -0.20123671278E+03  0.21819246373E+03  0.50822587020E+03  0.58855560565E+03  0.00000000000E+00 0. -1.
         -3    1    3    3    0  502 -0.44416520490E+02  0.69774173587E+02  0.23633687548E+03  0.25039245457E+03  0.00000000000E+00 0.  1.
         11    1    5    5    0    0  0.23459340166E+03  0.19965107470E+03  0.17170656437E+03  0.35267231246E+03  0.00000000000E+00 0. -1.
        -11    1    5    5    0    0  0.37198421828E+02  0.81793863023E+02  0.86170006561E+02  0.12449589811E+03  0.00000000000E+00 0.  1.
          3    1    6    6  503    0 -0.34235675051E+02 -0.56797885323E+03  0.37160189003E+03  0.67960284272E+03  0.00000000000E+00 0. -1.
         -3    1    6    6    0  503  0.80970848329E+01 -0.14327218134E+01  0.44955434194E+01  0.93715198993E+01  0.00000000000E+00 0.  1.
<mgrwt>
<rscale>  0 0.14560305E+04</rscale>
<asrwt>0</asrwt>
<pdfrwt beam="1">  1        2 0.26027902E+00 0.14560305E+04</pdfrwt>
<pdfrwt beam="2">  1       -1 0.48196454E-01 0.14560305E+04</pdfrwt>
<totfact> 0.47103995E+01</totfact>
</mgrwt>
</event>
<event>
12    6  0.1542110E-007  0.2366547E+04  0.7818608E-02  0.8452135E-01
         -1   -1    0    0    0  501 -0.00000000000E+00  0.00000000000E+00  0.11711310958E+04  0.11711310958E+04  0.00000000000E+00 0.  1.
          2   -1    0    0  501    0  0.00000000000E+00 -0.00000000000E+00 -0.11955422290E+04  0.11955422290E+04  0.00000000000E+00 0. -1.
         24    2    1    2    0    0 -0.68808619397E+03  0.10131749264E+03 -0.74213215894E+03  0.10200915962E+04  0.78095318167E+02 0.  0.
        254    2    1    2    0    0  0.68808619397E+03 -0.10131749264E+03  0.71772102576E+03  0.13465817286E+04  0.90245832947E+03 0.  0.
         23    2    4    4    0    0 -0.64445797254E+01 -0.12632311298E+03 -0.16057656281E+03  0.22269537739E+03  0.88370453820E+02 0.  0.
         23    2    4    4    0    0  0.69453077370E+03  0.25005620337E+02  0.87829758857E+03  0.11238863512E+04  0.93357376591E+02 0.  0.
          4    1    3    3  502    0 -0.30869122794E+03  0.69390011581E+02 -0.38203364899E+03  0.49603926949E+03  0.00000000000E+00 0. -1.
         -3    1    3    3    0  502 -0.37939496603E+03  0.31927481062E+02 -0.36009850995E+03  0.52405232674E+03  0.00000000000E+00 0.  1.
         11    1    5    5    0    0 -0.11951917353E+02 -0.13420092316E+03 -0.16421920424E+03  0.21241629681E+03  0.00000000000E+00 0. -1.
        -11    1    5    5    0    0  0.55073376273E+01  0.78778101848E+01  0.36426414370E+01  0.10279080586E+02  0.00000000000E+00 0.  1.
          1    1    6    6  503    0  0.37797851526E+03 -0.20695686675E+02  0.52615165700E+03  0.64817562096E+03  0.00000000000E+00 0. -1.
         -1    1    6    6    0  503  0.31655225844E+03  0.45701307012E+02  0.35214593157E+03  0.47571073028E+03  0.00000000000E+00 0.  1.
<mgrwt>
<rscale>  0 0.23665474E+04</rscale>
<asrwt>0</asrwt>
<pdfrwt beam="1">  1        2 0.18392957E+00 0.23665474E+04</pdfrwt>
<pdfrwt beam="2">  1       -1 0.18017401E+00 0.23665474E+04</pdfrwt>
<totfact> 0.40646750E+00</totfact>
</mgrwt>
</event>
<event>
12    6  0.1542110E-007  0.1418210E+04  0.7818608E-02  0.8940741E-01
          2   -1    0    0  501    0  0.00000000000E+00  0.00000000000E+00  0.14723770104E+04  0.14723770104E+04  0.00000000000E+00 0. -1.
         -1   -1    0    0    0  501 -0.00000000000E+00 -0.00000000000E+00 -0.34150907175E+03  0.34150907175E+03  0.00000000000E+00 0.  1.
         24    2    1    2    0    0 -0.42451248218E+02  0.31557045208E+03 -0.85793516897E+01  0.32825087994E+03  0.79298273675E+02 0.  0.
        254    2    1    2    0    0  0.42451248218E+02 -0.31557045208E+03  0.11394472903E+04  0.14856352022E+04  0.89854605217E+03 0.  0.
         23    2    4    4    0    0  0.34690902234E+03  0.46047182253E+01  0.13273666161E+03  0.38241083335E+03  0.90840249450E+02 0.  0.
         23    2    4    4    0    0 -0.30445777412E+03 -0.32017517030E+03  0.10067106287E+04  0.11032243688E+04  0.91820706500E+02 0.  0.
          2    1    3    3  502    0 -0.12195031956E+02  0.20157974133E+03  0.29997906091E+02  0.20416411362E+03  0.00000000000E+00 0. -1.
         -1    1    3    3    0  502 -0.30256216263E+02  0.11399071075E+03 -0.38577257781E+02  0.12408676633E+03  0.00000000000E+00 0.  1.
         11    1    5    5    0    0  0.69909433151E+02  0.33987288534E+02  0.11350036893E+02  0.78557545550E+02  0.00000000000E+00 0. -1.
        -11    1    5    5    0    0  0.27699958919E+03 -0.29382570309E+02  0.12138662472E+03  0.30385328780E+03  0.00000000000E+00 0.  1.
          2    1    6    6  503    0 -0.59257160253E+02 -0.12092747344E+03  0.32851618355E+03  0.35504612056E+03  0.00000000000E+00 0. -1.
         -2    1    6    6    0  503 -0.24520061386E+03 -0.19924769687E+03  0.67819444517E+03  0.74817824828E+03  0.00000000000E+00 0.  1.
<mgrwt>
<rscale>  0 0.14182103E+04</rscale>
<asrwt>0</asrwt>
<pdfrwt beam="1">  1        2 0.22651954E+00 0.14182103E+04</pdfrwt>
<pdfrwt beam="2">  1       -1 0.52539858E-01 0.14182103E+04</pdfrwt>
<totfact> 0.53201608E+01</totfact>
</mgrwt>
</event>
<event>
12    6  0.1542110E-007  0.2120160E+04  0.7818608E-02  0.8552415E-01
         -1   -1    0    0    0  501 -0.00000000000E+00  0.00000000000E+00  0.38145668281E+03  0.38145668281E+03  0.00000000000E+00 0.  1.
          2   -1    0    0  501    0  0.00000000000E+00 -0.00000000000E+00 -0.29459944115E+04  0.29459944115E+04  0.00000000000E+00 0. -1.
         24    2    1    2    0    0  0.61542485484E+03  0.25861612200E+02 -0.20069136747E+04  0.21007193259E+04  0.76828468785E+02 0.  0.
        254    2    1    2    0    0 -0.61542485484E+03 -0.25861612200E+02 -0.55762405404E+03  0.12267317684E+04  0.90250189536E+03 0.  0.
         23    2    4    4    0    0 -0.70429473744E+03  0.14228565626E+03 -0.67137733912E+03  0.98747208143E+03  0.89873772387E+02 0.  0.
         23    2    4    4    0    0  0.88869882601E+02 -0.16814726846E+03  0.11375328508E+03  0.23925968701E+03  0.90188846527E+02 0.  0.
          4    1    3    3  502    0  0.31436934581E+03 -0.25232448427E+02 -0.10194332858E+04  0.10671030814E+04  0.00000000000E+00 0. -1.
         -3    1    3    3    0  502  0.30105550903E+03  0.51094060627E+02 -0.98748038884E+03  0.10336162445E+04  0.00000000000E+00 0.  1.
         11    1    5    5    0    0 -0.27245583565E+03  0.15254396797E+02 -0.28007724285E+03  0.39103470558E+03  0.00000000000E+00 0. -1.
        -11    1    5    5    0    0 -0.43183890178E+03  0.12703125946E+03 -0.39130009627E+03  0.59643737585E+03  0.00000000000E+00 0.  1.
          4    1    6    6  503    0  0.21830468384E+02 -0.43551762087E+02  0.80220047920E+02  0.93854043168E+02  0.00000000000E+00 0. -1.
         -4    1    6    6    0  503  0.67039414217E+02 -0.12459550637E+03  0.33533237163E+02  0.14540564384E+03  0.00000000000E+00 0.  1.
<mgrwt>
<rscale>  0 0.21201597E+04</rscale>
<asrwt>0</asrwt>
<pdfrwt beam="1">  1        2 0.45322991E+00 0.21201597E+04</pdfrwt>
<pdfrwt beam="2">  1       -1 0.58685644E-01 0.21201597E+04</pdfrwt>
<totfact> 0.58059647E+00</totfact>
</mgrwt>
</event>
<event>
12    6  0.1542110E-007  0.2112387E+04  0.7818608E-02  0.8555806E-01
         -1   -1    0    0    0  501 -0.00000000000E+00  0.00000000000E+00  0.59427600136E+03  0.59427600136E+03  0.00000000000E+00 0.  1.
          2   -1    0    0  501    0  0.00000000000E+00 -0.00000000000E+00 -0.18771490476E+04  0.18771490476E+04  0.00000000000E+00 0. -1.
         24    2    1    2    0    0 -0.67144938714E+02  0.82087239604E+03 -0.80922755926E+03  0.11575097957E+04  0.81484668291E+02 0.  0.
        254    2    1    2    0    0  0.67144938714E+02 -0.82087239604E+03 -0.47364548694E+03  0.13139152532E+04  0.90757551305E+03 0.  0.
         23    2    4    4    0    0 -0.10981603283E+03 -0.59772201433E+03  0.14120608763E+03  0.63060326666E+03  0.91597779785E+02 0.  0.
         23    2    4    4    0    0  0.17696097155E+03 -0.22315038171E+03 -0.61485157457E+03  0.68331198652E+03  0.88099567893E+02 0.  0.
          4    1    3    3  502    0  0.17253997543E+00  0.46874464880E+02 -0.23131167749E+02  0.52271370264E+02  0.00000000000E+00 0. -1.
         -3    1    3    3    0  502 -0.67317478689E+02  0.77399793116E+03 -0.78609639151E+03  0.11052384255E+04  0.00000000000E+00 0.  1.
         11    1    5    5    0    0 -0.49311347747E+02 -0.47648799283E+03  0.11383749269E+03  0.49237322334E+03  0.00000000000E+00 0. -1.
        -11    1    5    5    0    0 -0.60504685084E+02 -0.12123402150E+03  0.27368594937E+02  0.13823004332E+03  0.00000000000E+00 0.  1.
          2    1    6    6  503    0  0.16373296966E+03 -0.14724376200E+03 -0.43184569352E+03  0.48474726798E+03  0.00000000000E+00 0. -1.
         -2    1    6    6    0  503  0.13228001882E+02 -0.75906619714E+02 -0.18300588105E+03  0.19856471855E+03  0.00000000000E+00 0.  1.
<mgrwt>
<rscale>  0 0.21123869E+04</rscale>
<asrwt>0</asrwt>
<pdfrwt beam="1">  1        2 0.28879216E+00 0.21123869E+04</pdfrwt>
<pdfrwt beam="2">  1       -1 0.91427078E-01 0.21123869E+04</pdfrwt>
<totfact> 0.95595136E+00</totfact>
</mgrwt>
</event>
<event>
12    6  0.1542110E-007  0.1319943E+04  0.7818608E-02  0.9013898E-01
         -1   -1    0    0    0  501 -0.00000000000E+00  0.00000000000E+00  0.55198662403E+03  0.55198662403E+03  0.00000000000E+00 0.  1.
          2   -1    0    0  501    0  0.00000000000E+00 -0.00000000000E+00 -0.78908108777E+03  0.78908108777E+03  0.00000000000E+00 0. -1.
         24    2    1    2    0    0  0.18867475919E+03 -0.28897244178E+03 -0.10050259688E+03  0.37301687827E+03  0.99687424647E+02 0.  0.
        254    2    1    2    0    0 -0.18867475919E+03  0.28897244178E+03 -0.13659186686E+03  0.96805083353E+03  0.89407037830E+03 0.  0.
         23    2    4    4    0    0 -0.32305517697E+03 -0.22227036333E+03  0.35445430640E+02  0.40458266818E+03  0.93069839683E+02 0.  0.
         23    2    4    4    0    0  0.13438041778E+03  0.51124280511E+03 -0.17203729750E+03  0.56346816535E+03  0.92044767222E+02 0.  0.
          2    1    3    3  502    0  0.61030698967E+02 -0.15614351634E+03 -0.85493151028E+02  0.18818773282E+03  0.00000000000E+00 0. -1.
         -1    1    3    3    0  502  0.12764406022E+03 -0.13282892544E+03 -0.15009445851E+02  0.18482914545E+03  0.00000000000E+00 0.  1.
         11    1    5    5    0    0 -0.16500608878E+03 -0.13911569160E+03 -0.22094847371E+02  0.21695245393E+03  0.00000000000E+00 0. -1.
        -11    1    5    5    0    0 -0.15804908819E+03 -0.83154671724E+02  0.57540278011E+02  0.18763021426E+03  0.00000000000E+00 0.  1.
          2    1    6    6  503    0  0.12907640114E+03  0.42150556140E+03 -0.17303111573E+03  0.47356881510E+03  0.00000000000E+00 0.  1.
         -2    1    6    6    0  503  0.53040166433E+01  0.89737243706E+02  0.99381823283E+00  0.89899350249E+02  0.00000000000E+00 0. -1.
<mgrwt>
<rscale>  0 0.13199427E+04</rscale>
<asrwt>0</asrwt>
<pdfrwt beam="1">  1        2 0.12139709E+00 0.13199427E+04</pdfrwt>
<pdfrwt beam="2">  1       -1 0.84921019E-01 0.13199427E+04</pdfrwt>
<totfact> 0.53808883E+01</totfact>
</mgrwt>
</event>
<event>
12    6  0.1542110E-007  0.1352306E+04  0.7818608E-02  0.8989084E-01
          2   -1    0    0  501    0  0.00000000000E+00  0.00000000000E+00  0.15816459104E+04  0.15816459104E+04  0.00000000000E+00 0. -1.
         -1   -1    0    0    0  501 -0.00000000000E+00 -0.00000000000E+00 -0.28905522700E+03  0.28905522700E+03  0.00000000000E+00 0.  1.
         24    2    1    2    0    0  0.29086881571E+03 -0.17369341949E+02  0.50181577715E+02  0.30828638336E+03  0.87269361365E+02 0.  0.
        254    2    1    2    0    0 -0.29086881571E+03  0.17369341949E+02  0.12424091057E+04  0.15624147541E+04  0.90147274822E+03 0.  0.
         23    2    4    4    0    0 -0.38721168729E+03  0.16020553621E+03  0.15280594297E+03  0.45550251961E+03  0.92380650329E+02 0.  0.
         23    2    4    4    0    0  0.96342871581E+02 -0.14283619426E+03  0.10896031627E+04  0.11069122344E+04  0.91299042984E+02 0.  0.
          4    1    3    3  502    0  0.75766856903E+02  0.25738538652E+02  0.37961552626E+02  0.88567310305E+02  0.00000000000E+00 0. -1.
         -3    1    3    3    0  502  0.21510195881E+03 -0.43107880601E+02  0.12220025090E+02  0.21971907306E+03  0.00000000000E+00 0.  1.
         11    1    5    5    0    0 -0.85303995381E+01 -0.92523537773E+01  0.12005378017E+02  0.17392609581E+02  0.00000000000E+00 0. -1.
        -11    1    5    5    0    0 -0.37868128775E+03  0.16945788999E+03  0.14080056495E+03  0.43810991003E+03  0.00000000000E+00 0.  1.
          4    1    6    6  503    0  0.18021073093E+02  0.87714942212E+01  0.59871284489E+02  0.63136905948E+02  0.00000000000E+00 0. -1.
         -4    1    6    6    0  503  0.78321798488E+02 -0.15160768848E+03  0.10297318782E+04  0.10437753285E+04  0.00000000000E+00 0.  1.
<mgrwt>
<rscale>  0 0.13523062E+04</rscale>
<asrwt>0</asrwt>
<pdfrwt beam="1">  1        2 0.24333014E+00 0.13523062E+04</pdfrwt>
<pdfrwt beam="2">  1       -1 0.44470036E-01 0.13523062E+04</pdfrwt>
<totfact> 0.63610961E+01</totfact>
</mgrwt>
</event>
<event>
12    6  0.1542110E-007  0.2203536E+04  0.7818608E-02  0.8516958E-01
          2   -1    0    0  501    0  0.00000000000E+00  0.00000000000E+00  0.19793968929E+04  0.19793968929E+04  0.00000000000E+00 0. -1.
         -1   -1    0    0    0  501 -0.00000000000E+00 -0.00000000000E+00 -0.61326417409E+03  0.61326417409E+03  0.00000000000E+00 0.  1.
         24    2    1    2    0    0 -0.54719071179E+03 -0.71193201071E+03  0.35326577374E+03  0.96826761123E+03  0.80502155996E+02 0.  0.
        254    2    1    2    0    0  0.54719071179E+03  0.71193201071E+03  0.10128669450E+04  0.16243934557E+04  0.89804776468E+03 0.  0.
         23    2    4    4    0    0  0.73521055512E+03  0.52959654334E+03  0.99081569856E+03  0.13458782328E+04  0.93088183838E+02 0.  0.
         23    2    4    4    0    0 -0.18801984333E+03  0.18233546737E+03  0.22051246465E+02  0.27851522289E+03  0.92123763290E+02 0.  0.
          2    1    3    3  502    0 -0.18418953832E+03 -0.24005900404E+03  0.78614463052E+02  0.31262492742E+03  0.00000000000E+00 0. -1.
         -1    1    3    3    0  502 -0.36300117347E+03 -0.47187300667E+03  0.27465131069E+03  0.65564268381E+03  0.00000000000E+00 0.  1.
         11    1    5    5    0    0  0.20466039058E+03  0.16194054149E+03  0.34714834879E+03  0.43430702334E+03  0.00000000000E+00 0.  1.
        -11    1    5    5    0    0  0.53055016454E+03  0.36765600185E+03  0.64366734977E+03  0.91157120947E+03  0.00000000000E+00 0. -1.
          4    1    6    6  503    0 -0.15397718190E+03  0.11707439555E+03  0.49988211137E+02  0.19978540460E+03  0.00000000000E+00 0. -1.
         -4    1    6    6    0  503 -0.34042661433E+02  0.65261071822E+02 -0.27936964672E+02  0.78729818289E+02  0.00000000000E+00 0.  1.
<mgrwt>
<rscale>  0 0.22035364E+04</rscale>
<asrwt>0</asrwt>
<pdfrwt beam="1">  1        2 0.30452260E+00 0.22035364E+04</pdfrwt>
<pdfrwt beam="2">  1       -1 0.94348335E-01 0.22035364E+04</pdfrwt>
<totfact> 0.77585750E+00</totfact>
</mgrwt>
</event>
<event>
12    6  0.1542110E-007  0.1364463E+04  0.7818608E-02  0.8979952E-01
          4   -1    0    0  501    0  0.00000000000E+00  0.00000000000E+00  0.32475043653E+03  0.32475043653E+03  0.00000000000E+00 0. -1.
         -3   -1    0    0    0  501 -0.00000000000E+00 -0.00000000000E+00 -0.14332225558E+04  0.14332225558E+04  0.00000000000E+00 0.  1.
         24    2    1    2    0    0 -0.35438312211E+02  0.37970502544E+03 -0.28428845899E+03  0.48216334911E+03  0.78928999724E+02 0.  0.
        254    2    1    2    0    0  0.35438312211E+02 -0.37970502544E+03 -0.82418366030E+03  0.12758096432E+04  0.89609137903E+03 0.  0.
         23    2    4    4    0    0 -0.21657714887E+03  0.20691695839E+03 -0.16198797149E+03  0.35140600521E+03  0.86751302614E+02 0.  0.
         23    2    4    4    0    0  0.25201546108E+03 -0.58662198383E+03 -0.66219568880E+03  0.92440363804E+03  0.91552232176E+02 0.  0.
          2    1    3    3  502    0 -0.26981247536E+01  0.32582351130E+03 -0.22843629346E+03  0.39793388969E+03  0.00000000000E+00 0. -1.
         -1    1    3    3    0  502 -0.32740187457E+02  0.53881514140E+02 -0.55852165531E+02  0.84229459426E+02  0.00000000000E+00 0.  1.
         11    1    5    5    0    0 -0.53292401390E+02  0.60263143460E+02 -0.31952120711E+01  0.80510470659E+02  0.00000000000E+00 0. -1.
        -11    1    5    5    0    0 -0.16328474748E+03  0.14665381493E+03 -0.15879275942E+03  0.27089553455E+03  0.00000000000E+00 0.  1.
          1    1    6    6  503    0  0.73281741232E+02 -0.11182924240E+03 -0.18224618825E+03  0.22603023290E+03  0.00000000000E+00 0. -1.
         -1    1    6    6    0  503  0.17873371985E+03 -0.47479274142E+03 -0.47994950055E+03  0.69837340513E+03  0.00000000000E+00 0.  1.
<mgrwt>
<rscale>  0 0.13644628E+04</rscale>
<asrwt>0</asrwt>
<pdfrwt beam="1">  1        4 0.49961606E-01 0.13644628E+04</pdfrwt>
<pdfrwt beam="2">  1       -3 0.22049578E+00 0.13644628E+04</pdfrwt>
<totfact> 0.94558174E-01</totfact>
</mgrwt>
</event>
<event>
12    6  0.1542110E-007  0.1189545E+04  0.7818608E-02  0.9122057E-01
         -1   -1    0    0    0  501 -0.00000000000E+00  0.00000000000E+00  0.24535727835E+03  0.24535727835E+03  0.00000000000E+00 0.  1.
          2   -1    0    0  501    0  0.00000000000E+00 -0.00000000000E+00 -0.14417930535E+04  0.14417930535E+04  0.00000000000E+00 0. -1.
         24    2    1    2    0    0 -0.10487963088E+03 -0.10544648241E+03  0.27736246511E+02  0.17150470414E+03  0.80782835712E+02 0.  0.
        254    2    1    2    0    0  0.10487963088E+03  0.10544648241E+03 -0.12241720216E+04  0.15156456277E+04  0.88117298672E+03 0.  0.
         23    2    4    4    0    0  0.45780619609E+03 -0.79066673497E+02 -0.54041522901E+03  0.71946941501E+03  0.98739897511E+02 0.  0.
         23    2    4    4    0    0 -0.35292656521E+03  0.18451315591E+03 -0.68375679260E+03  0.79617621265E+03  0.88152963768E+02 0.  0.
          4    1    3    3  502    0 -0.50829135146E+02 -0.13531868282E+00  0.65045924539E+01  0.51243819274E+02  0.00000000000E+00 0. -1.
         -3    1    3    3    0  502 -0.54050495733E+02 -0.10531116373E+03  0.21231654057E+02  0.12026088487E+03  0.00000000000E+00 0.  1.
         11    1    5    5    0    0  0.44249075698E+03 -0.93794086985E+02 -0.50318048847E+03  0.67659885068E+03  0.00000000000E+00 0.  1.
        -11    1    5    5    0    0  0.15315439107E+02  0.14727413488E+02 -0.37234740540E+02  0.42870564332E+02  0.00000000000E+00 0. -1.
          3    1    6    6  503    0 -0.17275260392E+03  0.10875903741E+03 -0.26912971000E+03  0.33779104663E+03  0.00000000000E+00 0. -1.
         -3    1    6    6    0  503 -0.18017396129E+03  0.75754118500E+02 -0.41462708260E+03  0.45838516602E+03  0.00000000000E+00 0.  1.
<mgrwt>
<rscale>  0 0.11895452E+04</rscale>
<asrwt>0</asrwt>
<pdfrwt beam="1">  1        2 0.22181432E+00 0.11895452E+04</pdfrwt>
<pdfrwt beam="2">  1       -1 0.37747273E-01 0.11895452E+04</pdfrwt>
<totfact> 0.10427571E+02</totfact>
</mgrwt>
</event>
<event>
12    6  0.1542110E-007  0.1790744E+04  0.7818608E-02  0.8711237E-01
         -1   -1    0    0    0  501 -0.00000000000E+00  0.00000000000E+00  0.34528561309E+03  0.34528561309E+03  0.00000000000E+00 0.  1.
          2   -1    0    0  501    0  0.00000000000E+00 -0.00000000000E+00 -0.23218189130E+04  0.23218189130E+04  0.00000000000E+00 0. -1.
         24    2    1    2    0    0  0.60032998224E+03 -0.70357812808E+02 -0.38723847945E+03  0.72230963912E+03  0.80195170620E+02 0.  0.
        254    2    1    2    0    0 -0.60032998224E+03  0.70357812808E+02 -0.15892948204E+04  0.19447948869E+04  0.94394004929E+03 0.  0.
         23    2    4    4    0    0 -0.57037031696E+03  0.17082082344E+03 -0.16764236273E+04  0.17812479319E+04  0.89140140981E+02 0.  0.
         23    2    4    4    0    0 -0.29959665281E+02 -0.10046301064E+03  0.87128806841E+02  0.16354695502E+03  0.90364702548E+02 0.  0.
          4    1    3    3  502    0  0.26008416553E+03 -0.64101256279E+02 -0.14499786052E+03  0.30459337447E+03  0.00000000000E+00 0. -1.
         -3    1    3    3    0  502  0.34024581671E+03 -0.62565565292E+01 -0.24224061893E+03  0.41771626465E+03  0.00000000000E+00 0.  1.
         11    1    5    5    0    0 -0.31710505461E+03  0.13566841536E+03 -0.10229150529E+04  0.10794983743E+04  0.00000000000E+00 0.  1.
        -11    1    5    5    0    0 -0.25326526235E+03  0.35152408085E+02 -0.65350857436E+03  0.70174955765E+03  0.00000000000E+00 0. -1.
          1    1    6    6  503    0 -0.13629929242E+02  0.77940741506E+01 -0.87869081925E+01  0.17992562869E+02  0.00000000000E+00 0. -1.
         -1    1    6    6    0  503 -0.16329736039E+02 -0.10825708479E+03  0.95915715033E+02  0.14555439216E+03  0.00000000000E+00 0.  1.
<mgrwt>
<rscale>  0 0.17907436E+04</rscale>
<asrwt>0</asrwt>
<pdfrwt beam="1">  1        2 0.35720290E+00 0.17907436E+04</pdfrwt>
<pdfrwt beam="2">  1       -1 0.53120865E-01 0.17907436E+04</pdfrwt>
<totfact> 0.16949648E+01</totfact>
</mgrwt>
</event>
<event>
12    6  0.1685675E-007  0.1656539E+04  0.7818608E-02  0.8786548E-01
          2   -1    0    0  501    0  0.00000000000E+00  0.00000000000E+00  0.10233894080E+04  0.10233894080E+04  0.00000000000E+00 0. -1.
         -1   -1    0    0    0  501 -0.00000000000E+00 -0.00000000000E+00 -0.67035117650E+03  0.67035117650E+03  0.00000000000E+00 0.  1.
         24    2    1    2    0    0  0.35562248557E+03 -0.22918506301E+03 -0.31939179633E+03  0.53606286987E+03  0.79744188090E+02 0.  0.
        254    2    1    2    0    0 -0.35562248557E+03  0.22918506301E+03  0.67243002780E+03  0.11576777146E+04  0.84205843221E+03 0.  0.
         23    2    4    4    0    0 -0.15353391879E+03 -0.71281935650E+02 -0.15640854062E+03  0.24837700416E+03  0.92594416922E+02 0.  0.
         23    2    4    4    0    0 -0.20208856678E+03  0.30046699866E+03  0.82883856842E+03  0.90930071045E+03  0.93456960232E+02 0.  0.
          2    1    3    3  502    0  0.19169986234E+02  0.40699091223E+01 -0.25199028630E+02  0.31922461941E+02  0.00000000000E+00 0. -1.
         -1    1    3    3    0  502  0.33645249934E+03 -0.23325497213E+03 -0.29419276770E+03  0.50414040792E+03  0.00000000000E+00 0.  1.
         11    1    5    5    0    0 -0.80226965464E+01  0.14759188485E+02 -0.39269943798E+02  0.42712126972E+02  0.00000000000E+00 0. -1.
        -11    1    5    5    0    0 -0.14551122224E+03 -0.86041124135E+02 -0.11713859682E+03  0.20566487719E+03  0.00000000000E+00 0.  1.
          3    1    6    6  503    0 -0.57395145730E+02  0.25015686255E+02  0.15078903955E+03  0.16327070086E+03  0.00000000000E+00 0. -1.
         -3    1    6    6    0  503 -0.14469342105E+03  0.27545131240E+03  0.67804952887E+03  0.74603000958E+03  0.00000000000E+00 0.  1.
<mgrwt>
<rscale>  0 0.16565389E+04</rscale>
<asrwt>0</asrwt>
<pdfrwt beam="1">  1        2 0.15744453E+00 0.16565389E+04</pdfrwt>
<pdfrwt beam="2">  1       -1 0.10313095E+00 0.16565389E+04</pdfrwt>
<totfact> 0.23533887E+01</totfact>
</mgrwt>
</event>
<event>
12    6  0.1542110E-007  0.2229243E+04  0.7818608E-02  0.8506354E-01
         -1   -1    0    0    0  501 -0.00000000000E+00  0.00000000000E+00  0.10249062491E+04  0.10249062491E+04  0.00000000000E+00 0.  1.
          2   -1    0    0  501    0  0.00000000000E+00 -0.00000000000E+00 -0.12121900850E+04  0.12121900850E+04  0.00000000000E+00 0. -1.
         24    2    1    2    0    0 -0.55562871816E+03 -0.48908206221E+02 -0.82494126748E+03  0.99907197525E+03  0.80631456936E+02 0.  0.
        254    2    1    2    0    0  0.55562871816E+03  0.48908206221E+02  0.63765743165E+03  0.12380243588E+04  0.90276355036E+03 0.  0.
         23    2    4    4    0    0  0.35867611542E+03  0.14203485765E+03 -0.14427948704E+03  0.42156865898E+03  0.89894979249E+02 0.  0.
         23    2    4    4    0    0  0.19695260274E+03 -0.93126651430E+02  0.78193691870E+03  0.81645569986E+03  0.87816080952E+02 0.  0.
          2    1    3    3  502    0 -0.52524798365E+03 -0.63745251081E+02 -0.78609545137E+03  0.94757319508E+03  0.00000000000E+00 0. -1.
         -1    1    3    3    0  502 -0.30380734510E+02  0.14837044860E+02 -0.38845816114E+02  0.51498780171E+02  0.00000000000E+00 0.  1.
         11    1    5    5    0    0  0.74160631181E+02  0.49027686343E+02 -0.70015540959E+02  0.11316222524E+03  0.00000000000E+00 0. -1.
        -11    1    5    5    0    0  0.28451548424E+03  0.93007171308E+02 -0.74263946086E+02  0.30840643374E+03  0.00000000000E+00 0.  1.
          4    1    6    6  503    0  0.14765388340E+03 -0.64737268371E+02  0.41645655992E+03  0.44657434935E+03  0.00000000000E+00 0.  1.
         -4    1    6    6    0  503  0.49298719344E+02 -0.28389383059E+02  0.36548035878E+03  0.36988135051E+03  0.00000000000E+00 0. -1.
<mgrwt>
<rscale>  0 0.22292431E+04</rscale>
<asrwt>0</asrwt>
<pdfrwt beam="1">  1        2 0.18649078E+00 0.22292431E+04</pdfrwt>
<pdfrwt beam="2">  1       -1 0.15767788E+00 0.22292431E+04</pdfrwt>
<totfact> 0.58932678E+00</totfact>
</mgrwt>
</event>
<event>
12    6  0.1542110E-007  0.1339029E+04  0.7818608E-02  0.8999175E-01
          2   -1    0    0  501    0  0.00000000000E+00  0.00000000000E+00  0.11874976571E+04  0.11874976571E+04  0.00000000000E+00 0. -1.
         -1   -1    0    0    0  501 -0.00000000000E+00 -0.00000000000E+00 -0.37747401245E+03  0.37747401245E+03  0.00000000000E+00 0.  1.
         24    2    1    2    0    0 -0.29556356866E+03 -0.56619253935E+02  0.64946231753E+01  0.31092886749E+03  0.77916734253E+02 0.  0.
        254    2    1    2    0    0  0.29556356866E+03  0.56619253935E+02  0.80352902147E+03  0.12540428021E+04  0.91454956017E+03 0.  0.
         23    2    4    4    0    0  0.44698910487E+02 -0.20626711991E+03 -0.11749036974E+03  0.25944552877E+03  0.94677759072E+02 0.  0.
         23    2    4    4    0    0  0.25086465817E+03  0.26288637385E+03  0.92101939121E+03  0.99459727328E+03  0.94364690217E+02 0.  0.
          4    1    3    3  502    0 -0.20239538563E+03 -0.29567588428E+02 -0.31078257131E+02  0.20689125761E+03  0.00000000000E+00 0. -1.
         -3    1    3    3    0  502 -0.93168183026E+02 -0.27051665507E+02  0.37572880306E+02  0.10403760988E+03  0.00000000000E+00 0.  1.
         11    1    5    5    0    0  0.43853183612E+02 -0.21632118372E+03 -0.11566771694E+03  0.24919265034E+03  0.00000000000E+00 0. -1.
        -11    1    5    5    0    0  0.84572687513E+00  0.10054063809E+02 -0.18226528007E+01  0.10252878437E+02  0.00000000000E+00 0.  1.
          3    1    6    6  503    0  0.22593164453E+03  0.22481858607E+03  0.86832091331E+03  0.92497011472E+03  0.00000000000E+00 0. -1.
         -3    1    6    6    0  503  0.24933013638E+02  0.38067787783E+02  0.52698477900E+02  0.69627158557E+02  0.00000000000E+00 0.  1.
<mgrwt>
<rscale>  0 0.13390288E+04</rscale>
<asrwt>0</asrwt>
<pdfrwt beam="1">  1        2 0.18269195E+00 0.13390288E+04</pdfrwt>
<pdfrwt beam="2">  1       -1 0.58072926E-01 0.13390288E+04</pdfrwt>
<totfact> 0.64520453E+01</totfact>
</mgrwt>
</event>
<event>
12    6  0.1542110E-007  0.1789103E+04  0.7818608E-02  0.8712116E-01
         -3   -1    0    0    0  501 -0.00000000000E+00  0.00000000000E+00  0.42180957710E+03  0.42180957710E+03  0.00000000000E+00 0.  1.
          2   -1    0    0  501    0  0.00000000000E+00 -0.00000000000E+00 -0.18971171373E+04  0.18971171373E+04  0.00000000000E+00 0. -1.
         24    2    1    2    0    0 -0.41382205642E+03  0.49668724118E+03 -0.75236967713E+03  0.99512439413E+03  0.79155030219E+02 0.  0.
        254    2    1    2    0    0  0.41382205642E+03 -0.49668724118E+03 -0.72293788312E+03  0.13238023203E+04  0.90103634248E+03 0.  0.
         23    2    4    4    0    0  0.43914229697E+03 -0.38755181915E+03 -0.52513121448E+01  0.59168192103E+03  0.83770817558E+02 0.  0.
         23    2    4    4    0    0 -0.25320240554E+02 -0.10913542203E+03 -0.71768657098E+03  0.73212039928E+03  0.91512895064E+02 0.  0.
          4    1    3    3  502    0 -0.13764813274E+03  0.17068439035E+03 -0.31399143426E+03  0.38297622687E+03  0.00000000000E+00 0. -1.
         -3    1    3    3    0  502 -0.27617392368E+03  0.32600285083E+03 -0.43837824287E+03  0.61214816727E+03  0.00000000000E+00 0.  1.
         11    1    5    5    0    0  0.20884254509E+03 -0.12955496236E+03  0.20488955654E+01  0.24577203845E+03  0.00000000000E+00 0. -1.
        -11    1    5    5    0    0  0.23029975188E+03 -0.25799685679E+03 -0.73002077103E+01  0.34590988258E+03  0.00000000000E+00 0.  1.
          1    1    6    6  503    0 -0.11560120664E+02 -0.24880042198E+01 -0.78685868449E+01  0.14203563416E+02  0.00000000000E+00 0. -1.
         -1    1    6    6    0  503 -0.13760119890E+02 -0.10664741781E+03 -0.70981798413E+03  0.71791683587E+03  0.00000000000E+00 0.  1.
<mgrwt>
<rscale>  0 0.17891028E+04</rscale>
<asrwt>0</asrwt>
<pdfrwt beam="1">  1        2 0.29186418E+00 0.17891028E+04</pdfrwt>
<pdfrwt beam="2">  1       -3 0.64893781E-01 0.17891028E+04</pdfrwt>
<totfact> 0.10596817E+01</totfact>
</mgrwt>
</event>
<event>
12    6  0.1542110E-007  0.2290239E+04  0.7818608E-02  0.8481780E-01
          2   -1    0    0  501    0  0.00000000000E+00  0.00000000000E+00  0.36138220973E+04  0.36138220973E+04  0.00000000000E+00 0. -1.
         -1   -1    0    0    0  501 -0.00000000000E+00 -0.00000000000E+00 -0.36285657846E+03  0.36285657846E+03  0.00000000000E+00 0.  1.
         24    2    1    2    0    0  0.26631950215E+03 -0.41271842720E+03  0.28185119465E+04  0.28620131428E+04  0.76466066956E+02 0.  0.
        254    2    1    2    0    0 -0.26631950215E+03  0.41271842720E+03  0.43245357233E+03  0.11146655330E+04  0.90233063830E+03 0.  0.
         23    2    4    4    0    0  0.13162814265E+03 -0.16436711123E+03  0.32729473176E+03  0.40100582548E+03  0.96650480819E+02 0.  0.
         23    2    4    4    0    0 -0.39794764480E+03  0.57708553843E+03  0.10515884057E+03  0.71365970750E+03  0.82835678883E+02 0.  0.
          4    1    3    3  502    0  0.26823375094E+03 -0.38471838977E+03  0.26508451490E+04  0.26920136680E+04  0.00000000000E+00 0. -1.
         -3    1    3    3    0  502 -0.19142487907E+01 -0.28000037432E+02  0.16766679751E+03  0.16999947480E+03  0.00000000000E+00 0.  1.
         11    1    5    5    0    0  0.46334339888E+02 -0.11302719635E+03  0.23688286992E+03  0.26652488107E+03  0.00000000000E+00 0.  1.
        -11    1    5    5    0    0  0.85293802761E+02 -0.51339914879E+02  0.90411861844E+02  0.13448094442E+03  0.00000000000E+00 0. -1.
          1    1    6    6  503    0 -0.31559216249E+03  0.39668443691E+03  0.89314572801E+02  0.51471744523E+03  0.00000000000E+00 0. -1.
         -1    1    6    6    0  503 -0.82355482307E+02  0.18040110152E+03  0.15844267772E+02  0.19894226227E+03  0.00000000000E+00 0.  1.
<mgrwt>
<rscale>  0 0.22902394E+04</rscale>
<asrwt>0</asrwt>
<pdfrwt beam="1">  1        2 0.55597261E+00 0.22902394E+04</pdfrwt>
<pdfrwt beam="2">  1       -1 0.55824091E-01 0.22902394E+04</pdfrwt>
<totfact> 0.22683295E+00</totfact>
</mgrwt>
</event>
<event>
12    6  0.1542110E-007  0.1143890E+04  0.7818608E-02  0.9163439E-01
          2   -1    0    0  501    0  0.00000000000E+00  0.00000000000E+00  0.18270236980E+04  0.18270236980E+04  0.00000000000E+00 0. -1.
         -1   -1    0    0    0  501 -0.00000000000E+00 -0.00000000000E+00 -0.17904598287E+03  0.17904598287E+03  0.00000000000E+00 0.  1.
         24    2    1    2    0    0 -0.15929966373E+03  0.94352090891E+02  0.39137818773E+03  0.44240344855E+03  0.90913285821E+02 0.  0.
        254    2    1    2    0    0  0.15929966373E+03 -0.94352090891E+02  0.12565995274E+04  0.15636662324E+04  0.91199288042E+03 0.  0.
         23    2    4    4    0    0  0.50416075347E+02 -0.13097875381E+03 -0.10340651397E+03  0.19574663821E+03  0.89031593474E+02 0.  0.
         23    2    4    4    0    0  0.10888358838E+03  0.36626662920E+02  0.13600060414E+04  0.13679195941E+04  0.91599318357E+02 0.  0.
          2    1    3    3  502    0 -0.13141054069E+03  0.11249616568E+03  0.32720909326E+03  0.37012147764E+03  0.00000000000E+00 0. -1.
         -1    1    3    3    0  502 -0.27889123044E+02 -0.18144074789E+02  0.64169094468E+02  0.72281970912E+02  0.00000000000E+00 0.  1.
         11    1    5    5    0    0  0.62006979805E+02 -0.61998674894E+02 -0.87785246834E+02  0.12407639097E+03  0.00000000000E+00 0.  1.
        -11    1    5    5    0    0 -0.11590904458E+02 -0.68980078916E+02 -0.15621267136E+02  0.71670247246E+02  0.00000000000E+00 0. -1.
          1    1    6    6  503    0  0.11309256599E+03  0.16259326607E+02  0.86973868814E+03  0.87721130854E+03  0.00000000000E+00 0. -1.
         -1    1    6    6    0  503 -0.42089776023E+01  0.20367336313E+02  0.49026735327E+03  0.49070828560E+03  0.00000000000E+00 0.  1.
<mgrwt>
<rscale>  0 0.11438903E+04</rscale>
<asrwt>0</asrwt>
<pdfrwt beam="1">  1        2 0.28108056E+00 0.11438903E+04</pdfrwt>
<pdfrwt beam="2">  1       -1 0.27545537E-01 0.11438903E+04</pdfrwt>
<totfact> 0.11145858E+02</totfact>
</mgrwt>
</event>
<event>
12    6  0.1542110E-007  0.1878455E+04  0.7818608E-02  0.8665655E-01
          2   -1    0    0  501    0  0.00000000000E+00  0.00000000000E+00  0.34756482226E+04  0.34756482226E+04  0.00000000000E+00 0. -1.
         -1   -1    0    0    0  501 -0.00000000000E+00 -0.00000000000E+00 -0.25380837834E+03  0.25380837834E+03  0.00000000000E+00 0.  1.
         24    2    1    2    0    0 -0.33070892430E+03  0.64023608663E+03  0.11560231953E+04  0.13645073952E+04  0.78868018849E+02 0.  0.
        254    2    1    2    0    0  0.33070892430E+03 -0.64023608663E+03  0.20658166489E+04  0.23649492057E+04  0.89783945061E+03 0.  0.
         23    2    4    4    0    0 -0.21692986120E+03 -0.43644563796E+03  0.13391962055E+04  0.14281070307E+04  0.92194656214E+02 0.  0.
         23    2    4    4    0    0  0.54763878550E+03 -0.20379044868E+03  0.72662044342E+03  0.93684217498E+03  0.90869167862E+02 0.  0.
          2    1    3    3  502    0 -0.15721784685E+03  0.33379850186E+03  0.66107594059E+03  0.75707350399E+03  0.00000000000E+00 0. -1.
         -1    1    3    3    0  502 -0.17349107745E+03  0.30643758477E+03  0.49494725469E+03  0.60743389125E+03  0.00000000000E+00 0.  1.
         11    1    5    5    0    0 -0.21211083940E+03 -0.35375931028E+03  0.11427771676E+04  0.12149388102E+04  0.00000000000E+00 0. -1.
        -11    1    5    5    0    0 -0.48190217951E+01 -0.82686327672E+02  0.19641903790E+03  0.21316822043E+03  0.00000000000E+00 0.  1.
          2    1    6    6  503    0  0.26206966334E+03 -0.56170082698E+02  0.29359024942E+03  0.39753090596E+03  0.00000000000E+00 0.  1.
         -2    1    6    6    0  503  0.28556912216E+03 -0.14762036598E+03  0.43303019399E+03  0.53931126902E+03  0.00000000000E+00 0. -1.
<mgrwt>
<rscale>  0 0.18784554E+04</rscale>
<asrwt>0</asrwt>
<pdfrwt beam="1">  1        2 0.53471508E+00 0.18784554E+04</pdfrwt>
<pdfrwt beam="2">  1       -1 0.39047445E-01 0.18784554E+04</pdfrwt>
<totfact> 0.57872488E+00</totfact>
</mgrwt>
</event>
<event>
12    6  0.1542110E-007  0.1248864E+04  0.7818608E-02  0.9071129E-01
         -1   -1    0    0    0  501 -0.00000000000E+00  0.00000000000E+00  0.35734183681E+03  0.35734183681E+03  0.00000000000E+00 0.  1.
          2   -1    0    0  501    0  0.00000000000E+00 -0.00000000000E+00 -0.10911557773E+04  0.10911557773E+04  0.00000000000E+00 0. -1.
         24    2    1    2    0    0 -0.10873929921E+03 -0.78065410807E+02  0.11935484966E+03  0.19672533822E+03  0.80850695761E+02 0.  0.
        254    2    1    2    0    0  0.10873929921E+03  0.78065410807E+02 -0.85316879018E+03  0.12517722759E+04  0.90615583797E+03 0.  0.
         23    2    4    4    0    0  0.40791913977E+03  0.27636624149E+03 -0.67520923086E+03  0.84089819454E+03  0.91792941510E+02 0.  0.
         23    2    4    4    0    0 -0.29917984056E+03 -0.19830083068E+03 -0.17795955932E+03  0.41087408139E+03  0.91192705628E+02 0.  0.
          2    1    3    3  502    0  0.12410508013E+02 -0.63678711117E+01  0.34359744974E+01  0.14365807057E+02  0.00000000000E+00 0. -1.
         -1    1    3    3    0  502 -0.12114980723E+03 -0.71697539695E+02  0.11591887516E+03  0.18235953117E+03  0.00000000000E+00 0.  1.
         11    1    5    5    0    0  0.40281510679E+03  0.24953215059E+03 -0.64087299679E+03  0.79702227224E+03  0.00000000000E+00 0. -1.
        -11    1    5    5    0    0  0.51040329771E+01  0.26834090896E+02 -0.34336234074E+02  0.43875922295E+02  0.00000000000E+00 0.  1.
          1    1    6    6  503    0 -0.12707736747E+03 -0.34841100477E+02 -0.47783006381E+02  0.14016338789E+03  0.00000000000E+00 0. -1.
         -1    1    6    6    0  503 -0.17210247309E+03 -0.16345973020E+03 -0.13017655294E+03  0.27071069350E+03  0.00000000000E+00 0.  1.
<mgrwt>
<rscale>  0 0.12488645E+04</rscale>
<asrwt>0</asrwt>
<pdfrwt beam="1">  1        2 0.16787012E+00 0.12488645E+04</pdfrwt>
<pdfrwt beam="2">  1       -1 0.54975668E-01 0.12488645E+04</pdfrwt>
<totfact> 0.82742055E+01</totfact>
</mgrwt>
</event>
<event>
12    6  0.1542110E-007  0.1354544E+04  0.7818608E-02  0.8987395E-01
         -1   -1    0    0    0  501 -0.00000000000E+00  0.00000000000E+00  0.10792576291E+03  0.10792576291E+03  0.00000000000E+00 0.  1.
          2   -1    0    0  501    0  0.00000000000E+00 -0.00000000000E+00 -0.42501214362E+04  0.42501214362E+04  0.00000000000E+00 0. -1.
         24    2    1    2    0    0 -0.28161291157E+03 -0.22856512930E+03 -0.88158024401E+03  0.95664392027E+03  0.80224767166E+02 0.  0.
        254    2    1    2    0    0  0.28161291157E+03  0.22856512930E+03 -0.32606154293E+04  0.34014032789E+04  0.89798855080E+03 0.  0.
         23    2    4    4    0    0  0.33538026217E+03  0.50777503570E+03 -0.15966112975E+04  0.17110708871E+04  0.90997464416E+02 0.  0.
         23    2    4    4    0    0 -0.53767350602E+02 -0.27920990639E+03 -0.16640041319E+04  0.16903323917E+04  0.86398749323E+02 0.  0.
          2    1    3    3  502    0 -0.32663047208E+02 -0.48188286868E+02 -0.87160864428E+02  0.10481413040E+03  0.00000000000E+00 0. -1.
         -1    1    3    3    0  502 -0.24894986436E+03 -0.18037684244E+03 -0.79441937958E+03  0.85182978987E+03  0.00000000000E+00 0.  1.
         11    1    5    5    0    0  0.17721186347E+03  0.34666914382E+03 -0.10311431999E+04  0.11021977311E+04  0.00000000000E+00 0. -1.
        -11    1    5    5    0    0  0.15816839870E+03  0.16110589187E+03 -0.56546809756E+03  0.60887315600E+03  0.00000000000E+00 0.  1.
          4    1    6    6  503    0 -0.23487308431E+01 -0.11676802246E+03 -0.47317399470E+03  0.48737451397E+03  0.00000000000E+00 0. -1.
         -4    1    6    6    0  503 -0.51418619759E+02 -0.16244188394E+03 -0.11908301372E+04  0.12029578778E+04  0.00000000000E+00 0.  1.
<mgrwt>
<rscale>  0 0.13545443E+04</rscale>
<asrwt>0</asrwt>
<pdfrwt beam="1">  1        2 0.65386494E+00 0.13545443E+04</pdfrwt>
<pdfrwt beam="2">  1       -1 0.16603961E-01 0.13545443E+04</pdfrwt>
<totfact> 0.67591730E+00</totfact>
</mgrwt>
</event>
<event>
12    6  0.1542110E-007  0.2212821E+04  0.7818608E-02  0.8513111E-01
         -1   -1    0    0    0  501 -0.00000000000E+00  0.00000000000E+00  0.78525716622E+03  0.78525716622E+03  0.00000000000E+00 0.  1.
          2   -1    0    0  501    0  0.00000000000E+00 -0.00000000000E+00 -0.15589087422E+04  0.15589087422E+04  0.00000000000E+00 0. -1.
         24    2    1    2    0    0 -0.66036844454E+03  0.51426050920E+03 -0.72875865759E+03  0.11128444025E+04  0.82359755864E+02 0.  0.
        254    2    1    2    0    0  0.66036844454E+03 -0.51426050920E+03 -0.44892918373E+02  0.12313215059E+04  0.90199053367E+03 0.  0.
         23    2    4    4    0    0  0.40084832152E+03 -0.10852599812E+01  0.33906677664E+03  0.53339336393E+03  0.94136321430E+02 0.  0.
         23    2    4    4    0    0  0.25952012302E+03 -0.51317524922E+03 -0.38395969501E+03  0.69792814194E+03  0.94758183030E+02 0.  0.
          2    1    3    3  502    0 -0.39548338537E+03  0.31697289859E+03 -0.38807292834E+03  0.63834122870E+03  0.00000000000E+00 0. -1.
         -1    1    3    3    0  502 -0.26488505916E+03  0.19728761061E+03 -0.34068572925E+03  0.47450317384E+03  0.00000000000E+00 0.  1.
         11    1    5    5    0    0  0.11060448960E+03  0.36468007842E+02  0.70246186347E+02  0.13600660062E+03  0.00000000000E+00 0.  1.
        -11    1    5    5    0    0  0.29024383191E+03 -0.37553267823E+02  0.26882059029E+03  0.39738676331E+03  0.00000000000E+00 0. -1.
          1    1    6    6  503    0  0.10599185618E+03 -0.27007199564E+03 -0.23920355627E+03  0.37602060813E+03  0.00000000000E+00 0. -1.
         -1    1    6    6    0  503  0.15352826684E+03 -0.24310325358E+03 -0.14475613874E+03  0.32190753381E+03  0.00000000000E+00 0.  1.
<mgrwt>
<rscale>  0 0.22128211E+04</rscale>
<asrwt>0</asrwt>
<pdfrwt beam="1">  1        2 0.23983211E+00 0.22128211E+04</pdfrwt>
<pdfrwt beam="2">  1       -1 0.12080880E+00 0.22128211E+04</pdfrwt>
<totfact> 0.74480825E+00</totfact>
</mgrwt>
</event>
<event>
12    6  0.1542110E-007  0.1568533E+04  0.7818608E-02  0.8840116E-01
         -1   -1    0    0    0  501 -0.00000000000E+00  0.00000000000E+00  0.80998735377E+03  0.80998735377E+03  0.00000000000E+00 0.  1.
          2   -1    0    0  501    0  0.00000000000E+00 -0.00000000000E+00 -0.75936239578E+03  0.75936239578E+03  0.00000000000E+00 0. -1.
         24    2    1    2    0    0 -0.15356403632E+03 -0.34929929644E+03 -0.31421438797E+03  0.50083047866E+03  0.80675739833E+02 0.  0.
        254    2    1    2    0    0  0.15356403632E+03  0.34929929644E+03  0.36483934597E+03  0.10685192709E+04  0.92899610987E+03 0.  0.
         23    2    4    4    0    0  0.17406638982E+03  0.56925466000E+03 -0.34599693067E+02  0.60297832595E+03  0.89642327100E+02 0.  0.
         23    2    4    4    0    0 -0.20502353501E+02 -0.21995536356E+03  0.39943903903E+03  0.46554094494E+03  0.91521129021E+02 0.  0.
          4    1    3    3  502    0 -0.11051178413E+03 -0.31209710605E+03 -0.24890372016E+03  0.41421071925E+03  0.00000000000E+00 0. -1.
         -3    1    3    3    0  502 -0.43052252194E+02 -0.37202190392E+02 -0.65310667816E+02  0.86619759406E+02  0.00000000000E+00 0.  1.
         11    1    5    5    0    0  0.13821916700E+03  0.53066465643E+03 -0.41100082789E+02  0.54990793095E+03  0.00000000000E+00 0. -1.
        -11    1    5    5    0    0  0.35847222819E+02  0.38590003565E+02  0.65003897215E+01  0.53070395001E+02  0.00000000000E+00 0.  1.
          3    1    6    6  503    0  0.17679817027E+02 -0.16367129223E+03  0.32746028129E+03  0.36651207846E+03  0.00000000000E+00 0. -1.
         -3    1    6    6    0  503 -0.38182170528E+02 -0.56284071332E+02  0.71978757739E+02  0.99028866487E+02  0.00000000000E+00 0.  1.
<mgrwt>
<rscale>  0 0.15685330E+04</rscale>
<asrwt>0</asrwt>
<pdfrwt beam="1">  1        2 0.11682498E+00 0.15685330E+04</pdfrwt>
<pdfrwt beam="2">  1       -1 0.12461344E+00 0.15685330E+04</pdfrwt>
<totfact> 0.22845788E+01</totfact>
</mgrwt>
</event>
<event>
12    6  0.1542110E-007  0.1252181E+04  0.7818608E-02  0.9068370E-01
          2   -1    0    0  501    0  0.00000000000E+00  0.00000000000E+00  0.60529461948E+03  0.60529461948E+03  0.00000000000E+00 0. -1.
         -1   -1    0    0    0  501 -0.00000000000E+00 -0.00000000000E+00 -0.64760085863E+03  0.64760085863E+03  0.00000000000E+00 0.  1.
         24    2    1    2    0    0  0.22751492641E+03 -0.93768005320E+02 -0.15833561369E+03  0.30244169530E+03  0.76454770497E+02 0.  0.
        254    2    1    2    0    0 -0.22751492641E+03  0.93768005320E+02  0.11602937453E+03  0.95045378281E+03  0.91068331320E+03 0.  0.
         23    2    4    4    0    0  0.67596325925E+02 -0.17448537997E+03  0.40092116753E+03  0.45153025587E+03  0.90151973294E+02 0.  0.
         23    2    4    4    0    0 -0.29511125234E+03  0.26825338529E+03 -0.28489179300E+03  0.49892352694E+03  0.93331784745E+02 0.  0.
          4    1    3    3  502    0  0.93733197488E+02 -0.32410316077E+02 -0.21507916903E+02  0.10148365085E+03  0.00000000000E+00 0. -1.
         -3    1    3    3    0  502  0.13378172892E+03 -0.61357689242E+02 -0.13682769678E+03  0.20095804445E+03  0.00000000000E+00 0.  1.
         11    1    5    5    0    0  0.72198056732E+02 -0.67656501219E+02  0.16291136130E+03  0.19060449416E+03  0.00000000000E+00 0. -1.
        -11    1    5    5    0    0 -0.46017308072E+01 -0.10682887875E+03  0.23800980623E+03  0.26092576171E+03  0.00000000000E+00 0.  1.
          3    1    6    6  503    0  0.32332803914E+01  0.13514279025E+02 -0.24186735523E+02  0.27894229061E+02  0.00000000000E+00 0. -1.
         -3    1    6    6    0  503 -0.29834453273E+03  0.25473910626E+03 -0.26070505747E+03  0.47102929788E+03  0.00000000000E+00 0.  1.
<mgrwt>
<rscale>  0 0.12521810E+04</rscale>
<asrwt>0</asrwt>
<pdfrwt beam="1">  1        2 0.93122249E-01 0.12521810E+04</pdfrwt>
<pdfrwt beam="2">  1       -1 0.99630901E-01 0.12521810E+04</pdfrwt>
<totfact> 0.53034306E+01</totfact>
</mgrwt>
</event>
<event>
12    6  0.1542110E-007  0.2394437E+04  0.7818608E-02  0.8441589E-01
         -1   -1    0    0    0  501 -0.00000000000E+00  0.00000000000E+00  0.67619453537E+03  0.67619453537E+03  0.00000000000E+00 0.  1.
          2   -1    0    0  501    0  0.00000000000E+00 -0.00000000000E+00 -0.21197040291E+04  0.21197040291E+04  0.00000000000E+00 0. -1.
         24    2    1    2    0    0  0.54681163767E+02 -0.98015338614E+03 -0.27072202791E+03  0.10212229670E+04  0.76910610000E+02 0.  0.
        254    2    1    2    0    0 -0.54681163767E+02  0.98015338614E+03 -0.11727874658E+04  0.17746755974E+04  0.90019572657E+03 0.  0.
         23    2    4    4    0    0 -0.27023123005E+03  0.31014925897E+03 -0.93539371752E+03  0.10259836268E+04  0.91997364651E+02 0.  0.
         23    2    4    4    0    0  0.21555006628E+03  0.67000412718E+03 -0.23739374826E+03  0.74869197065E+03  0.93896292171E+02 0.  0.
          4    1    3    3  502    0  0.38695379582E+01 -0.43976506519E+03 -0.15463009996E+03  0.46617459572E+03  0.00000000000E+00 0. -1.
         -3    1    3    3    0  502  0.50811625809E+02 -0.54038832096E+03 -0.11609192795E+03  0.55504837130E+03  0.00000000000E+00 0.  1.
         11    1    5    5    0    0 -0.50713826263E+02  0.79958936639E+02 -0.31318554194E+03  0.32718573839E+03  0.00000000000E+00 0. -1.
        -11    1    5    5    0    0 -0.21951740378E+03  0.23019032233E+03 -0.62220817557E+03  0.69879788838E+03  0.00000000000E+00 0.  1.
          4    1    6    6  503    0  0.20830795589E+03  0.53741483848E+03 -0.20745321632E+03  0.61257142446E+03  0.00000000000E+00 0.  1.
         -4    1    6    6    0  503  0.72421103959E+01  0.13258928870E+03 -0.29940531941E+02  0.13612054618E+03  0.00000000000E+00 0. -1.
<mgrwt>
<rscale>  0 0.23944371E+04</rscale>
<asrwt>0</asrwt>
<pdfrwt beam="1">  1        2 0.32610831E+00 0.23944371E+04</pdfrwt>
<pdfrwt beam="2">  1       -1 0.10402993E+00 0.23944371E+04</pdfrwt>
<totfact> 0.51009852E+00</totfact>
</mgrwt>
</event>
<event>
12    6  0.1542110E-007  0.1365132E+04  0.7818608E-02  0.8979452E-01
          2   -1    0    0  501    0  0.00000000000E+00  0.00000000000E+00  0.37107631377E+03  0.37107631377E+03  0.00000000000E+00 0. -1.
         -1   -1    0    0    0  501 -0.00000000000E+00 -0.00000000000E+00 -0.12555274783E+04  0.12555274783E+04  0.00000000000E+00 0.  1.
         24    2    1    2    0    0 -0.26081493525E+03  0.27300261838E+03 -0.22862223068E+03  0.44900478431E+03  0.82354792722E+02 0.  0.
        254    2    1    2    0    0  0.26081493525E+03 -0.27300261838E+03 -0.65582893381E+03  0.11775990077E+04  0.90225992513E+03 0.  0.
         23    2    4    4    0    0  0.42599682841E+03 -0.33184381612E+03 -0.77385920594E+03  0.94806569137E+03  0.91525233829E+02 0.  0.
         23    2    4    4    0    0 -0.16518189316E+03  0.58841197740E+02  0.11803027212E+03  0.22953331636E+03  0.89482142357E+02 0.  0.
          4    1    3    3  502    0 -0.16347193423E+03  0.19615979071E+03 -0.11222346040E+03  0.27891905965E+03  0.00000000000E+00 0. -1.
         -3    1    3    3    0  502 -0.97343001011E+02  0.76842827669E+02 -0.11639877028E+03  0.17008572466E+03  0.00000000000E+00 0.  1.
         11    1    5    5    0    0  0.19477466264E+03 -0.12025719275E+03 -0.26240500447E+03  0.34821738610E+03  0.00000000000E+00 0.  1.
        -11    1    5    5    0    0  0.23122216578E+03 -0.21158662337E+03 -0.51145420147E+03  0.59984830527E+03  0.00000000000E+00 0. -1.
          2    1    6    6  503    0 -0.26951686518E+02  0.20336706666E+02  0.70848936871E+02  0.78482780914E+02  0.00000000000E+00 0. -1.
         -2    1    6    6    0  503 -0.13823020665E+03  0.38504491074E+02  0.47181335253E+02  0.15105053545E+03  0.00000000000E+00 0.  1.
<mgrwt>
<rscale>  0 0.13651322E+04</rscale>
<asrwt>0</asrwt>
<pdfrwt beam="1">  1        2 0.57088665E-01 0.13651322E+04</pdfrwt>
<pdfrwt beam="2">  1       -1 0.19315807E+00 0.13651322E+04</pdfrwt>
<totfact> 0.16227265E+01</totfact>
</mgrwt>
</event>
<event>
12    6  0.1542110E-007  0.1719302E+04  0.7818608E-02  0.8750431E-01
         -1   -1    0    0    0  501 -0.00000000000E+00  0.00000000000E+00  0.83408522546E+03  0.83408522546E+03  0.00000000000E+00 0.  1.
          2   -1    0    0  501    0  0.00000000000E+00 -0.00000000000E+00 -0.88600087976E+03  0.88600087976E+03  0.00000000000E+00 0. -1.
         24    2    1    2    0    0  0.22698880066E+03 -0.10071990069E+03 -0.56905898493E+03  0.62586429261E+03  0.78800827481E+02 0.  0.
        254    2    1    2    0    0 -0.22698880066E+03  0.10071990069E+03  0.51714333062E+03  0.10942218126E+04  0.93178094892E+03 0.  0.
         23    2    4    4    0    0 -0.31103373522E+02 -0.40365884914E+03  0.18483643119E+03  0.45436089914E+03  0.91495541119E+02 0.  0.
         23    2    4    4    0    0 -0.19588542714E+03  0.50437874982E+03  0.33230689944E+03  0.63986091347E+03  0.78899235331E+02 0.  0.
          2    1    3    3  502    0  0.19322479408E+03 -0.10412006990E+03 -0.53260629924E+03  0.57606100371E+03  0.00000000000E+00 0. -1.
         -3    1    3    3    0  502  0.33764006583E+02  0.34001692132E+01 -0.36452685688E+02  0.49803288898E+02  0.00000000000E+00 0.  1.
         11    1    5    5    0    0 -0.26000284833E+01 -0.36915273729E+03  0.17498072154E+03  0.40853244242E+03  0.00000000000E+00 0. -1.
        -11    1    5    5    0    0 -0.28503345038E+02 -0.34506111848E+02  0.98557096463E+01  0.45828456726E+02  0.00000000000E+00 0.  1.
          2    1    6    6  503    0 -0.92732931804E+02  0.32436078587E+03  0.17912228848E+03  0.38196087533E+03  0.00000000000E+00 0. -1.
         -2    1    6    6    0  503 -0.10315249534E+03  0.18001796395E+03  0.15318461095E+03  0.25790003814E+03  0.00000000000E+00 0.  1.
<mgrwt>
<rscale>  0 0.17193025E+04</rscale>
<asrwt>0</asrwt>
<pdfrwt beam="1">  1        2 0.13630783E+00 0.17193025E+04</pdfrwt>
<pdfrwt beam="2">  1       -1 0.12832080E+00 0.17193025E+04</pdfrwt>
<totfact> 0.17034506E+01</totfact>
</mgrwt>
</event>
<event>
12    6  0.1542110E-007  0.2415995E+04  0.7818608E-02  0.8433539E-01
          2   -1    0    0  501    0  0.00000000000E+00  0.00000000000E+00  0.24445592310E+04  0.24445592310E+04  0.00000000000E+00 0. -1.
         -1   -1    0    0    0  501 -0.00000000000E+00 -0.00000000000E+00 -0.59694109535E+03  0.59694109535E+03  0.00000000000E+00 0.  1.
         24    2    1    2    0    0 -0.11820760935E+03  0.77713728295E+02  0.20894656158E+04  0.20957676921E+04  0.79769652573E+02 0.  0.
        254    2    1    2    0    0  0.11820760935E+03 -0.77713728295E+02 -0.24184748016E+03  0.94573263417E+03  0.90327600942E+03 0.  0.
         23    2    4    4    0    0 -0.13897685220E+03  0.30563182886E+03  0.10466029854E+03  0.36144670605E+03  0.83453957157E+02 0.  0.
         23    2    4    4    0    0  0.25718446156E+03 -0.38334555715E+03 -0.34650777870E+03  0.58428592812E+03  0.90690361344E+02 0.  0.
          2    1    3    3  502    0 -0.53334023675E+02  0.53349096075E+02  0.15549362674E+04  0.15567650561E+04  0.00000000000E+00 0. -1.
         -1    1    3    3    0  502 -0.64873585679E+02  0.24364632220E+02  0.53452934837E+03  0.53900263607E+03  0.00000000000E+00 0.  1.
         11    1    5    5    0    0 -0.44810995277E+02  0.28170397419E+02  0.17645642861E+02  0.55793953977E+02  0.00000000000E+00 0.  1.
        -11    1    5    5    0    0 -0.94165856924E+02  0.27746143144E+03  0.87014655681E+02  0.30565275207E+03  0.00000000000E+00 0. -1.
          4    1    6    6  503    0  0.15196960935E+03 -0.29631579812E+03 -0.22913591457E+03  0.40422899664E+03  0.00000000000E+00 0. -1.
         -4    1    6    6    0  503  0.10521485221E+03 -0.87029759034E+02 -0.11737186413E+03  0.18005693148E+03  0.00000000000E+00 0.  1.
<mgrwt>
<rscale>  0 0.24159949E+04</rscale>
<asrwt>0</asrwt>
<pdfrwt beam="1">  1        2 0.37608603E+00 0.24159949E+04</pdfrwt>
<pdfrwt beam="2">  1       -1 0.91837093E-01 0.24159949E+04</pdfrwt>
<totfact> 0.44215824E+00</totfact>
</mgrwt>
</event>
<event>
12    6  0.1542110E-007  0.1663384E+04  0.7818608E-02  0.8782528E-01
         -1   -1    0    0    0  501 -0.00000000000E+00  0.00000000000E+00  0.28960041209E+03  0.28960041209E+03  0.00000000000E+00 0.  1.
          2   -1    0    0  501    0  0.00000000000E+00 -0.00000000000E+00 -0.23885044238E+04  0.23885044238E+04  0.00000000000E+00 0. -1.
         24    2    1    2    0    0  0.92427158359E+02  0.11212204999E+02 -0.16774660527E+04  0.16819668653E+04  0.80322381906E+02 0.  0.
        254    2    1    2    0    0 -0.92427158359E+02 -0.11212204999E+02 -0.42143795899E+03  0.99613797052E+03  0.89778193894E+03 0.  0.
         23    2    4    4    0    0  0.28352513274E+03 -0.24019927971E+03 -0.38753377203E+03  0.54450138790E+03  0.90648453320E+02 0.  0.
         23    2    4    4    0    0 -0.37595229110E+03  0.22898707471E+03 -0.33904186959E+02  0.45163658262E+03  0.95136235498E+02 0.  0.
          4    1    3    3  502    0  0.78349215256E+02  0.15663329365E+02 -0.16360114045E+04  0.16379613106E+04  0.00000000000E+00 0. -1.
         -3    1    3    3    0  502  0.14077943104E+02 -0.44511243665E+01 -0.41454648183E+02  0.44005554719E+02  0.00000000000E+00 0.  1.
         11    1    5    5    0    0  0.85872212037E+02 -0.24128049751E+02 -0.10198430856E+03  0.13548800234E+03  0.00000000000E+00 0.  1.
        -11    1    5    5    0    0  0.19765292070E+03 -0.21607122996E+03 -0.28554946347E+03  0.40901338556E+03  0.00000000000E+00 0. -1.
          3    1    6    6  503    0 -0.33695084990E+03  0.17737436404E+03 -0.52349126946E+02  0.38436697485E+03  0.00000000000E+00 0. -1.
         -3    1    6    6    0  503 -0.39001441199E+02  0.51612710674E+02  0.18444939987E+02  0.67269607772E+02  0.00000000000E+00 0.  1.
<mgrwt>
<rscale>  0 0.16633843E+04</rscale>
<asrwt>0</asrwt>
<pdfrwt beam="1">  1        2 0.36746221E+00 0.16633843E+04</pdfrwt>
<pdfrwt beam="2">  1       -1 0.44553911E-01 0.16633843E+04</pdfrwt>
<totfact> 0.21913143E+01</totfact>
</mgrwt>
</event>
<event>
12    6  0.1542110E-007  0.1084887E+04  0.7818608E-02  0.9220049E-01
         -1   -1    0    0    0  501 -0.00000000000E+00  0.00000000000E+00  0.30431986495E+03  0.30431986495E+03  0.00000000000E+00 0.  1.
          2   -1    0    0  501    0  0.00000000000E+00 -0.00000000000E+00 -0.96689286036E+03  0.96689286036E+03  0.00000000000E+00 0. -1.
         24    2    1    2    0    0  0.10629029894E+03  0.97702932428E+02 -0.20549651945E+03  0.26304988865E+03  0.78249177368E+02 0.  0.
        254    2    1    2    0    0 -0.10629029894E+03 -0.97702932428E+02 -0.45707647596E+03  0.10081628367E+04  0.88692159164E+03 0.  0.
         23    2    4    4    0    0  0.50673532263E+02  0.26605195502E+03  0.11403473327E+03  0.30742198332E+03  0.90293442724E+02 0.  0.
         23    2    4    4    0    0 -0.15696383121E+03 -0.36375488744E+03 -0.57111120923E+03  0.70074085334E+03  0.88963294620E+02 0.  0.
          4    1    3    3  502    0  0.11320214526E+03  0.92913094207E+02 -0.20790086068E+03  0.25430363080E+03  0.00000000000E+00 0. -1.
         -3    1    3    3    0  502 -0.69118463149E+01  0.47898382212E+01  0.24043412297E+01  0.87462578521E+01  0.00000000000E+00 0.  1.
         11    1    5    5    0    0  0.17829629141E+01  0.20737167052E+03  0.98042531867E+02  0.22938728549E+03  0.00000000000E+00 0.  1.
        -11    1    5    5    0    0  0.48890569349E+02  0.58680284495E+02  0.15992201405E+02  0.78034697830E+02  0.00000000000E+00 0. -1.
          1    1    6    6  503    0 -0.64116791800E+02 -0.58289587882E+02 -0.11489401307E+03  0.14390716898E+03  0.00000000000E+00 0. -1.
         -1    1    6    6    0  503 -0.92847039406E+02 -0.30546529956E+03 -0.45621719616E+03  0.55683368436E+03  0.00000000000E+00 0.  1.
<mgrwt>
<rscale>  0 0.10848865E+04</rscale>
<asrwt>0</asrwt>
<pdfrwt beam="1">  1        2 0.14875275E+00 0.10848865E+04</pdfrwt>
<pdfrwt beam="2">  1       -1 0.46818440E-01 0.10848865E+04</pdfrwt>
<totfact> 0.13631486E+02</totfact>
</mgrwt>
</event>
<event>
12    6  0.1542110E-007  0.1413522E+04  0.7818608E-02  0.8944089E-01
         -1   -1    0    0    0  501 -0.00000000000E+00  0.00000000000E+00  0.12009534089E+03  0.12009534089E+03  0.00000000000E+00 0.  1.
          2   -1    0    0  501    0  0.00000000000E+00 -0.00000000000E+00 -0.41592869038E+04  0.41592869038E+04  0.00000000000E+00 0. -1.
         24    2    1    2    0    0 -0.36374050621E+03 -0.10200872415E+03 -0.69008858395E+03  0.79072792724E+03  0.79469903521E+02 0.  0.
        254    2    1    2    0    0  0.36374050621E+03  0.10200872415E+03 -0.33491029789E+04  0.34886543174E+04  0.90083586037E+03 0.  0.
         23    2    4    4    0    0  0.61494630614E+03 -0.99971449961E+02 -0.24336644387E+04  0.25138226376E+04  0.91806332128E+02 0.  0.
         23    2    4    4    0    0 -0.25120579993E+03  0.20198017411E+03 -0.91543854018E+03  0.97483167982E+03  0.91480809406E+02 0.  0.
          2    1    3    3  502    0 -0.34488023621E+02  0.13414673053E+02 -0.60124355893E+02  0.70599684121E+02  0.00000000000E+00 0. -1.
         -1    1    3    3    0  502 -0.32925248259E+03 -0.11542339720E+03 -0.62996422805E+03  0.72012824312E+03  0.00000000000E+00 0.  1.
         11    1    5    5    0    0  0.65160064809E+02 -0.42085035566E+01 -0.16314938527E+03  0.17573066739E+03  0.00000000000E+00 0. -1.
        -11    1    5    5    0    0  0.54978624133E+03 -0.95762946404E+02 -0.22705150535E+04  0.23380919702E+04  0.00000000000E+00 0.  1.
          3    1    6    6  503    0 -0.98129264850E+01 -0.72490040105E+01 -0.69980296957E+02  0.71035790610E+02  0.00000000000E+00 0. -1.
         -3    1    6    6    0  503 -0.24139287345E+03  0.20922917812E+03 -0.84545824322E+03  0.90379588921E+03  0.00000000000E+00 0.  1.
<mgrwt>
<rscale>  0 0.14135218E+04</rscale>
<asrwt>0</asrwt>
<pdfrwt beam="1">  1        2 0.63989017E+00 0.14135218E+04</pdfrwt>
<pdfrwt beam="2">  1       -1 0.18476210E-01 0.14135218E+04</pdfrwt>
<totfact> 0.67267859E+00</totfact>
</mgrwt>
</event>
<event>
12    6  0.1542110E-007  0.1962282E+04  0.7818608E-02  0.8624461E-01
         -1   -1    0    0    0  501 -0.00000000000E+00  0.00000000000E+00  0.10001763792E+04  0.10001763792E+04  0.00000000000E+00 0.  1.
          2   -1    0    0  501    0  0.00000000000E+00 -0.00000000000E+00 -0.96246779408E+03  0.96246779408E+03  0.00000000000E+00 0. -1.
         24    2    1    2    0    0  0.39393326885E+03 -0.66122222723E+03 -0.58126648565E+02  0.77682397129E+03  0.87627170463E+02 0.  0.
        254    2    1    2    0    0 -0.39393326885E+03  0.66122222723E+03  0.95835233656E+02  0.11858202020E+04  0.89698768402E+03 0.  0.
         23    2    4    4    0    0 -0.52079412903E+03  0.68318354498E+03  0.31174786627E+03  0.91847950157E+03  0.91932484556E+02 0.  0.
         23    2    4    4    0    0  0.12686086018E+03 -0.21961317754E+02 -0.21591263261E+03  0.26734070039E+03  0.90976963235E+02 0.  0.
          2    1    3    3  502    0  0.35313259479E+03 -0.58824421387E+03 -0.79042000039E+02  0.69063848896E+03  0.00000000000E+00 0. -1.
         -1    1    3    3    0  502  0.40800674061E+02 -0.72978013354E+02  0.20915351474E+02  0.86185482329E+02  0.00000000000E+00 0.  1.
         11    1    5    5    0    0 -0.16544707127E+03  0.24372137594E+03  0.64195155881E+02  0.30148608678E+03  0.00000000000E+00 0.  1.
        -11    1    5    5    0    0 -0.35534705776E+03  0.43946216904E+03  0.24755271039E+03  0.61699341480E+03  0.00000000000E+00 0. -1.
          4    1    6    6  503    0 -0.12431344480E+02  0.78178089139E+01 -0.14389160231E+02  0.20559776117E+02  0.00000000000E+00 0.  1.
         -4    1    6    6    0  503  0.13929220466E+03 -0.29779126668E+02 -0.20152347238E+03  0.24678092427E+03  0.00000000000E+00 0. -1.
<mgrwt>
<rscale>  0 0.19622819E+04</rscale>
<asrwt>0</asrwt>
<pdfrwt beam="1">  1        2 0.14807197E+00 0.19622819E+04</pdfrwt>
<pdfrwt beam="2">  1       -1 0.15387329E+00 0.19622819E+04</pdfrwt>
<totfact> 0.92218369E+00</totfact>
</mgrwt>
</event>
<event>
12    6  0.1542110E-007  0.2475026E+04  0.7818608E-02  0.8411937E-01
         -1   -1    0    0    0  501 -0.00000000000E+00  0.00000000000E+00  0.23406644258E+04  0.23406644258E+04  0.00000000000E+00 0.  1.
          2   -1    0    0  501    0  0.00000000000E+00 -0.00000000000E+00 -0.65427515758E+03  0.65427515758E+03  0.00000000000E+00 0. -1.
         24    2    1    2    0    0 -0.39681445741E+03 -0.20054575198E+03 -0.44474376956E+03  0.63367361579E+03  0.77877586884E+02 0.  0.
        254    2    1    2    0    0  0.39681445741E+03  0.20054575198E+03  0.21311330378E+04  0.23612659676E+04  0.91442256796E+03 0.  0.
         23    2    4    4    0    0 -0.25487484368E+03  0.32510403045E+02  0.28588514357E+03  0.39502171915E+03  0.91069923900E+02 0.  0.
         23    2    4    4    0    0  0.65168930108E+03  0.16803534894E+03  0.18452478942E+04  0.19662442485E+04  0.90784524350E+02 0.  0.
          4    1    3    3  502    0 -0.36928475189E+03 -0.20537066562E+03 -0.42600519646E+03  0.60002397093E+03  0.00000000000E+00 0. -1.
         -3    1    3    3    0  502 -0.27529705515E+02  0.48249136404E+01 -0.18738573101E+02  0.33649644860E+02  0.00000000000E+00 0.  1.
         11    1    5    5    0    0 -0.41839488544E+02 -0.28557765535E+02  0.60974189096E+02  0.79271309500E+02  0.00000000000E+00 0.  1.
        -11    1    5    5    0    0 -0.21303535513E+03  0.61068168580E+02  0.22491095447E+03  0.31575040965E+03  0.00000000000E+00 0. -1.
          1    1    6    6  503    0  0.59993048710E+03  0.17040156101E+03  0.17501105734E+04  0.18579128883E+04  0.00000000000E+00 0. -1.
         -1    1    6    6    0  503  0.51758813985E+02 -0.23662120693E+01  0.95137320804E+02  0.10833136016E+03  0.00000000000E+00 0.  1.
<mgrwt>
<rscale>  0 0.24750261E+04</rscale>
<asrwt>0</asrwt>
<pdfrwt beam="1">  1        2 0.10065772E+00 0.24750261E+04</pdfrwt>
<pdfrwt beam="2">  1       -1 0.36010222E+00 0.24750261E+04</pdfrwt>
<totfact> 0.60547817E-01</totfact>
</mgrwt>
</event>
<event>
12    6  0.1542110E-007  0.2096058E+04  0.7818608E-02  0.8562982E-01
         -1   -1    0    0    0  501 -0.00000000000E+00  0.00000000000E+00  0.67419782805E+03  0.67419782805E+03  0.00000000000E+00 0.  1.
          2   -1    0    0  501    0  0.00000000000E+00 -0.00000000000E+00 -0.16291438360E+04  0.16291438360E+04  0.00000000000E+00 0. -1.
         24    2    1    2    0    0 -0.81294967634E+03  0.24465609913E+03 -0.29894091905E+03  0.90376158475E+03  0.81704013950E+02 0.  0.
        254    2    1    2    0    0  0.81294967634E+03 -0.24465609913E+03 -0.65600508887E+03  0.13995800793E+04  0.89874242059E+03 0.  0.
         23    2    4    4    0    0  0.21333835067E+03 -0.13090825702E+03  0.20845539208E+03  0.33786879245E+03  0.89729854582E+02 0.  0.
         23    2    4    4    0    0  0.59961132567E+03 -0.11374784212E+03 -0.86446048096E+03  0.10617112868E+04  0.86409605753E+02 0.  0.
          4    1    3    3  502    0 -0.31840541791E+02 -0.48707298705E+01 -0.18437156038E+02  0.37114321142E+02  0.00000000000E+00 0. -1.
         -3    1    3    3    0  502 -0.78110913455E+03  0.24952682900E+03 -0.28050376301E+03  0.86664726361E+03  0.00000000000E+00 0.  1.
         11    1    5    5    0    0  0.11762836974E+03 -0.12247708261E+03  0.13243602762E+03  0.21535173680E+03  0.00000000000E+00 0.  1.
        -11    1    5    5    0    0  0.95709980932E+02 -0.84311744061E+01  0.76019364465E+02  0.12251705565E+03  0.00000000000E+00 0. -1.
          3    1    6    6  503    0  0.20977886867E+03  0.18182955828E+01 -0.29252421815E+03  0.35997346867E+03  0.00000000000E+00 0. -1.
         -3    1    6    6    0  503  0.38983245699E+03 -0.11556613770E+03 -0.57193626281E+03  0.70173781815E+03  0.00000000000E+00 0.  1.
<mgrwt>
<rscale>  0 0.20960584E+04</rscale>
<asrwt>0</asrwt>
<pdfrwt beam="1">  1        2 0.25063751E+00 0.20960584E+04</pdfrwt>
<pdfrwt beam="2">  1       -1 0.10372274E+00 0.20960584E+04</pdfrwt>
<totfact> 0.98790918E+00</totfact>
</mgrwt>
</event>
<event>
12    6  0.1542110E-007  0.1783202E+04  0.7818608E-02  0.8715284E-01
         -1   -1    0    0    0  501 -0.00000000000E+00  0.00000000000E+00  0.35339215271E+03  0.35339215271E+03  0.00000000000E+00 0.  1.
          2   -1    0    0  501    0  0.00000000000E+00 -0.00000000000E+00 -0.22494918212E+04  0.22494918212E+04  0.00000000000E+00 0. -1.
         24    2    1    2    0    0  0.25601133350E+03 -0.57339855000E+03 -0.10246126041E+04  0.12043973721E+04  0.80089583535E+02 0.  0.
        254    2    1    2    0    0 -0.25601133350E+03  0.57339855000E+03 -0.87148706432E+03  0.13984866018E+04  0.89551514336E+03 0.  0.
         23    2    4    4    0    0 -0.35056200112E+03  0.89817459498E+02 -0.81248337409E+03  0.89386197000E+03  0.88876856212E+02 0.  0.
         23    2    4    4    0    0  0.94550667623E+02  0.48358109050E+03 -0.59003690222E+02  0.50462463175E+03  0.91510019510E+02 0.  0.
          4    1    3    3  502    0  0.98733033085E+02 -0.19823177583E+03 -0.29280087684E+03  0.36711905732E+03  0.00000000000E+00 0. -1.
         -3    1    3    3    0  502  0.15727830041E+03 -0.37516677418E+03 -0.73181172728E+03  0.83727831479E+03  0.00000000000E+00 0.  1.
         11    1    5    5    0    0 -0.15414382370E+03  0.16417238508E+02 -0.25714308777E+03  0.30025391204E+03  0.00000000000E+00 0. -1.
        -11    1    5    5    0    0 -0.19641817742E+03  0.73400220990E+02 -0.55534028632E+03  0.59360805796E+03  0.00000000000E+00 0.  1.
          3    1    6    6  503    0  0.38581277369E+02  0.15468543343E+03 -0.61814977450E+02  0.17098885845E+03  0.00000000000E+00 0. -1.
         -3    1    6    6    0  503  0.55969390254E+02  0.32889565708E+03  0.28112872272E+01  0.33363577330E+03  0.00000000000E+00 0.  1.
<mgrwt>
<rscale>  0 0.17832025E+04</rscale>
<asrwt>0</asrwt>
<pdfrwt beam="1">  1        2 0.34607567E+00 0.17832025E+04</pdfrwt>
<pdfrwt beam="2">  1       -1 0.54368023E-01 0.17832025E+04</pdfrwt>
<totfact> 0.17818825E+01</totfact>
</mgrwt>
</event>
<event>
12    6  0.1542110E-007  0.1298076E+04  0.7818608E-02  0.9031092E-01
         -1   -1    0    0    0  501 -0.00000000000E+00  0.00000000000E+00  0.46777776415E+03  0.46777776415E+03  0.00000000000E+00 0.  1.
          2   -1    0    0  501    0  0.00000000000E+00 -0.00000000000E+00 -0.90053554184E+03  0.90053554184E+03  0.00000000000E+00 0. -1.
         24    2    1    2    0    0  0.16184144996E+03 -0.14310229468E+03  0.14406348749E+03  0.27258504963E+03  0.82930086139E+02 0.  0.
        254    2    1    2    0    0 -0.16184144996E+03  0.14310229468E+03 -0.57682126518E+03  0.10957282564E+04  0.90621560247E+03 0.  0.
         23    2    4    4    0    0 -0.19795141789E+03  0.10884000676E+03  0.19807226293E+03  0.31363962035E+03  0.90034877645E+02 0.  0.
         23    2    4    4    0    0  0.36109967930E+02  0.34262287920E+02 -0.77489352812E+03  0.78208863601E+03  0.93406747629E+02 0.  0.
          2    1    3    3  502    0  0.10315106426E+02 -0.38948992635E+02  0.22042443450E+01  0.40352002936E+02  0.00000000000E+00 0. -1.
         -1    1    3    3    0  502  0.15152634353E+03 -0.10415330205E+03  0.14185924314E+03  0.23223304669E+03  0.00000000000E+00 0.  1.
         11    1    5    5    0    0  0.22398682649E+01  0.26680556875E+02  0.22797842065E+02  0.35165476363E+02  0.00000000000E+00 0. -1.
        -11    1    5    5    0    0 -0.20019128615E+03  0.82159449886E+02  0.17527442087E+03  0.27847414399E+03  0.00000000000E+00 0.  1.
          1    1    6    6  503    0 -0.28940165407E+02  0.65859120482E+01 -0.13068757267E+03  0.13401548068E+03  0.00000000000E+00 0. -1.
         -1    1    6    6    0  503  0.65050133337E+02  0.27676375872E+02 -0.64420595544E+03  0.64807315533E+03  0.00000000000E+00 0.  1.
<mgrwt>
<rscale>  0 0.12980763E+04</rscale>
<asrwt>0</asrwt>
<pdfrwt beam="1">  1        2 0.13854393E+00 0.12980763E+04</pdfrwt>
<pdfrwt beam="2">  1       -1 0.71965810E-01 0.12980763E+04</pdfrwt>
<totfact> 0.63882951E+01</totfact>
</mgrwt>
</event>
<event>
12    6  0.1542110E-007  0.1895306E+04  0.7818608E-02  0.8657196E-01
         -1   -1    0    0    0  501 -0.00000000000E+00  0.00000000000E+00  0.40766618684E+03  0.40766618684E+03  0.00000000000E+00 0.  1.
          2   -1    0    0  501    0  0.00000000000E+00 -0.00000000000E+00 -0.22028959843E+04  0.22028959843E+04  0.00000000000E+00 0. -1.
         24    2    1    2    0    0  0.29777088556E+03  0.33020865971E+03 -0.14529355915E+04  0.15215614964E+04  0.80139222481E+02 0.  0.
        254    2    1    2    0    0 -0.29777088556E+03 -0.33020865971E+03 -0.34229420589E+03  0.10890006747E+04  0.93330160551E+03 0.  0.
         23    2    4    4    0    0 -0.17543173190E+03  0.28371978987E+03  0.43324724791E+02  0.34851809293E+03  0.91184524982E+02 0.  0.
         23    2    4    4    0    0 -0.12233915367E+03 -0.61392844958E+03 -0.38561893068E+03  0.74048258176E+03  0.87962972119E+02 0.  0.
          4    1    3    3  502    0  0.14657763642E+03  0.22083457545E+03 -0.83355998115E+03  0.87468574665E+03  0.00000000000E+00 0. -1.
         -3    1    3    3    0  502  0.15119324915E+03  0.10937408425E+03 -0.61937561038E+03  0.64687574976E+03  0.00000000000E+00 0.  1.
         11    1    5    5    0    0 -0.11846362671E+03  0.14407574316E+03 -0.14288569871E+02  0.18707114649E+03  0.00000000000E+00 0. -1.
        -11    1    5    5    0    0 -0.56968105186E+02  0.13964404672E+03  0.57613294663E+02  0.16144694644E+03  0.00000000000E+00 0.  1.
          2    1    6    6  503    0 -0.12620401418E+03 -0.61524352204E+03 -0.38274826397E+03  0.73549186140E+03  0.00000000000E+00 0. -1.
         -2    1    6    6    0  503  0.38648605137E+01  0.13150724603E+01 -0.28706667113E+01  0.49907203622E+01  0.00000000000E+00 0.  1.
<mgrwt>
<rscale>  0 0.18953060E+04</rscale>
<asrwt>0</asrwt>
<pdfrwt beam="1">  1        2 0.33890707E+00 0.18953060E+04</pdfrwt>
<pdfrwt beam="2">  1       -1 0.62717875E-01 0.18953060E+04</pdfrwt>
<totfact> 0.14153159E+01</totfact>
</mgrwt>
</event>
<event>
12    6  0.1542110E-007  0.2668704E+04  0.7818608E-02  0.8345231E-01
          2   -1    0    0  501    0  0.00000000000E+00  0.00000000000E+00  0.20494053576E+04  0.20494053576E+04  0.00000000000E+00 0. -1.
         -1   -1    0    0    0  501 -0.00000000000E+00 -0.00000000000E+00 -0.86878635468E+03  0.86878635468E+03  0.00000000000E+00 0.  1.
         24    2    1    2    0    0  0.34327070662E+03 -0.11264707488E+04  0.59483864478E+03  0.13218853335E+04  0.82320688691E+02 0.  0.
        254    2    1    2    0    0 -0.34327070662E+03  0.11264707488E+04  0.58578035817E+03  0.15963063788E+04  0.90459068152E+03 0.  0.
         23    2    4    4    0    0  0.23683494848E+03  0.52233423122E+03  0.19137189083E+02  0.58104681284E+03  0.91243217713E+02 0.  0.
         23    2    4    4    0    0 -0.58010565511E+03  0.60413651754E+03  0.56664316909E+03  0.10152595659E+04  0.90354868482E+02 0.  0.
          4    1    3    3  502    0  0.17791244498E+03 -0.59303622371E+03  0.35859992886E+03  0.71549892361E+03  0.00000000000E+00 0. -1.
         -3    1    3    3    0  502  0.16535826164E+03 -0.53343452506E+03  0.23623871592E+03  0.60638640990E+03  0.00000000000E+00 0.  1.
         11    1    5    5    0    0 -0.16386977551E+01  0.22638578298E+02  0.15258329034E+02  0.27349719607E+02  0.00000000000E+00 0. -1.
        -11    1    5    5    0    0  0.23847364624E+03  0.49969565293E+03  0.38788600494E+01  0.55369709324E+03  0.00000000000E+00 0.  1.
          4    1    6    6  503    0 -0.32353503996E+02  0.96640852631E+01  0.28246234594E+02  0.44022647961E+02  0.00000000000E+00 0. -1.
         -4    1    6    6    0  503 -0.54775215111E+03  0.59447243228E+03  0.53839693450E+03  0.97123691799E+03  0.00000000000E+00 0.  1.
<mgrwt>
<rscale>  0 0.26687041E+04</rscale>
<asrwt>0</asrwt>
<pdfrwt beam="1">  1        2 0.31529313E+00 0.26687041E+04</pdfrwt>
<pdfrwt beam="2">  1       -1 0.13365944E+00 0.26687041E+04</pdfrwt>
<totfact> 0.29650861E+00</totfact>
</mgrwt>
</event>
<event>
12    6  0.1542110E-007  0.1548809E+04  0.7818608E-02  0.8852629E-01
          2   -1    0    0  501    0  0.00000000000E+00  0.00000000000E+00  0.13090551655E+04  0.13090551655E+04  0.00000000000E+00 0. -1.
         -1   -1    0    0    0  501 -0.00000000000E+00 -0.00000000000E+00 -0.45811843369E+03  0.45811843369E+03  0.00000000000E+00 0.  1.
         24    2    1    2    0    0  0.28514623433E+03  0.33023944695E+03 -0.19687075833E+02  0.44428528968E+03  0.81457782948E+02 0.  0.
        254    2    1    2    0    0 -0.28514623433E+03 -0.33023944695E+03  0.87062380764E+03  0.13228883095E+04  0.89536651586E+03 0.  0.
         23    2    4    4    0    0  0.11324026623E+03 -0.81429754565E+02 -0.13110251128E+03  0.21256928400E+03  0.92431970715E+02 0.  0.
         23    2    4    4    0    0 -0.39838650056E+03 -0.24880969238E+03  0.10017263189E+04  0.11103190255E+04  0.93459368331E+02 0.  0.
          2    1    3    3  502    0  0.35873500440E+02  0.92528723721E+02  0.61150907518E+00  0.99241355747E+02  0.00000000000E+00 0. -1.
         -1    1    3    3    0  502  0.24927273389E+03  0.23771072323E+03 -0.20298584908E+02  0.34504393394E+03  0.00000000000E+00 0.  1.
         11    1    5    5    0    0  0.11722586576E+03 -0.44532156355E+02 -0.12064421182E+03  0.17401161569E+03  0.00000000000E+00 0.  1.
        -11    1    5    5    0    0 -0.39855995263E+01 -0.36897598210E+02 -0.10458299467E+02  0.38557668303E+02  0.00000000000E+00 0. -1.
          1    1    6    6  503    0 -0.25757543302E+03 -0.14581736582E+03  0.72623350832E+03  0.78423396794E+03  0.00000000000E+00 0. -1.
         -1    1    6    6    0  503 -0.14081106754E+03 -0.10299232656E+03  0.27549281060E+03  0.32608505757E+03  0.00000000000E+00 0.  1.
<mgrwt>
<rscale>  0 0.15488090E+04</rscale>
<asrwt>0</asrwt>
<pdfrwt beam="1">  1        2 0.20139310E+00 0.15488090E+04</pdfrwt>
<pdfrwt beam="2">  1       -1 0.70479760E-01 0.15488090E+04</pdfrwt>
<totfact> 0.36462076E+01</totfact>
</mgrwt>
</event>
<event>
12    6  0.1542110E-007  0.2237528E+04  0.7818608E-02  0.8502969E-01
         -1   -1    0    0    0  501 -0.00000000000E+00  0.00000000000E+00  0.37253105895E+03  0.37253105895E+03  0.00000000000E+00 0.  1.
          2   -1    0    0  501    0  0.00000000000E+00 -0.00000000000E+00 -0.33598073252E+04  0.33598073252E+04  0.00000000000E+00 0. -1.
         24    2    1    2    0    0 -0.56476183905E+03 -0.41154103929E+03 -0.24389205032E+04  0.25383021776E+04  0.79515795167E+02 0.  0.
        254    2    1    2    0    0  0.56476183905E+03  0.41154103929E+03 -0.54835576305E+03  0.11940362066E+04  0.79793888110E+03 0.  0.
         23    2    4    4    0    0  0.71308333782E+03  0.15363174034E+03 -0.47147615295E+03  0.87324764913E+03  0.90449630189E+02 0.  0.
         23    2    4    4    0    0 -0.14832149876E+03  0.25790929895E+03 -0.76879610098E+02  0.32078855748E+03  0.92077959802E+02 0.  0.
          4    1    3    3  502    0 -0.55871196885E+03 -0.41206657510E+03 -0.24317482069E+04  0.25289043612E+04  0.00000000000E+00 0. -1.
         -3    1    3    3    0  502 -0.60498702012E+01  0.52553580621E+00 -0.71722963276E+01  0.93978163392E+01  0.00000000000E+00 0.  1.
         11    1    5    5    0    0  0.46243422214E+03  0.89471531968E+02 -0.25326370020E+03  0.53478319595E+03  0.00000000000E+00 0. -1.
        -11    1    5    5    0    0  0.25064911568E+03  0.64160208374E+02 -0.21821245275E+03  0.33846445318E+03  0.00000000000E+00 0.  1.
          2    1    6    6  503    0 -0.50056770446E+02  0.22297383274E+02 -0.23465800050E+01  0.54848518723E+02  0.00000000000E+00 0.  1.
         -2    1    6    6    0  503 -0.98264728318E+02  0.23561191567E+03 -0.74533030093E+02  0.26594003876E+03  0.00000000000E+00 0. -1.
<mgrwt>
<rscale>  0 0.22375277E+04</rscale>
<asrwt>0</asrwt>
<pdfrwt beam="1">  1        2 0.51689343E+00 0.22375277E+04</pdfrwt>
<pdfrwt beam="2">  1       -1 0.57312471E-01 0.22375277E+04</pdfrwt>
<totfact> 0.32534649E+00</totfact>
</mgrwt>
</event>
<event>
12    6  0.1542110E-007  0.1438792E+04  0.7818608E-02  0.8926208E-01
         -1   -1    0    0    0  501 -0.00000000000E+00  0.00000000000E+00  0.55113455530E+03  0.55113455530E+03  0.00000000000E+00 0.  1.
          2   -1    0    0  501    0  0.00000000000E+00 -0.00000000000E+00 -0.93902803482E+03  0.93902803482E+03  0.00000000000E+00 0. -1.
         24    2    1    2    0    0  0.19061603790E+03  0.87649600859E+02 -0.50089911762E+03  0.54937277303E+03  0.83027653681E+02 0.  0.
        254    2    1    2    0    0 -0.19061603790E+03 -0.87649600859E+02  0.11300563810E+03  0.94078981709E+03  0.91010893813E+03 0.  0.
         23    2    4    4    0    0 -0.15706293257E+03 -0.45641568788E+03 -0.10428969821E+03  0.50215216604E+03  0.91084640709E+02 0.  0.
         23    2    4    4    0    0 -0.33553105327E+02  0.36876608702E+03  0.21729533631E+03  0.43863765105E+03  0.89841459940E+02 0.  0.
          4    1    3    3  502    0  0.13400747331E+03  0.62573630361E+02 -0.43262285959E+03  0.45720455024E+03  0.00000000000E+00 0. -1.
         -3    1    3    3    0  502  0.56608564589E+02  0.25075970498E+02 -0.68276258029E+02  0.92168222787E+02  0.00000000000E+00 0.  1.
         11    1    5    5    0    0 -0.14446824006E+02 -0.37791294646E+02 -0.36972366955E+02  0.54807377178E+02  0.00000000000E+00 0. -1.
        -11    1    5    5    0    0 -0.14261610856E+03 -0.41862439323E+03 -0.67317331254E+02  0.44734478886E+03  0.00000000000E+00 0.  1.
          4    1    6    6  503    0 -0.25766559300E+02  0.89102821186E+02  0.96664571867E+02  0.13396741311E+03  0.00000000000E+00 0. -1.
         -4    1    6    6    0  503 -0.77865460271E+01  0.27966326584E+03  0.12063076444E+03  0.30467023794E+03  0.00000000000E+00 0.  1.
<mgrwt>
<rscale>  0 0.14387923E+04</rscale>
<asrwt>0</asrwt>
<pdfrwt beam="1">  1        2 0.14446585E+00 0.14387923E+04</pdfrwt>
<pdfrwt beam="2">  1       -1 0.84789933E-01 0.14387923E+04</pdfrwt>
<totfact> 0.42100352E+01</totfact>
</mgrwt>
</event>
<event>
12    6  0.1542110E-007  0.1616018E+04  0.7818608E-02  0.8810767E-01
         -1   -1    0    0    0  501 -0.00000000000E+00  0.00000000000E+00  0.27869597306E+03  0.27869597306E+03  0.00000000000E+00 0.  1.
          2   -1    0    0  501    0  0.00000000000E+00 -0.00000000000E+00 -0.23426196594E+04  0.23426196594E+04  0.00000000000E+00 0. -1.
         24    2    1    2    0    0  0.34156042485E+03 -0.20433765921E+03 -0.94117500051E+02  0.41664552541E+03  0.79485767502E+02 0.  0.
        254    2    1    2    0    0 -0.34156042485E+03  0.20433765921E+03 -0.19698061863E+04  0.22046701071E+04  0.90665123754E+03 0.  0.
         23    2    4    4    0    0 -0.20752384393E+03  0.28632858805E+02 -0.71276265545E+01  0.22761107390E+03  0.88713085272E+02 0.  0.
         23    2    4    4    0    0 -0.13403658092E+03  0.17570480041E+03 -0.19626785598E+04  0.19770590332E+04  0.88415551677E+02 0.  0.
          2    1    3    3  502    0  0.64333649335E+02 -0.30126348166E+02 -0.48609919199E+02  0.86077520498E+02  0.00000000000E+00 0. -1.
         -1    1    3    3    0  502  0.27722677551E+03 -0.17421131105E+03 -0.45507580852E+02  0.33056800491E+03  0.00000000000E+00 0.  1.
         11    1    5    5    0    0 -0.18512587914E+03  0.54711559135E+02 -0.82286089215E+01  0.19321660342E+03  0.00000000000E+00 0.  1.
        -11    1    5    5    0    0 -0.22397964784E+02 -0.26078700330E+02  0.11009823670E+01  0.34394470479E+02  0.00000000000E+00 0. -1.
          4    1    6    6  503    0 -0.31268753440E+02  0.14354561268E+02 -0.13191533802E+03  0.13632844449E+03  0.00000000000E+00 0. -1.
         -4    1    6    6    0  503 -0.10276782748E+03  0.16135023914E+03 -0.18307632217E+04  0.18407305887E+04  0.00000000000E+00 0.  1.
<mgrwt>
<rscale>  0 0.16160182E+04</rscale>
<asrwt>0</asrwt>
<pdfrwt beam="1">  1        2 0.36040301E+00 0.16160182E+04</pdfrwt>
<pdfrwt beam="2">  1       -1 0.42876305E-01 0.16160182E+04</pdfrwt>
<totfact> 0.25092448E+01</totfact>
</mgrwt>
</event>
<event>
12    6  0.1542110E-007  0.2108113E+04  0.7818608E-02  0.8557678E-01
         -1   -1    0    0    0  501 -0.00000000000E+00  0.00000000000E+00  0.74065011046E+03  0.74065011046E+03  0.00000000000E+00 0.  1.
          2   -1    0    0  501    0  0.00000000000E+00 -0.00000000000E+00 -0.15000809945E+04  0.15000809945E+04  0.00000000000E+00 0. -1.
         24    2    1    2    0    0 -0.65850371256E+03 -0.55822790314E+03 -0.21996957428E+03  0.89437501396E+03  0.79211872130E+02 0.  0.
        254    2    1    2    0    0  0.65850371256E+03  0.55822790314E+03 -0.53946130977E+03  0.13463560910E+04  0.88114169563E+03 0.  0.
         23    2    4    4    0    0  0.25036830177E+02  0.56088502221E+03 -0.12215432279E+03  0.58196478793E+03  0.92425563606E+02 0.  0.
         23    2    4    4    0    0  0.63346688238E+03 -0.26571190681E+01 -0.41730698698E+03  0.76439130309E+03  0.94136026593E+02 0.  0.
          2    1    3    3  502    0 -0.60770667726E+03 -0.49717223548E+03 -0.18033251603E+03  0.80560998856E+03  0.00000000000E+00 0. -1.
         -1    1    3    3    0  502 -0.50797035296E+02 -0.61055667656E+02 -0.39637058248E+02  0.88765025400E+02  0.00000000000E+00 0.  1.
         11    1    5    5    0    0 -0.26951633453E+01  0.30816800639E+03 -0.11074781712E+03  0.32747498082E+03  0.00000000000E+00 0. -1.
        -11    1    5    5    0    0  0.27731993522E+02  0.25271701582E+03 -0.11406505672E+02  0.25448980710E+03  0.00000000000E+00 0.  1.
          2    1    6    6  503    0  0.94598599789E+02  0.99247694808E+00 -0.25048602493E+02  0.97863744970E+02  0.00000000000E+00 0. -1.
         -2    1    6    6    0  503  0.53886828259E+03 -0.36495960162E+01 -0.39225838448E+03  0.66652755812E+03  0.00000000000E+00 0.  1.
<mgrwt>
<rscale>  0 0.21081130E+04</rscale>
<asrwt>0</asrwt>
<pdfrwt beam="1">  1        2 0.23078169E+00 0.21081130E+04</pdfrwt>
<pdfrwt beam="2">  1       -1 0.11394617E+00 0.21081130E+04</pdfrwt>
<totfact> 0.93453880E+00</totfact>
</mgrwt>
</event>
<event>
12    6  0.1542110E-007  0.2781695E+04  0.7818608E-02  0.8308974E-01
          2   -1    0    0  501    0  0.00000000000E+00  0.00000000000E+00  0.26860136580E+04  0.26860136580E+04  0.00000000000E+00 0. -1.
         -1   -1    0    0    0  501 -0.00000000000E+00 -0.00000000000E+00 -0.72019626433E+03  0.72019626433E+03  0.00000000000E+00 0.  1.
         24    2    1    2    0    0 -0.90335859600E+03  0.82617112578E+03  0.63966739155E+03  0.13835782712E+04  0.80616243413E+02 0.  0.
        254    2    1    2    0    0  0.90335859600E+03 -0.82617112578E+03  0.13261500022E+04  0.20226316511E+04  0.91309883692E+03 0.  0.
         23    2    4    4    0    0  0.15852162820E+03  0.17197448525E+03  0.90562110980E+02  0.26605946414E+03  0.88779571580E+02 0.  0.
         23    2    4    4    0    0  0.74483696780E+03 -0.99814561103E+03  0.12355878912E+04  0.17565721870E+04  0.88270277841E+02 0.  0.
          2    1    3    3  502    0 -0.36505465990E+03  0.34731881145E+03  0.30680438314E+03  0.58993575160E+03  0.00000000000E+00 0. -1.
         -1    1    3    3    0  502 -0.53830393610E+03  0.47885231433E+03  0.33286300841E+03  0.79364251961E+03  0.00000000000E+00 0.  1.
         11    1    5    5    0    0  0.53973235276E+02  0.27385304347E+02 -0.98479057310E+01  0.61319216137E+02  0.00000000000E+00 0. -1.
        -11    1    5    5    0    0  0.10454839292E+03  0.14458918090E+03  0.10041001671E+03  0.20474024800E+03  0.00000000000E+00 0.  1.
          1    1    6    6  503    0  0.13951550101E+03 -0.24679640242E+03  0.29364522055E+03  0.40816731229E+03  0.00000000000E+00 0. -1.
         -1    1    6    6    0  503  0.60532146679E+03 -0.75134920861E+03  0.94194267062E+03  0.13484048747E+04  0.00000000000E+00 0.  1.
<mgrwt>
<rscale>  0 0.27816952E+04</rscale>
<asrwt>0</asrwt>
<pdfrwt beam="1">  1        2 0.41323286E+00 0.27816952E+04</pdfrwt>
<pdfrwt beam="2">  1       -1 0.11079943E+00 0.27816952E+04</pdfrwt>
<totfact> 0.20109907E+00</totfact>
</mgrwt>
</event>
<event>
12    6  0.1542110E-007  0.2335326E+04  0.7818608E-02  0.8464121E-01
         -1   -1    0    0    0  501 -0.00000000000E+00  0.00000000000E+00  0.14914779340E+04  0.14914779340E+04  0.00000000000E+00 0.  1.
          2   -1    0    0  501    0  0.00000000000E+00 -0.00000000000E+00 -0.91415192687E+03  0.91415192687E+03  0.00000000000E+00 0. -1.
         24    2    1    2    0    0 -0.34187096970E+03 -0.61663828615E+03  0.96369034580E+03  0.11967977198E+04  0.80666992440E+02 0.  0.
        254    2    1    2    0    0  0.34187096970E+03  0.61663828615E+03 -0.38636433862E+03  0.12088321411E+04  0.90270660092E+03 0.  0.
         23    2    4    4    0    0  0.12145842904E+03 -0.16092336366E+03 -0.32716613197E+03  0.39335430712E+03  0.83913372415E+02 0.  0.
         23    2    4    4    0    0  0.22041254066E+03  0.77756164981E+03 -0.59198206659E+02  0.81547783399E+03  0.91191352167E+02 0.  0.
          2    1    3    3  502    0 -0.14258164149E+03 -0.30080738964E+03  0.39665275167E+03  0.51783010299E+03  0.00000000000E+00 0. -1.
         -1    1    3    3    0  502 -0.19928932821E+03 -0.31583089651E+03  0.56703759413E+03  0.67896761682E+03  0.00000000000E+00 0.  1.
         11    1    5    5    0    0  0.78588344670E+02 -0.46851035514E+02 -0.99820366254E+02  0.13540772860E+03  0.00000000000E+00 0.  1.
        -11    1    5    5    0    0  0.42870084374E+02 -0.11407232815E+03 -0.22734576571E+03  0.25794657852E+03  0.00000000000E+00 0. -1.
          3    1    6    6  503    0  0.21909114168E+03  0.69251651118E+03 -0.35643293879E+02  0.72722107438E+03  0.00000000000E+00 0. -1.
         -3    1    6    6    0  503  0.13213989759E+01  0.85045138635E+02 -0.23554912779E+02  0.88256759609E+02  0.00000000000E+00 0.  1.
<mgrwt>
<rscale>  0 0.23353265E+04</rscale>
<asrwt>0</asrwt>
<pdfrwt beam="1">  1        2 0.14063876E+00 0.23353265E+04</pdfrwt>
<pdfrwt beam="2">  1       -1 0.22945814E+00 0.23353265E+04</pdfrwt>
<totfact> 0.28145227E+00</totfact>
</mgrwt>
</event>
<event>
12    6  0.1542110E-007  0.3009241E+04  0.7818608E-02  0.8241097E-01
         -1   -1    0    0    0  501 -0.00000000000E+00  0.00000000000E+00  0.18048817155E+04  0.18048817155E+04  0.00000000000E+00 0.  1.
          2   -1    0    0  501    0  0.00000000000E+00 -0.00000000000E+00 -0.12543105686E+04  0.12543105686E+04  0.00000000000E+00 0. -1.
         24    2    1    2    0    0 -0.32580463789E+03 -0.15928813954E+03  0.15959555399E+04  0.16385903917E+04  0.79893759581E+02 0.  0.
        254    2    1    2    0    0  0.32580463789E+03  0.15928813954E+03 -0.10453843930E+04  0.14206018925E+04  0.89093200313E+03 0.  0.
         23    2    4    4    0    0  0.14141270077E+03  0.51866934833E+03 -0.54106609554E+03  0.76804645516E+03  0.90152053265E+02 0.  0.
         23    2    4    4    0    0  0.18439193712E+03 -0.35938120879E+03 -0.50431829748E+03  0.65255543729E+03  0.91303964092E+02 0.  0.
          4    1    3    3  502    0 -0.17111839109E+03 -0.11449810131E+03  0.10183570834E+04  0.10389622073E+04  0.00000000000E+00 0. -1.
         -3    1    3    3    0  502 -0.15468624680E+03 -0.44790038231E+02  0.57759845657E+03  0.59962818438E+03  0.00000000000E+00 0.  1.
         11    1    5    5    0    0  0.87013005197E+02  0.29798101379E+03 -0.37350724700E+03  0.48566615202E+03  0.00000000000E+00 0. -1.
        -11    1    5    5    0    0  0.54399695569E+02  0.22068833454E+03 -0.16755884854E+03  0.28238030314E+03  0.00000000000E+00 0.  1.
          1    1    6    6  503    0  0.15099151699E+03 -0.30663744877E+03 -0.36588638506E+03  0.50069732371E+03  0.00000000000E+00 0. -1.
         -1    1    6    6    0  503  0.33400420132E+02 -0.52743760012E+02 -0.13843191242E+03  0.15185811358E+03  0.00000000000E+00 0.  1.
<mgrwt>
<rscale>  0 0.30092406E+04</rscale>
<asrwt>0</asrwt>
<pdfrwt beam="1">  1        2 0.19297086E+00 0.30092406E+04</pdfrwt>
<pdfrwt beam="2">  1       -1 0.27767411E+00 0.30092406E+04</pdfrwt>
<totfact> 0.78944014E-01</totfact>
</mgrwt>
</event>
<event>
12    6  0.2359927E-007  0.2206541E+04  0.7818608E-02  0.8515710E-01
          2   -1    0    0  501    0  0.00000000000E+00  0.00000000000E+00  0.25706297561E+04  0.25706297561E+04  0.00000000000E+00 0. -1.
         -1   -1    0    0    0  501 -0.00000000000E+00 -0.00000000000E+00 -0.47350499601E+03  0.47350499601E+03  0.00000000000E+00 0.  1.
         24    2    1    2    0    0  0.15261425629E+03 -0.16378899856E+03 -0.35241827658E+03  0.42533770653E+03  0.81213149509E+02 0.  0.
        254    2    1    2    0    0 -0.15261425629E+03  0.16378899856E+03  0.24495430367E+04  0.26187970456E+04  0.89873184556E+03 0.  0.
         23    2    4    4    0    0  0.33445314994E+03  0.17834208472E+03  0.70979650871E+03  0.80982704208E+03  0.91345200345E+02 0.  0.
         23    2    4    4    0    0 -0.48706740624E+03 -0.14553086162E+02  0.17397465280E+04  0.18089700035E+04  0.90598242250E+02 0.  0.
          2    1    3    3  502    0  0.42386107925E+02 -0.17832937591E+02 -0.30792415513E+02  0.55342286376E+02  0.00000000000E+00 0. -1.
         -1    1    3    3    0  502  0.11022814837E+03 -0.14595606097E+03 -0.32162586107E+03  0.36999542015E+03  0.00000000000E+00 0.  1.
         11    1    5    5    0    0  0.24527121779E+03  0.89251548658E+02  0.52245559723E+03  0.58402368128E+03  0.00000000000E+00 0.  1.
        -11    1    5    5    0    0  0.89181932154E+02  0.89090536062E+02  0.18734091147E+03  0.22580336080E+03  0.00000000000E+00 0. -1.
          1    1    6    6  503    0 -0.39420707071E+02 -0.19701081448E+02  0.23271589342E+03  0.23685187736E+03  0.00000000000E+00 0. -1.
         -1    1    6    6    0  503 -0.44764669917E+03  0.51479952865E+01  0.15070306346E+04  0.15721181262E+04  0.00000000000E+00 0.  1.
<mgrwt>
<rscale>  0 0.22065412E+04</rscale>
<asrwt>0</asrwt>
<pdfrwt beam="1">  1        2 0.39548149E+00 0.22065412E+04</pdfrwt>
<pdfrwt beam="2">  1       -1 0.72846924E-01 0.22065412E+04</pdfrwt>
<totfact> 0.62551083E+00</totfact>
</mgrwt>
</event>
<event>
12    6  0.1542110E-007  0.1624060E+04  0.7818608E-02  0.8805902E-01
          2   -1    0    0  501    0  0.00000000000E+00  0.00000000000E+00  0.83491211395E+03  0.83491211395E+03  0.00000000000E+00 0. -1.
         -1   -1    0    0    0  501 -0.00000000000E+00 -0.00000000000E+00 -0.78977456911E+03  0.78977456911E+03  0.00000000000E+00 0.  1.
         24    2    1    2    0    0  0.52898279398E+03  0.11203711397E+02  0.20040909290E+03  0.57158636927E+03  0.81233327780E+02 0.  0.
        254    2    1    2    0    0 -0.52898279398E+03 -0.11203711397E+02 -0.15527154806E+03  0.10531003138E+04  0.89719713430E+03 0.  0.
         23    2    4    4    0    0 -0.52679243390E+03  0.19311959534E+03 -0.41990030587E+03  0.70667517180E+03  0.90929011011E+02 0.  0.
         23    2    4    4    0    0 -0.21903600819E+01 -0.20432330674E+03  0.26462875781E+03  0.34642514200E+03  0.90714873049E+02 0.  0.
          4    1    3    3  502    0  0.44134205351E+03  0.32952080898E+01  0.13369651339E+03  0.46115986847E+03  0.00000000000E+00 0. -1.
         -3    1    3    3    0  502  0.87640740466E+02  0.79085033075E+01  0.66712579504E+02  0.11042650080E+03  0.00000000000E+00 0.  1.
         11    1    5    5    0    0 -0.49251158109E+03  0.19765748156E+03 -0.37414770193E+03  0.64932475726E+03  0.00000000000E+00 0.  1.
        -11    1    5    5    0    0 -0.34280852801E+02 -0.45378862141E+01 -0.45752603941E+02  0.57350414536E+02  0.00000000000E+00 0. -1.
          4    1    6    6  503    0  0.26112783099E+02 -0.17895656932E+02  0.19573360453E+02  0.37218925530E+02  0.00000000000E+00 0. -1.
         -4    1    6    6    0  503 -0.28303143181E+02 -0.18642764981E+03  0.24505539736E+03  0.30920621647E+03  0.00000000000E+00 0.  1.
<mgrwt>
<rscale>  0 0.16240595E+04</rscale>
<asrwt>0</asrwt>
<pdfrwt beam="1">  1        2 0.12844802E+00 0.16240595E+04</pdfrwt>
<pdfrwt beam="2">  1       -1 0.12150378E+00 0.16240595E+04</pdfrwt>
<totfact> 0.21340267E+01</totfact>
</mgrwt>
</event>
<event>
12    6  0.1542110E-007  0.1969643E+04  0.7818608E-02  0.8620947E-01
          2   -1    0    0  501    0  0.00000000000E+00  0.00000000000E+00  0.14225542855E+04  0.14225542855E+04  0.00000000000E+00 0. -1.
         -1   -1    0    0    0  501 -0.00000000000E+00 -0.00000000000E+00 -0.68178292844E+03  0.68178292844E+03  0.00000000000E+00 0.  1.
         24    2    1    2    0    0  0.28034796708E+03 -0.11682007480E+03  0.10569982122E+04  0.11026765141E+04  0.80052243223E+02 0.  0.
        254    2    1    2    0    0 -0.28034796708E+03  0.11682007480E+03 -0.31622685515E+03  0.10016606998E+04  0.90060136638E+03 0.  0.
         23    2    4    4    0    0 -0.40551669905E+03  0.42472930406E+03 -0.12266800607E+03  0.60630737329E+03  0.87877279524E+02 0.  0.
         23    2    4    4    0    0  0.12516873196E+03 -0.30790922927E+03 -0.19355884908E+03  0.39535332653E+03  0.91454468508E+02 0.  0.
          4    1    3    3  502    0  0.22502392000E+03 -0.90955063242E+02  0.70984472004E+03  0.75019205186E+03  0.00000000000E+00 0. -1.
         -3    1    3    3    0  502  0.55324047087E+02 -0.25865011554E+02  0.34715349217E+03  0.35248446226E+03  0.00000000000E+00 0.  1.
         11    1    5    5    0    0 -0.28201799998E+02  0.53124407619E+02  0.84468505678E+01  0.60736261759E+02  0.00000000000E+00 0.  1.
        -11    1    5    5    0    0 -0.37731489905E+03  0.37160489644E+03 -0.13111485664E+03  0.54557111153E+03  0.00000000000E+00 0. -1.
          1    1    6    6  503    0  0.11086085495E+03 -0.23762518603E+03 -0.10768142016E+03  0.28346277789E+03  0.00000000000E+00 0. -1.
         -1    1    6    6    0  503  0.14307877011E+02 -0.70284043232E+02 -0.85877428920E+02  0.11189054864E+03  0.00000000000E+00 0.  1.
<mgrwt>
<rscale>  0 0.19696428E+04</rscale>
<asrwt>0</asrwt>
<pdfrwt beam="1">  1        2 0.21885451E+00 0.19696428E+04</pdfrwt>
<pdfrwt beam="2">  1       -1 0.10488968E+00 0.19696428E+04</pdfrwt>
<totfact> 0.12724287E+01</totfact>
</mgrwt>
</event>
<event>
12    6  0.1542110E-007  0.1936094E+04  0.7818608E-02  0.8637096E-01
          2   -1    0    0  501    0  0.00000000000E+00  0.00000000000E+00  0.20953032494E+04  0.20953032494E+04  0.00000000000E+00 0. -1.
         -1   -1    0    0    0  501 -0.00000000000E+00 -0.00000000000E+00 -0.44724530305E+03  0.44724530305E+03  0.00000000000E+00 0.  1.
         24    2    1    2    0    0  0.40158139132E+03  0.17386519716E+03 -0.16179448198E+03  0.47337912280E+03  0.80085072635E+02 0.  0.
        254    2    1    2    0    0 -0.40158139132E+03 -0.17386519716E+03  0.18098524284E+04  0.20691694297E+04  0.90244090979E+03 0.  0.
         23    2    4    4    0    0  0.26251612226E+03 -0.18183778025E+03  0.58450418368E+03  0.67248452686E+03  0.92793347548E+02 0.  0.
         23    2    4    4    0    0 -0.66409751359E+03  0.79725830955E+01  0.12253482447E+04  0.13966849028E+04  0.90340065411E+02 0.  0.
          4    1    3    3  502    0  0.15934464084E+02  0.14847866130E+02  0.77186754258E+01  0.23107233166E+02  0.00000000000E+00 0. -1.
         -3    1    3    3    0  502  0.38564692724E+03  0.15901733103E+03 -0.16951315740E+03  0.45027188963E+03  0.00000000000E+00 0.  1.
         11    1    5    5    0    0  0.24857929879E+02 -0.44213836441E+02  0.15118339611E+03  0.15946535445E+03  0.00000000000E+00 0. -1.
        -11    1    5    5    0    0  0.23765819238E+03 -0.13762394381E+03  0.43332078757E+03  0.51301917241E+03  0.00000000000E+00 0.  1.
          2    1    6    6  503    0 -0.35894116398E+03  0.48646942102E+02  0.67864639521E+03  0.76926342296E+03  0.00000000000E+00 0. -1.
         -2    1    6    6    0  503 -0.30515634960E+03 -0.40674359006E+02  0.54670184947E+03  0.62742147986E+03  0.00000000000E+00 0.  1.
<mgrwt>
<rscale>  0 0.19360935E+04</rscale>
<asrwt>0</asrwt>
<pdfrwt beam="1">  1        2 0.32235434E+00 0.19360935E+04</pdfrwt>
<pdfrwt beam="2">  1       -1 0.68806971E-01 0.19360935E+04</pdfrwt>
<totfact> 0.13434630E+01</totfact>
</mgrwt>
</event>
<event>
12    6  0.1542110E-007  0.1148049E+04  0.7818608E-02  0.9159585E-01
          2   -1    0    0  501    0  0.00000000000E+00  0.00000000000E+00  0.22205330967E+04  0.22205330967E+04  0.00000000000E+00 0. -1.
         -1   -1    0    0    0  501 -0.00000000000E+00 -0.00000000000E+00 -0.14838970646E+03  0.14838970646E+03  0.00000000000E+00 0.  1.
         24    2    1    2    0    0 -0.18915584375E+01 -0.21283966105E+03  0.40280975091E+03  0.46289186945E+03  0.81907802259E+02 0.  0.
        254    2    1    2    0    0  0.18915584375E+01  0.21283966105E+03  0.16693336393E+04  0.19060309337E+04  0.89497196688E+03 0.  0.
         23    2    4    4    0    0  0.23756516179E+03  0.48320671606E+03  0.91024938659E+03  0.10614706964E+04  0.90775310299E+02 0.  0.
         23    2    4    4    0    0 -0.23567360336E+03 -0.27036705501E+03  0.75908425275E+03  0.84456023732E+03  0.91829733369E+02 0.  0.
          2    1    3    3  502    0  0.25609738773E+02 -0.28801599536E+02  0.10362249790E+03  0.11055773571E+03  0.00000000000E+00 0. -1.
         -1    1    3    3    0  502 -0.27501297210E+02 -0.18403806151E+03  0.29918725301E+03  0.35233413374E+03  0.00000000000E+00 0.  1.
         11    1    5    5    0    0  0.11481489176E+02  0.10293235848E+03  0.17940364607E+03  0.20715347750E+03  0.00000000000E+00 0.  1.
        -11    1    5    5    0    0  0.22608367262E+03  0.38027435758E+03  0.73084574052E+03  0.85431721889E+03  0.00000000000E+00 0. -1.
          1    1    6    6  503    0 -0.24212188554E+03 -0.26109674979E+03  0.74935346370E+03  0.82965362277E+03  0.00000000000E+00 0. -1.
         -1    1    6    6    0  503  0.64482821792E+01 -0.92703052188E+01  0.97307890526E+01  0.14906614555E+02  0.00000000000E+00 0.  1.
<mgrwt>
<rscale>  0 0.11480492E+04</rscale>
<asrwt>0</asrwt>
<pdfrwt beam="1">  1        2 0.34162045E+00 0.11480492E+04</pdfrwt>
<pdfrwt beam="2">  1       -1 0.22829187E-01 0.11480492E+04</pdfrwt>
<totfact> 0.93121745E+01</totfact>
</mgrwt>
</event>
<event>
12    6  0.1542110E-007  0.1803442E+04  0.7818608E-02  0.8704471E-01
         -1   -1    0    0    0  501 -0.00000000000E+00  0.00000000000E+00  0.47737124877E+03  0.47737124877E+03  0.00000000000E+00 0.  1.
          2   -1    0    0  501    0  0.00000000000E+00 -0.00000000000E+00 -0.17032882149E+04  0.17032882149E+04  0.00000000000E+00 0. -1.
         24    2    1    2    0    0 -0.20822756939E+02  0.66727975658E+03 -0.34949152459E+03  0.75771925645E+03  0.79361735710E+02 0.  0.
        254    2    1    2    0    0  0.20822756939E+02 -0.66727975658E+03 -0.87642544158E+03  0.14229402073E+04  0.90052285814E+03 0.  0.
         23    2    4    4    0    0  0.56964947630E+02 -0.82872273317E+03 -0.90624123335E+03  0.12326481881E+04  0.90122188612E+02 0.  0.
         23    2    4    4    0    0 -0.36142190691E+02  0.16144297659E+03  0.29815791774E+02  0.19029201915E+03  0.89173866549E+02 0.  0.
          2    1    3    3  502    0 -0.10347557065E+02  0.54663345553E+03 -0.25086490037E+03  0.60153836526E+03  0.00000000000E+00 0. -1.
         -1    1    3    3    0  502 -0.10475199874E+02  0.12064630105E+03 -0.98626624221E+02  0.15618089119E+03  0.00000000000E+00 0.  1.
         11    1    5    5    0    0  0.12959173993E+02 -0.10036796462E+03 -0.71325607454E+02  0.12381038240E+03  0.00000000000E+00 0. -1.
        -11    1    5    5    0    0  0.44005773638E+02 -0.72835476855E+03 -0.83491562590E+03  0.11088378057E+04  0.00000000000E+00 0.  1.
          1    1    6    6  503    0  0.31986510287E-01 -0.49380085618E+01 -0.13690263040E+02  0.14553633698E+02  0.00000000000E+00 0. -1.
         -1    1    6    6    0  503 -0.36174177201E+02  0.16638098515E+03  0.43506054814E+02  0.17573838546E+03  0.00000000000E+00 0.  1.
<mgrwt>
<rscale>  0 0.18034421E+04</rscale>
<asrwt>0</asrwt>
<pdfrwt beam="1">  1        2 0.26204434E+00 0.18034421E+04</pdfrwt>
<pdfrwt beam="2">  1       -1 0.73441732E-01 0.18034421E+04</pdfrwt>
<totfact> 0.19611866E+01</totfact>
</mgrwt>
</event>
<event>
12    6  0.1542110E-007  0.1313081E+04  0.7818608E-02  0.9019256E-01
          2   -1    0    0  501    0  0.00000000000E+00  0.00000000000E+00  0.34279972441E+04  0.34279972441E+04  0.00000000000E+00 0. -1.
         -1   -1    0    0    0  501 -0.00000000000E+00 -0.00000000000E+00 -0.12574254584E+03  0.12574254584E+03  0.00000000000E+00 0.  1.
         24    2    1    2    0    0 -0.28753973337E+03 -0.10188376838E+03  0.48924854591E+03  0.58198972147E+03  0.79300035921E+02 0.  0.
        254    2    1    2    0    0  0.28753973337E+03  0.10188376838E+03  0.28130061524E+04  0.29717500685E+04  0.90842471114E+03 0.  0.
         23    2    4    4    0    0 -0.26732833441E+03 -0.17614966740E+03  0.97688752941E+03  0.10313377971E+04  0.82796515022E+02 0.  0.
         23    2    4    4    0    0  0.55486806778E+03  0.27803343578E+03  0.18361186230E+04  0.19404122714E+04  0.93204191775E+02 0.  0.
          2    1    3    3  502    0 -0.23984167699E+03 -0.81123336797E+02  0.45174651144E+03  0.51786092379E+03  0.00000000000E+00 0. -1.
         -1    1    3    3    0  502 -0.47698056389E+02 -0.20760431582E+02  0.37502034473E+02  0.64128797684E+02  0.00000000000E+00 0.  1.
         11    1    5    5    0    0 -0.38712097860E+02 -0.65564976575E+02  0.20049813007E+03  0.21446886216E+03  0.00000000000E+00 0.  1.
        -11    1    5    5    0    0 -0.22861623655E+03 -0.11058469082E+03  0.77638939934E+03  0.81686893493E+03  0.00000000000E+00 0. -1.
          4    1    6    6  503    0  0.54518250182E+03  0.27785687830E+03  0.18282462611E+04  0.19279296658E+04  0.00000000000E+00 0. -1.
         -4    1    6    6    0  503  0.96855659607E+01  0.17655747159E+00  0.78723618165E+01  0.12482605541E+02  0.00000000000E+00 0.  1.
<mgrwt>
<rscale>  0 0.13130805E+04</rscale>
<asrwt>0</asrwt>
<pdfrwt beam="1">  1        2 0.52738412E+00 0.13130805E+04</pdfrwt>
<pdfrwt beam="2">  1       -1 0.19345010E-01 0.13130805E+04</pdfrwt>
<totfact> 0.22420912E+01</totfact>
</mgrwt>
</event>
<event>
12    6  0.1542110E-007  0.1560429E+04  0.7818608E-02  0.8845233E-01
         -1   -1    0    0    0  501 -0.00000000000E+00  0.00000000000E+00  0.44075299734E+03  0.44075299734E+03  0.00000000000E+00 0.  1.
          2   -1    0    0  501    0  0.00000000000E+00 -0.00000000000E+00 -0.13811248096E+04  0.13811248096E+04  0.00000000000E+00 0. -1.
         24    2    1    2    0    0 -0.23315804661E+03 -0.11580235018E+03 -0.79737245158E+03  0.84256903900E+03  0.79667433365E+02 0.  0.
        254    2    1    2    0    0  0.23315804661E+03  0.11580235018E+03 -0.14299936072E+03  0.97930876797E+03  0.93317950409E+03 0.  0.
         23    2    4    4    0    0  0.39940362216E+03 -0.29822855513E+03 -0.19384425949E+02  0.50787399540E+03  0.95376699131E+02 0.  0.
         23    2    4    4    0    0 -0.16624557555E+03  0.41403090531E+03 -0.12361493477E+03  0.47143477257E+03  0.88943300765E+02 0.  0.
          2    1    3    3  502    0 -0.23304946603E+03 -0.95782763313E+02 -0.74774154810E+03  0.78905247869E+03  0.00000000000E+00 0. -1.
         -1    1    3    3    0  502 -0.10858058437E+00 -0.20019586862E+02 -0.49630903482E+02  0.53516560319E+02  0.00000000000E+00 0.  1.
         11    1    5    5    0    0  0.20170693191E+02  0.52152822706E+01 -0.71571103198E+01  0.22029077627E+02  0.00000000000E+00 0. -1.
        -11    1    5    5    0    0  0.37923292897E+03 -0.30344383741E+03 -0.12227315629E+02  0.48584491777E+03  0.00000000000E+00 0.  1.
          4    1    6    6  503    0 -0.83076807922E+02  0.10096248780E+03 -0.42844941364E+02  0.13758949436E+03  0.00000000000E+00 0. -1.
         -4    1    6    6    0  503 -0.83168767628E+02  0.31306841751E+03 -0.80769993404E+02  0.33384527822E+03  0.00000000000E+00 0.  1.
<mgrwt>
<rscale>  0 0.15604293E+04</rscale>
<asrwt>0</asrwt>
<pdfrwt beam="1">  1        2 0.21248074E+00 0.15604293E+04</pdfrwt>
<pdfrwt beam="2">  1       -1 0.67808154E-01 0.15604293E+04</pdfrwt>
<totfact> 0.35817092E+01</totfact>
</mgrwt>
</event>
<event>
12    6  0.1542110E-007  0.1704802E+04  0.7818608E-02  0.8758630E-01
          2   -1    0    0  501    0  0.00000000000E+00  0.00000000000E+00  0.84789255582E+03  0.84789255582E+03  0.00000000000E+00 0. -1.
         -1   -1    0    0    0  501 -0.00000000000E+00 -0.00000000000E+00 -0.85693376091E+03  0.85693376091E+03  0.00000000000E+00 0.  1.
         24    2    1    2    0    0 -0.81639147807E+02  0.60413358367E+03 -0.12978077756E+02  0.61506640137E+03  0.80597209787E+02 0.  0.
        254    2    1    2    0    0  0.81639147807E+02 -0.60413358367E+03  0.39368726660E+01  0.10897599154E+04  0.90328225753E+03 0.  0.
         23    2    4    4    0    0  0.68919781924E+02  0.57170749620E+02  0.32376778646E+03  0.34926621245E+03  0.95618390814E+02 0.  0.
         23    2    4    4    0    0  0.12719365883E+02 -0.66130433329E+03 -0.31983091379E+03  0.74049370290E+03  0.92487334911E+02 0.  0.
          4    1    3    3  502    0 -0.18515242225E+02  0.13098932553E+03 -0.36233662474E+02  0.13716375576E+03  0.00000000000E+00 0. -1.
         -3    1    3    3    0  502 -0.63123905582E+02  0.47314425814E+03  0.23255584719E+02  0.47790264561E+03  0.00000000000E+00 0.  1.
         11    1    5    5    0    0  0.27470544923E+02  0.63872529993E+02  0.10126862198E+03  0.12283999643E+03  0.00000000000E+00 0. -1.
        -11    1    5    5    0    0  0.41449237001E+02 -0.67017803734E+01  0.22249916448E+03  0.22642621602E+03  0.00000000000E+00 0.  1.
          3    1    6    6  503    0  0.20927680011E+01 -0.61348404051E+03 -0.26891148286E+03  0.66983612418E+03  0.00000000000E+00 0. -1.
         -3    1    6    6    0  503  0.10626597882E+02 -0.47820292776E+02 -0.50919430935E+02  0.70657578720E+02  0.00000000000E+00 0.  1.
<mgrwt>
<rscale>  0 0.17048023E+04</rscale>
<asrwt>0</asrwt>
<pdfrwt beam="1">  1        2 0.13044501E+00 0.17048023E+04</pdfrwt>
<pdfrwt beam="2">  1       -1 0.13183596E+00 0.17048023E+04</pdfrwt>
<totfact> 0.16924989E+01</totfact>
</mgrwt>
</event>
<event>
12    6  0.1542110E-007  0.1309956E+04  0.7818608E-02  0.9021707E-01
          2   -1    0    0  501    0  0.00000000000E+00  0.00000000000E+00  0.29799577656E+03  0.29799577656E+03  0.00000000000E+00 0. -1.
         -1   -1    0    0    0  501 -0.00000000000E+00 -0.00000000000E+00 -0.14396044064E+04  0.14396044064E+04  0.00000000000E+00 0.  1.
         24    2    1    2    0    0 -0.18279378049E+03 -0.14315643610E+03  0.79434808758E+01  0.24516155549E+03  0.78318312173E+02 0.  0.
        254    2    1    2    0    0  0.18279378049E+03  0.14315643610E+03 -0.11495521108E+04  0.14924386275E+04  0.92303611529E+03 0.  0.
         23    2    4    4    0    0  0.14132603735E+03  0.17317397901E+03  0.83285843168E+02  0.25510156010E+03  0.90432286561E+02 0.  0.
         23    2    4    4    0    0  0.41467743137E+02 -0.30017542912E+02 -0.12328379539E+04  0.12373370674E+04  0.92157317250E+02 0.  0.
          4    1    3    3  502    0 -0.58905201348E+02 -0.27795578355E+02  0.34663686361E+02  0.73783386165E+02  0.00000000000E+00 0. -1.
         -3    1    3    3    0  502 -0.12388857914E+03 -0.11536085775E+03 -0.26720205485E+02  0.17137816933E+03  0.00000000000E+00 0.  1.
         11    1    5    5    0    0  0.40581407752E+02  0.26494628303E+02  0.57657697543E+02  0.75320820959E+02  0.00000000000E+00 0.  1.
        -11    1    5    5    0    0  0.10074462960E+03  0.14667935071E+03  0.25628145625E+02  0.17978073914E+03  0.00000000000E+00 0. -1.
          2    1    6    6  503    0  0.13051604807E+02 -0.55904676443E+02 -0.46386071047E+03  0.46739965336E+03  0.00000000000E+00 0. -1.
         -2    1    6    6    0  503  0.28416138330E+02  0.25887133530E+02 -0.76897724346E+03  0.76993741405E+03  0.00000000000E+00 0.  1.
<mgrwt>
<rscale>  0 0.13099558E+04</rscale>
<asrwt>0</asrwt>
<pdfrwt beam="1">  1        2 0.45845503E-01 0.13099558E+04</pdfrwt>
<pdfrwt beam="2">  1       -1 0.22147760E+00 0.13099558E+04</pdfrwt>
<totfact> 0.13357996E+01</totfact>
</mgrwt>
</event>
<event>
12    6  0.1542110E-007  0.2074218E+04  0.7818608E-02  0.8572687E-01
          2   -1    0    0  501    0  0.00000000000E+00  0.00000000000E+00  0.94565254434E+03  0.94565254434E+03  0.00000000000E+00 0. -1.
         -1   -1    0    0    0  501 -0.00000000000E+00 -0.00000000000E+00 -0.11374099175E+04  0.11374099175E+04  0.00000000000E+00 0.  1.
         24    2    1    2    0    0 -0.55555076352E+02 -0.34916598253E+03  0.67353553000E+03  0.76495378282E+03  0.80628343789E+02 0.  0.
        254    2    1    2    0    0  0.55555076352E+02  0.34916598253E+03 -0.86529290318E+03  0.13181086790E+04  0.92934139667E+03 0.  0.
         23    2    4    4    0    0  0.24684457446E+03 -0.22778999314E+03 -0.47544555203E+03  0.59024880850E+03  0.97594354737E+02 0.  0.
         23    2    4    4    0    0 -0.19128949811E+03  0.57695597567E+03 -0.38984735115E+03  0.72785987053E+03  0.91264253528E+02 0.  0.
          2    1    3    3  502    0 -0.48849051405E+01 -0.25969566778E+03  0.47563028570E+03  0.54193161085E+03  0.00000000000E+00 0. -1.
         -1    1    3    3    0  502 -0.50670171211E+02 -0.89470314756E+02  0.19790524430E+03  0.22302217198E+03  0.00000000000E+00 0.  1.
         11    1    5    5    0    0  0.26817310579E+02 -0.27625940262E+01 -0.82570481755E+02  0.86860143504E+02  0.00000000000E+00 0. -1.
        -11    1    5    5    0    0  0.22002726388E+03 -0.22502739911E+03 -0.39287507028E+03  0.50338866500E+03  0.00000000000E+00 0.  1.
          1    1    6    6  503    0 -0.19777004626E+02  0.22281356940E+02 -0.40483887675E+02  0.50264639065E+02  0.00000000000E+00 0. -1.
         -1    1    6    6    0  503 -0.17151249349E+03  0.55467461873E+03 -0.34936346347E+03  0.67759523146E+03  0.00000000000E+00 0.  1.
<mgrwt>
<rscale>  0 0.20742175E+04</rscale>
<asrwt>0</asrwt>
<pdfrwt beam="1">  1        2 0.14548501E+00 0.20742175E+04</pdfrwt>
<pdfrwt beam="2">  1       -1 0.17498614E+00 0.20742175E+04</pdfrwt>
<totfact> 0.65137348E+00</totfact>
</mgrwt>
</event>
<event>
12    6  0.1542110E-007  0.4017565E+04  0.7818608E-02  0.8001012E-01
          2   -1    0    0  501    0  0.00000000000E+00  0.00000000000E+00  0.34813083221E+04  0.34813083221E+04  0.00000000000E+00 0. -1.
         -1   -1    0    0    0  501 -0.00000000000E+00 -0.00000000000E+00 -0.11591067358E+04  0.11591067358E+04  0.00000000000E+00 0.  1.
         24    2    1    2    0    0  0.18851523538E+04  0.28763488378E+03  0.10980661128E+04  0.22018453731E+04  0.76424051407E+02 0.  0.
        254    2    1    2    0    0 -0.18851523538E+04 -0.28763488378E+03  0.12241354735E+04  0.24385696848E+04  0.90087803102E+03 0.  0.
         23    2    4    4    0    0 -0.18852282442E+04 -0.20648584840E+03  0.12946903562E+04  0.22980408426E+04  0.89703163532E+02 0.  0.
         23    2    4    4    0    0  0.75890458596E-01 -0.81149035382E+02 -0.70554882702E+02  0.14052884215E+03  0.90472052591E+02 0.  0.
          2    1    3    3  502    0  0.13455850857E+04  0.17154759041E+03  0.76974880559E+03  0.15596605471E+04  0.00000000000E+00 0. -1.
         -1    1    3    3    0  502  0.53956726809E+03  0.11608729337E+03  0.32831730719E+03  0.64218482594E+03  0.00000000000E+00 0.  1.
         11    1    5    5    0    0 -0.97938870924E+03 -0.14893923825E+03  0.65494647123E+03  0.11875773746E+04  0.00000000000E+00 0.  1.
        -11    1    5    5    0    0 -0.90583953500E+03 -0.57546610152E+02  0.63974388498E+03  0.11104634681E+04  0.00000000000E+00 0. -1.
          1    1    6    6  503    0  0.38756396622E+01 -0.10074909489E+03 -0.64402935854E+02  0.11963753111E+03  0.00000000000E+00 0. -1.
         -1    1    6    6    0  503 -0.37997492036E+01  0.19600059509E+02 -0.61519468475E+01  0.20891311036E+02  0.00000000000E+00 0.  1.
<mgrwt>
<rscale>  0 0.40175654E+04</rscale>
<asrwt>0</asrwt>
<pdfrwt beam="1">  1        2 0.53558589E+00 0.40175654E+04</pdfrwt>
<pdfrwt beam="2">  1       -1 0.17832412E+00 0.40175654E+04</pdfrwt>
<totfact> 0.15999443E-01</totfact>
</mgrwt>
</event>
<event>
12    6  0.1542110E-007  0.2560612E+04  0.7818608E-02  0.8381705E-01
          2   -1    0    0  501    0  0.00000000000E+00  0.00000000000E+00  0.11932758992E+04  0.11932758992E+04  0.00000000000E+00 0. -1.
         -1   -1    0    0    0  501 -0.00000000000E+00 -0.00000000000E+00 -0.13736835435E+04  0.13736835435E+04  0.00000000000E+00 0.  1.
         24    2    1    2    0    0  0.76401180017E+03 -0.72398457495E+03 -0.46115826983E+03  0.11520012919E+04  0.81069915660E+02 0.  0.
        254    2    1    2    0    0 -0.76401180017E+03  0.72398457495E+03  0.28075062554E+03  0.14149581507E+04  0.90300496063E+03 0.  0.
         23    2    4    4    0    0 -0.48460604963E+03  0.70707076214E+03  0.54479001019E+03  0.10197226340E+04  0.90807538348E+02 0.  0.
         23    2    4    4    0    0 -0.27940575055E+03  0.16913812810E+02 -0.26403938465E+03  0.39523551673E+03  0.90225642337E+02 0.  0.
          2    1    3    3  502    0  0.29270421897E+01 -0.98517430327E+01  0.14972057241E+01  0.10385857776E+02  0.00000000000E+00 0. -1.
         -1    1    3    3    0  502  0.76108475798E+03 -0.71413283191E+03 -0.46265547555E+03  0.11416154342E+04  0.00000000000E+00 0.  1.
         11    1    5    5    0    0 -0.38125417299E+03  0.48562103077E+03  0.37993437014E+03  0.72493631139E+03  0.00000000000E+00 0. -1.
        -11    1    5    5    0    0 -0.10335187663E+03  0.22144973137E+03  0.16485564004E+03  0.29478632258E+03  0.00000000000E+00 0.  1.
          1    1    6    6  503    0 -0.16716149838E+03 -0.25665596912E+02 -0.18920445842E+03  0.25377158330E+03  0.00000000000E+00 0. -1.
         -1    1    6    6    0  503 -0.11224425217E+03  0.42579409722E+02 -0.74834926228E+02  0.14146393343E+03  0.00000000000E+00 0.  1.
<mgrwt>
<rscale>  0 0.25606120E+04</rscale>
<asrwt>0</asrwt>
<pdfrwt beam="1">  1        2 0.18358091E+00 0.25606120E+04</pdfrwt>
<pdfrwt beam="2">  1       -1 0.21133593E+00 0.25606120E+04</pdfrwt>
<totfact> 0.24342509E+00</totfact>
</mgrwt>
</event>
<event>
12    6  0.1542110E-007  0.1115892E+04  0.7818608E-02  0.9189839E-01
         -1   -1    0    0    0  501 -0.00000000000E+00  0.00000000000E+00  0.80450583330E+02  0.80450583330E+02  0.00000000000E+00 0.  1.
          2   -1    0    0  501    0  0.00000000000E+00 -0.00000000000E+00 -0.38695034405E+04  0.38695034405E+04  0.00000000000E+00 0. -1.
         24    2    1    2    0    0 -0.59680876197E+02  0.88001972655E+02 -0.15423600382E+03  0.20370898519E+03  0.80015321037E+02 0.  0.
        254    2    1    2    0    0  0.59680876197E+02 -0.88001972655E+02 -0.36348168533E+04  0.37462450386E+04  0.90063987137E+03 0.  0.
         23    2    4    4    0    0 -0.53132857154E+02  0.70496186215E+02 -0.22710171328E+02  0.12774950514E+03  0.89506264599E+02 0.  0.
         23    2    4    4    0    0  0.11281373335E+03 -0.15849815887E+03 -0.36121066820E+04  0.36184955334E+04  0.91359940769E+02 0.  0.
          4    1    3    3  502    0 -0.13822293872E+02 -0.81734422301E+01 -0.57832839804E+02  0.60020815769E+02  0.00000000000E+00 0. -1.
         -3    1    3    3    0  502 -0.45858582325E+02  0.96175414885E+02 -0.96403164013E+02  0.14368816943E+03  0.00000000000E+00 0.  1.
         11    1    5    5    0    0  0.64330655963E+01 -0.95692451505E+01  0.16836591396E+02  0.20406508657E+02  0.00000000000E+00 0.  1.
        -11    1    5    5    0    0 -0.59565922750E+02  0.80065431365E+02 -0.39546762724E+02  0.10734299649E+03  0.00000000000E+00 0. -1.
          3    1    6    6  503    0  0.10241867605E+03 -0.17039584225E+03 -0.33936490786E+04  0.33994673696E+04  0.00000000000E+00 0. -1.
         -3    1    6    6    0  503  0.10395057299E+02  0.11897683378E+02 -0.21845760338E+03  0.21902816385E+03  0.00000000000E+00 0.  1.
<mgrwt>
<rscale>  0 0.11158921E+04</rscale>
<asrwt>0</asrwt>
<pdfrwt beam="1">  1        2 0.59530805E+00 0.11158921E+04</pdfrwt>
<pdfrwt beam="2">  1       -1 0.12377016E-01 0.11158921E+04</pdfrwt>
<totfact> 0.22980590E+01</totfact>
</mgrwt>
</event>
<event>
12    6  0.1542110E-007  0.1890947E+04  0.7818608E-02  0.8659376E-01
          2   -1    0    0  501    0  0.00000000000E+00  0.00000000000E+00  0.72943363179E+03  0.72943363179E+03  0.00000000000E+00 0. -1.
         -1   -1    0    0    0  501 -0.00000000000E+00 -0.00000000000E+00 -0.12254986038E+04  0.12254986038E+04  0.00000000000E+00 0.  1.
         24    2    1    2    0    0 -0.37098771998E+03  0.62292738134E+03 -0.14220669618E+03  0.74317158260E+03  0.80067758503E+02 0.  0.
        254    2    1    2    0    0  0.37098771998E+03 -0.62292738134E+03 -0.35385827580E+03  0.12117606530E+04  0.90414478373E+03 0.  0.
         23    2    4    4    0    0  0.80151250958E+02 -0.19004681917E+03  0.29685530130E+03  0.37281727967E+03  0.91255890792E+02 0.  0.
         23    2    4    4    0    0  0.29083646902E+03 -0.43288056216E+03 -0.65071357709E+03  0.83894337330E+03  0.91795377740E+02 0.  0.
          4    1    3    3  502    0 -0.22565631786E+03  0.36672970023E+03 -0.44720449422E+02  0.43291034340E+03  0.00000000000E+00 0. -1.
         -3    1    3    3    0  502 -0.14533140211E+03  0.25619768111E+03 -0.97486246762E+02  0.31026123920E+03  0.00000000000E+00 0.  1.
         11    1    5    5    0    0  0.23950126607E+02  0.14519910115E+01  0.18446378998E+02  0.30265256327E+02  0.00000000000E+00 0.  1.
        -11    1    5    5    0    0  0.56201124351E+02 -0.19149881018E+03  0.27840892230E+03  0.34255202334E+03  0.00000000000E+00 0. -1.
          1    1    6    6  503    0  0.22805108049E+03 -0.39439358562E+03 -0.56972089214E+03  0.72947617550E+03  0.00000000000E+00 0. -1.
         -1    1    6    6    0  503  0.62785388530E+02 -0.38486976548E+02 -0.80992684955E+02  0.10946719779E+03  0.00000000000E+00 0.  1.
<mgrwt>
<rscale>  0 0.18909467E+04</rscale>
<asrwt>0</asrwt>
<pdfrwt beam="1">  1        2 0.11222056E+00 0.18909467E+04</pdfrwt>
<pdfrwt beam="2">  1       -1 0.18853825E+00 0.18909467E+04</pdfrwt>
<totfact> 0.75247795E+00</totfact>
</mgrwt>
</event>
<event>
12    6  0.1542110E-007  0.2627295E+04  0.7818608E-02  0.8358989E-01
          2   -1    0    0  501    0  0.00000000000E+00  0.00000000000E+00  0.24440714389E+04  0.24440714389E+04  0.00000000000E+00 0. -1.
         -1   -1    0    0    0  501 -0.00000000000E+00 -0.00000000000E+00 -0.70606332301E+03  0.70606332301E+03  0.00000000000E+00 0.  1.
         24    2    1    2    0    0  0.19670462931E+03  0.60010554465E+03  0.19316744590E+04  0.20336516664E+04  0.74521866102E+02 0.  0.
        254    2    1    2    0    0 -0.19670462931E+03 -0.60010554465E+03 -0.19366634317E+03  0.11164830955E+04  0.90011581155E+03 0.  0.
         23    2    4    4    0    0 -0.24821738114E+03  0.14996217975E+03 -0.19024586203E+03  0.35905586518E+03  0.92882197651E+02 0.  0.
         23    2    4    4    0    0  0.51512751835E+02 -0.75006772440E+03 -0.34204811352E+01  0.75742723035E+03  0.91810428545E+02 0.  0.
          4    1    3    3  502    0  0.19170478727E+03  0.59719858172E+03  0.18847797563E+04  0.19864016716E+04  0.00000000000E+00 0. -1.
         -3    1    3    3    0  502  0.49998420392E+01  0.29069629307E+01  0.46894702793E+02  0.47249994750E+02  0.00000000000E+00 0.  1.
         11    1    5    5    0    0 -0.12953081367E+02 -0.80782030753E+01  0.36031304679E+01  0.15685095823E+02  0.00000000000E+00 0. -1.
        -11    1    5    5    0    0 -0.23526429978E+03  0.15804038283E+03 -0.19384899250E+03  0.34337076936E+03  0.00000000000E+00 0.  1.
          1    1    6    6  503    0  0.72515366799E+02 -0.39790799287E+03  0.62331770007E+01  0.40450970533E+03  0.00000000000E+00 0. -1.
         -1    1    6    6    0  503 -0.21002614965E+02 -0.35215973153E+03 -0.96536581358E+01  0.35291752502E+03  0.00000000000E+00 0.  1.
<mgrwt>
<rscale>  0 0.26272946E+04</rscale>
<asrwt>0</asrwt>
<pdfrwt beam="1">  1        2 0.37601099E+00 0.26272946E+04</pdfrwt>
<pdfrwt beam="2">  1       -1 0.10862513E+00 0.26272946E+04</pdfrwt>
<totfact> 0.29584826E+00</totfact>
</mgrwt>
</event>
<event>
12    6  0.1542110E-007  0.2249969E+04  0.7818608E-02  0.8497913E-01
          2   -1    0    0  501    0  0.00000000000E+00  0.00000000000E+00  0.20331811417E+04  0.20331811417E+04  0.00000000000E+00 0. -1.
         -1   -1    0    0    0  501 -0.00000000000E+00 -0.00000000000E+00 -0.62246796435E+03  0.62246796435E+03  0.00000000000E+00 0.  1.
         24    2    1    2    0    0 -0.38118787106E+03 -0.18422633361E+03 -0.40162255371E+03  0.58922895586E+03  0.81526386789E+02 0.  0.
        254    2    1    2    0    0  0.38118787106E+03  0.18422633361E+03  0.18123357310E+04  0.20664201502E+04  0.89793535400E+03 0.  0.
         23    2    4    4    0    0  0.59450695915E+03  0.34378440195E+03  0.10884775707E+04  0.12897612681E+04  0.84109852597E+02 0.  0.
         23    2    4    4    0    0 -0.21331908809E+03 -0.15955806834E+03  0.72385816037E+03  0.77665888208E+03  0.90909692892E+02 0.  0.
          2    1    3    3  502    0 -0.37410084857E+02 -0.43268073841E+02 -0.33977823203E+02  0.66529190078E+02  0.00000000000E+00 0. -1.
         -1    1    3    3    0  502 -0.34377778620E+03 -0.14095825977E+03 -0.36764473050E+03  0.52269976578E+03  0.00000000000E+00 0.  1.
         11    1    5    5    0    0  0.14596785833E+03  0.54542940026E+02  0.20355916739E+03  0.25635499332E+03  0.00000000000E+00 0. -1.
        -11    1    5    5    0    0  0.44853910081E+03  0.28924146193E+03  0.88491840328E+03  0.10334062748E+04  0.00000000000E+00 0.  1.
          1    1    6    6  503    0 -0.24561424638E+02 -0.29757169630E+02  0.40551987832E+02  0.55975141284E+02  0.00000000000E+00 0. -1.
         -1    1    6    6    0  503 -0.18875766345E+03 -0.12980089871E+03  0.68330617254E+03  0.72068374079E+03  0.00000000000E+00 0.  1.
<mgrwt>
<rscale>  0 0.22499690E+04</rscale>
<asrwt>0</asrwt>
<pdfrwt beam="1">  1        2 0.31279709E+00 0.22499690E+04</pdfrwt>
<pdfrwt beam="2">  1       -1 0.95764303E-01 0.22499690E+04</pdfrwt>
<totfact> 0.69755848E+00</totfact>
</mgrwt>
</event>
<event>
12    6  0.1542110E-007  0.1296368E+04  0.7818608E-02  0.9032451E-01
          2   -1    0    0  501    0  0.00000000000E+00  0.00000000000E+00  0.60688770632E+03  0.60688770632E+03  0.00000000000E+00 0. -1.
         -1   -1    0    0    0  501 -0.00000000000E+00 -0.00000000000E+00 -0.69228994807E+03  0.69228994807E+03  0.00000000000E+00 0.  1.
         24    2    1    2    0    0 -0.24781600632E+03 -0.20797999024E+03  0.27694334986E+02  0.33439599710E+03  0.79907805387E+02 0.  0.
        254    2    1    2    0    0  0.24781600632E+03  0.20797999024E+03 -0.11309657674E+03  0.96478165729E+03  0.90185606459E+03 0.  0.
         23    2    4    4    0    0  0.21902957990E+03  0.45327066854E+03  0.20510094673E+03  0.55191997462E+03  0.95503948595E+02 0.  0.
         23    2    4    4    0    0  0.28786426419E+02 -0.24529067831E+03 -0.31819752347E+03  0.41286168267E+03  0.90603144878E+02 0.  0.
          2    1    3    3  502    0 -0.15483118656E+02  0.56766347139E+01  0.74877868867E+01  0.18111269902E+02  0.00000000000E+00 0. -1.
         -1    1    3    3    0  502 -0.23233288766E+03 -0.21365662495E+03  0.20206548100E+02  0.31628472720E+03  0.00000000000E+00 0.  1.
         11    1    5    5    0    0  0.10271018831E+03  0.14761488213E+03  0.11211029492E+03  0.21191567766E+03  0.00000000000E+00 0. -1.
        -11    1    5    5    0    0  0.11631939159E+03  0.30565578641E+03  0.92990651814E+02  0.34000429696E+03  0.00000000000E+00 0.  1.
          1    1    6    6  503    0  0.15969574354E+02 -0.83460552016E+02 -0.18237288094E+03  0.20119781001E+03  0.00000000000E+00 0. -1.
         -1    1    6    6    0  503  0.12816852065E+02 -0.16183012629E+03 -0.13582464253E+03  0.21166387266E+03  0.00000000000E+00 0.  1.
<mgrwt>
<rscale>  0 0.12963676E+04</rscale>
<asrwt>0</asrwt>
<pdfrwt beam="1">  1        2 0.93367339E-01 0.12963676E+04</pdfrwt>
<pdfrwt beam="2">  1       -1 0.10650615E+00 0.12963676E+04</pdfrwt>
<totfact> 0.45151482E+01</totfact>
</mgrwt>
</event>
<event>
12    6  0.1542110E-007  0.1647284E+04  0.7818608E-02  0.8792015E-01
         -1   -1    0    0    0  501 -0.00000000000E+00  0.00000000000E+00  0.68014351446E+03  0.68014351446E+03  0.00000000000E+00 0.  1.
          2   -1    0    0  501    0  0.00000000000E+00 -0.00000000000E+00 -0.99741675731E+03  0.99741675731E+03  0.00000000000E+00 0. -1.
         24    2    1    2    0    0 -0.40948536384E+03 -0.15612889214E+03 -0.49467197361E+03  0.66578974178E+03  0.80753480596E+02 0.  0.
        254    2    1    2    0    0  0.40948536384E+03  0.15612889214E+03  0.17739873075E+03  0.10117705300E+04  0.89451372349E+03 0.  0.
         23    2    4    4    0    0 -0.15818290138E+03  0.33780589360E+03  0.42054024235E+01  0.38428090634E+03  0.92301015852E+02 0.  0.
         23    2    4    4    0    0  0.56766826523E+03 -0.18167700146E+03  0.17319332833E+03  0.62748962365E+03  0.92160222454E+02 0.  0.
          4    1    3    3  502    0 -0.27131185648E+03 -0.10537933019E+03 -0.38289678820E+03  0.48096244876E+03  0.00000000000E+00 0. -1.
         -3    1    3    3    0  502 -0.13817350736E+03 -0.50749561959E+02 -0.11177518540E+03  0.18482729303E+03  0.00000000000E+00 0.  1.
         11    1    5    5    0    0 -0.10623853777E+03  0.13727085798E+03  0.27786621755E+02  0.17578968032E+03  0.00000000000E+00 0.  1.
        -11    1    5    5    0    0 -0.51944363609E+02  0.20053503562E+03 -0.23581219332E+02  0.20849122602E+03  0.00000000000E+00 0. -1.
          3    1    6    6  503    0  0.46354602425E+02 -0.24222331125E+02  0.42653330214E+02  0.67489088522E+02  0.00000000000E+00 0. -1.
         -3    1    6    6    0  503  0.52131366280E+03 -0.15745467033E+03  0.13053999812E+03  0.56000053512E+03  0.00000000000E+00 0.  1.
<mgrwt>
<rscale>  0 0.16472845E+04</rscale>
<asrwt>0</asrwt>
<pdfrwt beam="1">  1        2 0.15344873E+00 0.16472845E+04</pdfrwt>
<pdfrwt beam="2">  1       -1 0.10463746E+00 0.16472845E+04</pdfrwt>
<totfact> 0.23661415E+01</totfact>
</mgrwt>
</event>
<event>
12    6  0.1542110E-007  0.1296229E+04  0.7818608E-02  0.9032561E-01
          2   -1    0    0  501    0  0.00000000000E+00  0.00000000000E+00  0.57203401539E+03  0.57203401539E+03  0.00000000000E+00 0. -1.
         -1   -1    0    0    0  501 -0.00000000000E+00 -0.00000000000E+00 -0.73431381124E+03  0.73431381124E+03  0.00000000000E+00 0.  1.
         24    2    1    2    0    0 -0.57616430979E+02  0.17504516372E+03  0.23617750793E+03  0.31039410545E+03  0.81266370568E+02 0.  0.
        254    2    1    2    0    0  0.57616430979E+02 -0.17504516372E+03 -0.39845730379E+03  0.99595372118E+03  0.89397714139E+03 0.  0.
         23    2    4    4    0    0 -0.17967495431E+03 -0.19603832559E+03  0.20067175363E+03  0.34463627945E+03  0.88266064296E+02 0.  0.
         23    2    4    4    0    0  0.23729138529E+03  0.20993161870E+02 -0.59912905741E+03  0.65131744173E+03  0.92254366216E+02 0.  0.
          4    1    3    3  502    0 -0.35216799239E+02  0.27805263750E+02  0.95540046300E+02  0.10555214867E+03  0.00000000000E+00 0. -1.
         -1    1    3    3    0  502 -0.22399631740E+02  0.14723989997E+03  0.14063746163E+03  0.20484195678E+03  0.00000000000E+00 0.  1.
         11    1    5    5    0    0 -0.66789122726E+00 -0.31879285300E+02  0.40482283233E+01  0.32142231759E+02  0.00000000000E+00 0.  1.
        -11    1    5    5    0    0 -0.17900706308E+03 -0.16415904029E+03  0.19662352530E+03  0.31249404770E+03  0.00000000000E+00 0. -1.
          2    1    6    6  503    0  0.14334893952E+03  0.30556878597E+02 -0.46298610322E+03  0.48563234351E+03  0.00000000000E+00 0. -1.
         -2    1    6    6    0  503  0.93942445765E+02 -0.95637167268E+01 -0.13614295419E+03  0.16568509821E+03  0.00000000000E+00 0.  1.
<mgrwt>
<rscale>  0 0.12962291E+04</rscale>
<asrwt>0</asrwt>
<pdfrwt beam="1">  1        2 0.88005233E-01 0.12962291E+04</pdfrwt>
<pdfrwt beam="2">  1       -1 0.11297136E+00 0.12962291E+04</pdfrwt>
<totfact> 0.42187853E+01</totfact>
</mgrwt>
</event>
<event>
12    6  0.1542110E-007  0.2329398E+04  0.7818608E-02  0.8466419E-01
          2   -1    0    0  501    0  0.00000000000E+00  0.00000000000E+00  0.15773842069E+04  0.15773842069E+04  0.00000000000E+00 0. -1.
         -1   -1    0    0    0  501 -0.00000000000E+00 -0.00000000000E+00 -0.85998322628E+03  0.85998322628E+03  0.00000000000E+00 0.  1.
         24    2    1    2    0    0  0.32408631277E+03  0.80075401023E+03  0.80860488309E+03  0.11858326188E+04  0.78219050832E+02 0.  0.
        254    2    1    2    0    0 -0.32408631277E+03 -0.80075401023E+03 -0.91203902496E+02  0.12515348143E+04  0.90098963179E+03 0.  0.
         23    2    4    4    0    0  0.28440862959E+03 -0.15016996224E+03 -0.11965136552E+03  0.35576853283E+03  0.93890966220E+02 0.  0.
         23    2    4    4    0    0 -0.60849494236E+03 -0.65058404799E+03  0.28447463028E+02  0.89576628148E+03  0.89790169382E+02 0.  0.
          4    1    3    3  502    0  0.12649762184E+03  0.27676339016E+03  0.23785904668E+03  0.38623380038E+03  0.00000000000E+00 0. -1.
         -3    1    3    3    0  502  0.19758869092E+03  0.52399062007E+03  0.57074583641E+03  0.79959881846E+03  0.00000000000E+00 0.  1.
         11    1    5    5    0    0  0.26650224501E+03 -0.11493888785E+03 -0.82994562877E+02  0.30186502282E+03  0.00000000000E+00 0. -1.
        -11    1    5    5    0    0  0.17906384580E+02 -0.35231074386E+02 -0.36656802646E+02  0.53903510010E+02  0.00000000000E+00 0.  1.
          2    1    6    6  503    0 -0.57948826704E+03 -0.61886209389E+03  0.72746784403E+01  0.84785014232E+03  0.00000000000E+00 0. -1.
         -2    1    6    6    0  503 -0.29006675316E+02 -0.31721954098E+02  0.21172784587E+02  0.47916139159E+02  0.00000000000E+00 0.  1.
<mgrwt>
<rscale>  0 0.23293982E+04</rscale>
<asrwt>0</asrwt>
<pdfrwt beam="1">  1        2 0.24267449E+00 0.23293982E+04</pdfrwt>
<pdfrwt beam="2">  1       -1 0.13230511E+00 0.23293982E+04</pdfrwt>
<totfact> 0.57368273E+00</totfact>
</mgrwt>
</event>
<event>
12    6  0.1542110E-007  0.2818988E+04  0.7818608E-02  0.8297397E-01
          2   -1    0    0  501    0  0.00000000000E+00  0.00000000000E+00  0.14647580251E+04  0.14647580251E+04  0.00000000000E+00 0. -1.
         -1   -1    0    0    0  501 -0.00000000000E+00 -0.00000000000E+00 -0.13563150606E+04  0.13563150606E+04  0.00000000000E+00 0.  1.
         24    2    1    2    0    0 -0.90891978564E+03 -0.19537197159E+03  0.90731521043E+03  0.13019469119E+04  0.86830215889E+02 0.  0.
        254    2    1    2    0    0  0.90891978564E+03  0.19537197159E+03 -0.79887224592E+03  0.15191261738E+04  0.89735281949E+03 0.  0.
         23    2    4    4    0    0  0.80227373334E+03  0.44210386522E+03 -0.82239874929E+03  0.12344208587E+04  0.91412158472E+02 0.  0.
         23    2    4    4    0    0  0.10664605230E+03 -0.24673189363E+03  0.23526503362E+02  0.28470531511E+03  0.90849393426E+02 0.  0.
          2    1    3    3  502    0 -0.58094339243E+03 -0.86431194646E+02  0.54510732376E+03  0.80131614924E+03  0.00000000000E+00 0. -1.
         -1    1    3    3    0  502 -0.32797639321E+03 -0.10894077694E+03  0.36220788667E+03  0.50063076269E+03  0.00000000000E+00 0.  1.
         11    1    5    5    0    0  0.48875871892E+03  0.31172209039E+03 -0.48636437849E+03  0.75670737780E+03  0.00000000000E+00 0. -1.
        -11    1    5    5    0    0  0.31351501442E+03  0.13038177483E+03 -0.33603437080E+03  0.47771348090E+03  0.00000000000E+00 0.  1.
          1    1    6    6  503    0  0.10806784772E+03 -0.16494974016E+03 -0.72011736071E+01  0.19732950461E+03  0.00000000000E+00 0. -1.
         -1    1    6    6    0  503 -0.14217954139E+01 -0.81782153475E+02  0.30727676969E+02  0.87375810503E+02  0.00000000000E+00 0.  1.
<mgrwt>
<rscale>  0 0.28189880E+04</rscale>
<asrwt>0</asrwt>
<pdfrwt beam="1">  1        2 0.22534739E+00 0.28189880E+04</pdfrwt>
<pdfrwt beam="2">  1       -1 0.20866386E+00 0.28189880E+04</pdfrwt>
<totfact> 0.17263797E+00</totfact>
</mgrwt>
</event>
<event>
12    6  0.1542110E-007  0.3872626E+04  0.7818608E-02  0.8030747E-01
          2   -1    0    0  501    0  0.00000000000E+00  0.00000000000E+00  0.22362699128E+04  0.22362699128E+04  0.00000000000E+00 0. -1.
         -1   -1    0    0    0  501 -0.00000000000E+00 -0.00000000000E+00 -0.16765905088E+04  0.16765905088E+04  0.00000000000E+00 0.  1.
         24    2    1    2    0    0 -0.13494364240E+04 -0.12268006105E+04  0.67674369916E+02  0.18267785143E+04  0.80755927660E+02 0.  0.
        254    2    1    2    0    0  0.13494364240E+04  0.12268006105E+04  0.49200503411E+03  0.20860819072E+04  0.88524028933E+03 0.  0.
         23    2    4    4    0    0  0.10418838209E+04  0.40214803558E+03  0.12210374036E+03  0.11272040580E+04  0.91840765370E+02 0.  0.
         23    2    4    4    0    0  0.30755260309E+03  0.82465257493E+03  0.36990129374E+03  0.95887784927E+03  0.89326869938E+02 0.  0.
          2    1    3    3  502    0 -0.13892654312E+03 -0.99349648713E+02 -0.60932199773E+01  0.17090366998E+03  0.00000000000E+00 0. -1.
         -1    1    3    3    0  502 -0.12105098808E+04 -0.11274509618E+04  0.73767589893E+02  0.16558748444E+04  0.00000000000E+00 0.  1.
         11    1    5    5    0    0  0.73559496000E+03  0.32566248519E+03  0.10150178434E+03  0.81083821546E+03  0.00000000000E+00 0. -1.
        -11    1    5    5    0    0  0.30628886087E+03  0.76485550392E+02  0.20601956026E+02  0.31636584250E+03  0.00000000000E+00 0.  1.
          4    1    6    6  503    0  0.10919255136E+03  0.39097079576E+03  0.20089289811E+03  0.45292287745E+03  0.00000000000E+00 0. -1.
         -4    1    6    6    0  503  0.19836005173E+03  0.43368177917E+03  0.16900839563E+03  0.50595497182E+03  0.00000000000E+00 0.  1.
<mgrwt>
<rscale>  0 0.38726265E+04</rscale>
<asrwt>0</asrwt>
<pdfrwt beam="1">  1        2 0.34404153E+00 0.38726265E+04</pdfrwt>
<pdfrwt beam="2">  1       -1 0.25793700E+00 0.38726265E+04</pdfrwt>
<totfact> 0.27632185E-01</totfact>
</mgrwt>
</event>
<event>
12    6  0.1542110E-007  0.2519300E+04  0.7818608E-02  0.8396142E-01
          2   -1    0    0  501    0  0.00000000000E+00  0.00000000000E+00  0.26269927793E+04  0.26269927793E+04  0.00000000000E+00 0. -1.
         -1   -1    0    0    0  501 -0.00000000000E+00 -0.00000000000E+00 -0.60400538379E+03  0.60400538379E+03  0.00000000000E+00 0.  1.
         24    2    1    2    0    0  0.29878103001E+03 -0.26720415581E+03 -0.42798414929E+03  0.59183820859E+03  0.80211397718E+02 0.  0.
        254    2    1    2    0    0 -0.29878103001E+03  0.26720415581E+03  0.24509715448E+04  0.26391599545E+04  0.89288049995E+03 0.  0.
         23    2    4    4    0    0 -0.74947461747E+02 -0.32002777266E+03  0.95434555564E+03  0.10134276681E+04  0.90693448291E+02 0.  0.
         23    2    4    4    0    0 -0.22383356827E+03  0.58723192847E+03  0.14966259892E+04  0.16257322864E+04  0.90406368964E+02 0.  0.
          4    1    3    3  502    0  0.78954624461E+02 -0.10832079374E+03 -0.10636006342E+03  0.17111309175E+03  0.00000000000E+00 0. -1.
         -3    1    3    3    0  502  0.21982640555E+03 -0.15888336208E+03 -0.32162408588E+03  0.42072511684E+03  0.00000000000E+00 0.  1.
         11    1    5    5    0    0 -0.18351796847E+01 -0.14421460893E+03  0.51006115429E+03  0.53005999890E+03  0.00000000000E+00 0.  1.
        -11    1    5    5    0    0 -0.73112282062E+02 -0.17581316373E+03  0.44428440134E+03  0.48336766918E+03  0.00000000000E+00 0. -1.
          1    1    6    6  503    0 -0.52732033904E+02  0.18203630976E+03  0.55445899062E+03  0.58595448437E+03  0.00000000000E+00 0. -1.
         -1    1    6    6    0  503 -0.17110153436E+03  0.40519561871E+03  0.94216699854E+03  0.10397778020E+04  0.00000000000E+00 0.  1.
<mgrwt>
<rscale>  0 0.25192997E+04</rscale>
<asrwt>0</asrwt>
<pdfrwt beam="1">  1        2 0.40415273E+00 0.25192997E+04</pdfrwt>
<pdfrwt beam="2">  1       -1 0.92923906E-01 0.25192997E+04</pdfrwt>
<totfact> 0.33423375E+00</totfact>
</mgrwt>
</event>
<event>
12    6  0.1542110E-007  0.1533366E+04  0.7818608E-02  0.8862563E-01
          2   -1    0    0  501    0  0.00000000000E+00  0.00000000000E+00  0.22722616525E+04  0.22722616525E+04  0.00000000000E+00 0. -1.
         -1   -1    0    0    0  501 -0.00000000000E+00 -0.00000000000E+00 -0.25868619053E+03  0.25868619053E+03  0.00000000000E+00 0.  1.
         24    2    1    2    0    0  0.17138398288E+03  0.27621047587E+03  0.39604707396E+02  0.33701987922E+03  0.79681676509E+02 0.  0.
        254    2    1    2    0    0 -0.17138398288E+03 -0.27621047587E+03  0.19739707546E+04  0.21939279638E+04  0.90060794684E+03 0.  0.
         23    2    4    4    0    0  0.27802505862E+02  0.30168527242E+03  0.46386881724E+03  0.56197774168E+03  0.94115458928E+02 0.  0.
         23    2    4    4    0    0 -0.19918648874E+03 -0.57789574829E+03  0.15101019374E+04  0.16319502222E+04  0.95994339316E+02 0.  0.
          2    1    3    3  502    0  0.13328429923E+03  0.14624813907E+03  0.38505849122E+02  0.20158353856E+03  0.00000000000E+00 0. -1.
         -1    1    3    3    0  502  0.38099683651E+02  0.12996233680E+03  0.10988582738E+01  0.13543634065E+03  0.00000000000E+00 0.  1.
         11    1    5    5    0    0  0.35291643301E+02  0.43321093770E+02  0.11432098113E+03  0.12724584072E+03  0.00000000000E+00 0.  1.
        -11    1    5    5    0    0 -0.74891374393E+01  0.25836417865E+03  0.34954783610E+03  0.43473190096E+03  0.00000000000E+00 0. -1.
          2    1    6    6  503    0 -0.11948860816E+03 -0.45847469476E+03  0.12033206423E+04  0.12932351454E+04  0.00000000000E+00 0. -1.
         -2    1    6    6    0  503 -0.79697880583E+02 -0.11942105353E+03  0.30678129511E+03  0.33871507676E+03  0.00000000000E+00 0.  1.
<mgrwt>
<rscale>  0 0.15333659E+04</rscale>
<asrwt>0</asrwt>
<pdfrwt beam="1">  1        2 0.34957870E+00 0.15333659E+04</pdfrwt>
<pdfrwt beam="2">  1       -1 0.39797877E-01 0.15333659E+04</pdfrwt>
<totfact> 0.31762317E+01</totfact>
</mgrwt>
</event>
<event>
12    6  0.1542110E-007  0.2828447E+04  0.7818608E-02  0.8294491E-01
         -1   -1    0    0    0  501 -0.00000000000E+00  0.00000000000E+00  0.68737495371E+03  0.68737495371E+03  0.00000000000E+00 0.  1.
          2   -1    0    0  501    0  0.00000000000E+00 -0.00000000000E+00 -0.29096608683E+04  0.29096608683E+04  0.00000000000E+00 0. -1.
         24    2    1    2    0    0 -0.50617687138E+03 -0.63247826239E+03  0.24167323582E+03  0.84915945140E+03  0.80137653303E+02 0.  0.
        254    2    1    2    0    0  0.50617687138E+03  0.63247826239E+03 -0.24639591504E+04  0.27478763706E+04  0.90746133567E+03 0.  0.
         23    2    4    4    0    0  0.68883515487E+03  0.24198937416E+03 -0.11813273847E+04  0.13916417523E+04  0.89886867763E+02 0.  0.
         23    2    4    4    0    0 -0.18265828349E+03  0.39048888823E+03 -0.12826317657E+04  0.13562346183E+04  0.91555847726E+02 0.  0.
          2    1    3    3  502    0 -0.27831944942E+02 -0.11714706876E+02  0.12212724815E+02  0.32573028165E+02  0.00000000000E+00 0. -1.
         -1    1    3    3    0  502 -0.47834492644E+03 -0.62076355551E+03  0.22946051100E+03  0.81658642323E+03  0.00000000000E+00 0.  1.
         11    1    5    5    0    0  0.22442709328E+02  0.25334416832E+02 -0.71598071664E+02  0.79194644669E+02  0.00000000000E+00 0.  1.
        -11    1    5    5    0    0  0.66639244554E+03  0.21665495733E+03 -0.11097293130E+04  0.13124471076E+04  0.00000000000E+00 0. -1.
          3    1    6    6  503    0 -0.14706930408E+03  0.33610407397E+03 -0.11702762138E+04  0.12264345662E+04  0.00000000000E+00 0. -1.
         -3    1    6    6    0  503 -0.35588979409E+02  0.54384814254E+02 -0.11235555191E+03  0.12980005209E+03  0.00000000000E+00 0.  1.
<mgrwt>
<rscale>  0 0.28284469E+04</rscale>
<asrwt>0</asrwt>
<pdfrwt beam="1">  1        2 0.44764013E+00 0.28284469E+04</pdfrwt>
<pdfrwt beam="2">  1       -1 0.10574999E+00 0.28284469E+04</pdfrwt>
<totfact> 0.16364880E+00</totfact>
</mgrwt>
</event>
<event>
12    6  0.1542110E-007  0.1687571E+04  0.7818608E-02  0.8768485E-01
          2   -1    0    0  501    0  0.00000000000E+00  0.00000000000E+00  0.72875336677E+03  0.72875336677E+03  0.00000000000E+00 0. -1.
         -1   -1    0    0    0  501 -0.00000000000E+00 -0.00000000000E+00 -0.97697469763E+03  0.97697469763E+03  0.00000000000E+00 0.  1.
         24    2    1    2    0    0  0.14031423124E+02 -0.51129866067E+03 -0.42335277357E+03  0.67070098317E+03  0.94810530480E+02 0.  0.
        254    2    1    2    0    0 -0.14031423124E+02  0.51129866067E+03  0.17513144271E+03  0.10350270812E+04  0.88260230875E+03 0.  0.
         23    2    4    4    0    0  0.31135530067E+03  0.66293636460E+02 -0.17680133629E+03  0.37469732236E+03  0.88331202732E+02 0.  0.
         23    2    4    4    0    0 -0.32538672379E+03  0.44500502421E+03  0.35193277900E+03  0.66032975887E+03  0.90954482662E+02 0.  0.
          4    1    3    3  502    0 -0.21054536913E+02 -0.76278299332E+02 -0.35101140266E+02  0.86566520789E+02  0.00000000000E+00 0. -1.
         -3    1    3    3    0  502  0.35085960037E+02 -0.43502036134E+03 -0.38825163331E+03  0.58413446238E+03  0.00000000000E+00 0.  1.
         11    1    5    5    0    0  0.31032860686E+03  0.58441800262E+02 -0.18269667781E+03  0.36482511473E+03  0.00000000000E+00 0. -1.
        -11    1    5    5    0    0  0.10266938130E+01  0.78518361977E+01  0.58953415196E+01  0.98722076302E+01  0.00000000000E+00 0.  1.
          3    1    6    6  503    0 -0.30415029855E+03  0.39737099943E+03  0.28638508106E+03  0.57656528680E+03  0.00000000000E+00 0. -1.
         -3    1    6    6    0  503 -0.21236425240E+02  0.47634024787E+02  0.65547697947E+02  0.83764472066E+02  0.00000000000E+00 0.  1.
<mgrwt>
<rscale>  0 0.16875706E+04</rscale>
<asrwt>0</asrwt>
<pdfrwt beam="1">  1        2 0.11211590E+00 0.16875706E+04</pdfrwt>
<pdfrwt beam="2">  1       -1 0.15030380E+00 0.16875706E+04</pdfrwt>
<totfact> 0.14689123E+01</totfact>
</mgrwt>
</event>
<event>
12    6  0.1542110E-007  0.1813277E+04  0.7818608E-02  0.8699270E-01
         -1   -1    0    0    0  501 -0.00000000000E+00  0.00000000000E+00  0.75963902741E+03  0.75963902741E+03  0.00000000000E+00 0.  1.
          2   -1    0    0  501    0  0.00000000000E+00 -0.00000000000E+00 -0.10820846270E+04  0.10820846270E+04  0.00000000000E+00 0. -1.
         24    2    1    2    0    0 -0.46714996336E+03  0.40404973763E+03  0.14502320796E+03  0.63950681904E+03  0.80324106001E+02 0.  0.
        254    2    1    2    0    0  0.46714996336E+03 -0.40404973763E+03 -0.46746880752E+03  0.12022168353E+04  0.91940902454E+03 0.  0.
         23    2    4    4    0    0  0.65429305153E+03 -0.19086914876E+03 -0.50076155271E+02  0.68951496427E+03  0.91612419452E+02 0.  0.
         23    2    4    4    0    0 -0.18714308817E+03 -0.21318058887E+03 -0.41739265224E+03  0.51270187106E+03  0.90432756874E+02 0.  0.
          4    1    3    3  502    0 -0.88368323443E+02  0.98745832286E+02  0.24251387280E+01  0.13253520770E+03  0.00000000000E+00 0. -1.
         -3    1    3    3    0  502 -0.37878163992E+03  0.30530390535E+03  0.14259806923E+03  0.50697161134E+03  0.00000000000E+00 0.  1.
         11    1    5    5    0    0  0.47239105246E+03 -0.96670360893E+02 -0.21228622089E+02  0.48264802861E+03  0.00000000000E+00 0. -1.
        -11    1    5    5    0    0  0.18190199907E+03 -0.94198787869E+02 -0.28847533181E+02  0.20686693566E+03  0.00000000000E+00 0.  1.
          1    1    6    6  503    0 -0.51359643695E+02 -0.11307553817E+03 -0.13245871299E+03  0.18157422995E+03  0.00000000000E+00 0. -1.
         -1    1    6    6    0  503 -0.13578344447E+03 -0.10010505070E+03 -0.28493393925E+03  0.33112764111E+03  0.00000000000E+00 0.  1.
<mgrwt>
<rscale>  0 0.18132774E+04</rscale>
<asrwt>0</asrwt>
<pdfrwt beam="1">  1        2 0.16647456E+00 0.18132774E+04</pdfrwt>
<pdfrwt beam="2">  1       -1 0.11686754E+00 0.18132774E+04</pdfrwt>
<totfact> 0.15876123E+01</totfact>
</mgrwt>
</event>
<event>
12    6  0.1542110E-007  0.1365161E+04  0.7818608E-02  0.8979430E-01
         -1   -1    0    0    0  501 -0.00000000000E+00  0.00000000000E+00  0.43612650216E+03  0.43612650216E+03  0.00000000000E+00 0.  1.
          2   -1    0    0  501    0  0.00000000000E+00 -0.00000000000E+00 -0.10683053422E+04  0.10683053422E+04  0.00000000000E+00 0. -1.
         24    2    1    2    0    0 -0.88814456129E+02  0.29054712936E+03 -0.43576408222E+03  0.53706772483E+03  0.79030144283E+02 0.  0.
        254    2    1    2    0    0  0.88814456129E+02 -0.29054712936E+03 -0.19641475785E+03  0.96736411957E+03  0.89716717547E+03 0.  0.
         23    2    4    4    0    0 -0.29564806392E+03  0.15591850156E+03 -0.11614642195E+03  0.36540898986E+03  0.91188714811E+02 0.  0.
         23    2    4    4    0    0  0.38446252005E+03 -0.44646563091E+03 -0.80268335900E+02  0.60195512971E+03  0.93616149953E+02 0.  0.
          2    1    3    3  502    0 -0.48293439333E+00 -0.42645844410E+01 -0.16024988180E+02  0.16589760464E+02  0.00000000000E+00 0. -1.
         -1    1    3    3    0  502 -0.88331521736E+02  0.29481171380E+03 -0.41973909404E+03  0.52047796436E+03  0.00000000000E+00 0.  1.
         11    1    5    5    0    0 -0.21803787559E+03  0.79455647859E+02 -0.48224710121E+02  0.23702180877E+03  0.00000000000E+00 0. -1.
        -11    1    5    5    0    0 -0.77610188330E+02  0.76462853700E+02 -0.67921711832E+02  0.12838718108E+03  0.00000000000E+00 0.  1.
          2    1    6    6  503    0  0.18290024110E+03 -0.14312142722E+03 -0.37454401916E+02  0.23524258404E+03  0.00000000000E+00 0. -1.
         -2    1    6    6    0  503  0.20156227895E+03 -0.30334420370E+03 -0.42813933984E+02  0.36671254567E+03  0.00000000000E+00 0.  1.
<mgrwt>
<rscale>  0 0.13651612E+04</rscale>
<asrwt>0</asrwt>
<pdfrwt beam="1">  1        2 0.16435466E+00 0.13651612E+04</pdfrwt>
<pdfrwt beam="2">  1       -1 0.67096386E-01 0.13651612E+04</pdfrwt>
<totfact> 0.57095133E+01</totfact>
</mgrwt>
</event>
<event>
12    6  0.1542110E-007  0.1488789E+04  0.7818608E-02  0.8891943E-01
          2   -1    0    0  501    0  0.00000000000E+00  0.00000000000E+00  0.40706735827E+03  0.40706735827E+03  0.00000000000E+00 0. -1.
         -1   -1    0    0    0  501 -0.00000000000E+00 -0.00000000000E+00 -0.13612563083E+04  0.13612563083E+04  0.00000000000E+00 0.  1.
         24    2    1    2    0    0  0.54776791024E+02 -0.26719413013E+03  0.14281693185E+03  0.31843355519E+03  0.81302232660E+02 0.  0.
        254    2    1    2    0    0 -0.54776791024E+02  0.26719413013E+03 -0.10970058819E+04  0.14498901114E+04  0.90794616039E+03 0.  0.
         23    2    4    4    0    0  0.22468760284E+03 -0.22289085713E+03 -0.19565823040E+03  0.38280614848E+03  0.89964165786E+02 0.  0.
         23    2    4    4    0    0 -0.27946439387E+03  0.49008498726E+03 -0.90134765147E+03  0.10670839629E+04  0.89201753649E+02 0.  0.
          2    1    3    3  502    0  0.58410946530E+02 -0.26803930197E+03  0.14826342907E+03  0.31183160596E+03  0.00000000000E+00 0. -1.
         -1    1    3    3    0  502 -0.36341555056E+01  0.84517184290E+00 -0.54464972163E+01  0.66019492281E+01  0.00000000000E+00 0.  1.
         11    1    5    5    0    0  0.12955960400E+03 -0.12907522492E+03 -0.16366429888E+03  0.24542230421E+03  0.00000000000E+00 0. -1.
        -11    1    5    5    0    0  0.95127998841E+02 -0.93815632216E+02 -0.31993931520E+02  0.13738384427E+03  0.00000000000E+00 0.  1.
          1    1    6    6  503    0 -0.76071522397E+01 -0.16531621460E+01 -0.52276827612E+01  0.93771198846E+01  0.00000000000E+00 0. -1.
         -1    1    6    6    0  503 -0.27185724163E+03  0.49173814941E+03 -0.89611996871E+03  0.10577068430E+04  0.00000000000E+00 0.  1.
<mgrwt>
<rscale>  0 0.14887888E+04</rscale>
<asrwt>0</asrwt>
<pdfrwt beam="1">  1        2 0.62625747E-01 0.14887888E+04</pdfrwt>
<pdfrwt beam="2">  1       -1 0.20942405E+00 0.14887888E+04</pdfrwt>
<totfact> 0.11186708E+01</totfact>
</mgrwt>
</event>
<event>
12    6  0.1618233E-007  0.2358628E+04  0.7818608E-02  0.8455157E-01
         -1   -1    0    0    0  501 -0.00000000000E+00  0.00000000000E+00  0.11159209451E+04  0.11159209451E+04  0.00000000000E+00 0.  1.
          2   -1    0    0  501    0  0.00000000000E+00 -0.00000000000E+00 -0.12463084703E+04  0.12463084703E+04  0.00000000000E+00 0. -1.
         24    2    1    2    0    0 -0.38226217831E+03  0.23814547224E+03 -0.95951946878E+03  0.10629977659E+04  0.80305668305E+02 0.  0.
        254    2    1    2    0    0  0.38226217831E+03 -0.23814547224E+03  0.82913194354E+03  0.12992316495E+04  0.89314358327E+03 0.  0.
         23    2    4    4    0    0  0.14201437142E+02  0.37411443071E+02 -0.16896594763E+03  0.19661693497E+03  0.92235734767E+02 0.  0.
         23    2    4    4    0    0  0.36806074117E+03 -0.27555691531E+03  0.99809789117E+03  0.11026147145E+04  0.90329870931E+02 0.  0.
          2    1    3    3  502    0 -0.36639817023E+03  0.24214457929E+03 -0.93994580502E+03  0.10374872205E+04  0.00000000000E+00 0. -1.
         -1    1    3    3    0  502 -0.15864008084E+02 -0.39991070484E+01 -0.19573663759E+02  0.25510545322E+02  0.00000000000E+00 0.  1.
         11    1    5    5    0    0 -0.11143488773E+02  0.62161821619E+02 -0.12591381367E+03  0.14086361447E+03  0.00000000000E+00 0. -1.
        -11    1    5    5    0    0  0.25344925914E+02 -0.24750378548E+02 -0.43052133958E+02  0.55753320495E+02  0.00000000000E+00 0.  1.
          4    1    6    6  503    0  0.33758779645E+03 -0.26550060309E+03  0.96626772100E+03  0.10574163793E+04  0.00000000000E+00 0. -1.
         -4    1    6    6    0  503  0.30472944716E+02 -0.10056312220E+02  0.31830170164E+02  0.45198335232E+02  0.00000000000E+00 0.  1.
<mgrwt>
<rscale>  0 0.23586282E+04</rscale>
<asrwt>0</asrwt>
<pdfrwt beam="1">  1        2 0.19173976E+00 0.23586282E+04</pdfrwt>
<pdfrwt beam="2">  1       -1 0.17168015E+00 0.23586282E+04</pdfrwt>
<totfact> 0.43724294E+00</totfact>
</mgrwt>
</event>
<event>
12    6  0.1542110E-007  0.1454265E+04  0.7818608E-02  0.8915449E-01
         -3   -1    0    0    0  501 -0.00000000000E+00  0.00000000000E+00  0.24494621574E+04  0.24494621574E+04  0.00000000000E+00 0.  1.
          4   -1    0    0  501    0  0.00000000000E+00 -0.00000000000E+00 -0.21585227663E+03  0.21585227663E+03  0.00000000000E+00 0. -1.
         24    2    1    2    0    0  0.31557256960E+03  0.24004566029E+03  0.10347990227E+04  0.11109916756E+04  0.79281272940E+02 0.  0.
        254    2    1    2    0    0 -0.31557256960E+03 -0.24004566029E+03  0.11988108581E+04  0.15543227585E+04  0.90640156562E+03 0.  0.
         23    2    4    4    0    0  0.24883666215E+03 -0.21487623281E+03  0.17890029671E+03  0.38485108089E+03  0.89518481016E+02 0.  0.
         23    2    4    4    0    0 -0.56440923175E+03 -0.25169427480E+02  0.10199105614E+04  0.11694716776E+04  0.90857968013E+02 0.  0.
          4    1    3    3  502    0  0.65823258220E+02  0.59567473016E+02  0.15279875681E+03  0.17671571874E+03  0.00000000000E+00 0. -1.
         -3    1    3    3    0  502  0.24974931138E+03  0.18047818728E+03  0.88200026587E+03  0.93427595688E+03  0.00000000000E+00 0.  1.
         11    1    5    5    0    0  0.15516785520E+03 -0.85481321780E+02  0.12276317385E+03  0.21553402634E+03  0.00000000000E+00 0. -1.
        -11    1    5    5    0    0  0.93668806955E+02 -0.12939491103E+03  0.56137122863E+02  0.16931705455E+03  0.00000000000E+00 0.  1.
          2    1    6    6  503    0 -0.55672747317E+02  0.18875194652E+02  0.73772001307E+02  0.94329401269E+02  0.00000000000E+00 0. -1.
         -2    1    6    6    0  503 -0.50873648443E+03 -0.44044622132E+02  0.94613856011E+03  0.10751422763E+04  0.00000000000E+00 0.  1.
<mgrwt>
<rscale>  0 0.14542654E+04</rscale>
<asrwt>0</asrwt>
<pdfrwt beam="1">  1        4 0.33208044E-01 0.14542654E+04</pdfrwt>
<pdfrwt beam="2">  1       -3 0.37684031E+00 0.14542654E+04</pdfrwt>
<totfact> 0.28176830E-01</totfact>
</mgrwt>
</event>
<event>
12    6  0.1542110E-007  0.1613243E+04  0.7818608E-02  0.8812453E-01
          2   -1    0    0  501    0  0.00000000000E+00  0.00000000000E+00  0.41274869585E+03  0.41274869585E+03  0.00000000000E+00 0. -1.
         -1   -1    0    0    0  501 -0.00000000000E+00 -0.00000000000E+00 -0.15763551081E+04  0.15763551081E+04  0.00000000000E+00 0.  1.
         24    2    1    2    0    0  0.26033431727E+03  0.10635618998E+03 -0.99183873838E+03  0.10339926396E+04  0.79442431908E+02 0.  0.
        254    2    1    2    0    0 -0.26033431727E+03 -0.10635618998E+03 -0.17176767388E+03  0.95511116431E+03  0.89646394602E+03 0.  0.
         23    2    4    4    0    0 -0.42192468926E+03 -0.25586597749E+02 -0.44225908753E+03  0.61845678973E+03  0.90667430029E+02 0.  0.
         23    2    4    4    0    0  0.16159037198E+03 -0.80769592231E+02  0.27049141364E+03  0.33665437459E+03  0.86806611072E+02 0.  0.
          2    1    3    3  502    0  0.96973765809E+02  0.54603344241E+02 -0.26886047144E+03  0.29098348675E+03  0.00000000000E+00 0. -1.
         -1    1    3    3    0  502  0.16336055146E+03  0.51752845739E+02 -0.72297826695E+03  0.74300915290E+03  0.00000000000E+00 0.  1.
         11    1    5    5    0    0 -0.86565181362E+01  0.14728913883E+02 -0.17457231856E+02  0.24426034359E+02  0.00000000000E+00 0. -1.
        -11    1    5    5    0    0 -0.41326817112E+03 -0.40315511632E+02 -0.42480185567E+03  0.59403075537E+03  0.00000000000E+00 0.  1.
          1    1    6    6  503    0  0.11176648086E+03 -0.48154566747E+02  0.10485981417E+03  0.16064304893E+03  0.00000000000E+00 0. -1.
         -1    1    6    6    0  503  0.49823891124E+02 -0.32615025484E+02  0.16563159948E+03  0.17601132565E+03  0.00000000000E+00 0.  1.
<mgrwt>
<rscale>  0 0.16132433E+04</rscale>
<asrwt>0</asrwt>
<pdfrwt beam="1">  1        2 0.63499801E-01 0.16132433E+04</pdfrwt>
<pdfrwt beam="2">  1       -1 0.24251617E+00 0.16132433E+04</pdfrwt>
<totfact> 0.65639045E+00</totfact>
</mgrwt>
</event>
<event>
12    6  0.1542110E-007  0.1295392E+04  0.7818608E-02  0.9033227E-01
         -1   -1    0    0    0  501 -0.00000000000E+00  0.00000000000E+00  0.76612297186E+03  0.76612297186E+03  0.00000000000E+00 0.  1.
          2   -1    0    0  501    0  0.00000000000E+00 -0.00000000000E+00 -0.54757569508E+03  0.54757569508E+03  0.00000000000E+00 0. -1.
         24    2    1    2    0    0 -0.22473200702E+03  0.40718558829E+02 -0.18381130763E+03  0.30375266010E+03  0.79477076525E+02 0.  0.
        254    2    1    2    0    0  0.22473200702E+03 -0.40718558829E+02  0.40235858442E+03  0.10099460068E+04  0.89773939996E+03 0.  0.
         23    2    4    4    0    0 -0.89289306884E+01  0.21778928869E+03 -0.19953916626E+03  0.30824647926E+03  0.87681885432E+02 0.  0.
         23    2    4    4    0    0  0.23366093771E+03 -0.25850784752E+03  0.60189775068E+03  0.70169952756E+03  0.93153548880E+02 0.  0.
          2    1    3    3  502    0 -0.19586672812E+03  0.62573163164E+02 -0.15639901701E+03  0.25834052809E+03  0.00000000000E+00 0. -1.
         -1    1    3    3    0  502 -0.28865278904E+02 -0.21854604335E+02 -0.27412290629E+02  0.45412132018E+02  0.00000000000E+00 0.  1.
         11    1    5    5    0    0  0.27976139995E+02  0.17808254886E+03 -0.14495872984E+03  0.23132032330E+03  0.00000000000E+00 0. -1.
        -11    1    5    5    0    0 -0.36905070683E+02  0.39706739832E+02 -0.54580436425E+02  0.76926155959E+02  0.00000000000E+00 0.  1.
          4    1    6    6  503    0  0.11383407033E+03 -0.17071573687E+03  0.41504403032E+03  0.46299417435E+03  0.00000000000E+00 0. -1.
         -4    1    6    6    0  503  0.11982686738E+03 -0.87792110655E+02  0.18685372036E+03  0.23870535321E+03  0.00000000000E+00 0.  1.
<mgrwt>
<rscale>  0 0.12953923E+04</rscale>
<asrwt>0</asrwt>
<pdfrwt beam="1">  1        2 0.84242415E-01 0.12953923E+04</pdfrwt>
<pdfrwt beam="2">  1       -1 0.11786507E+00 0.12953923E+04</pdfrwt>
<totfact> 0.40139183E+01</totfact>
</mgrwt>
</event>
<event>
12    6  0.1542110E-007  0.1362235E+04  0.7818608E-02  0.8981617E-01
         -1   -1    0    0    0  501 -0.00000000000E+00  0.00000000000E+00  0.18924118243E+03  0.18924118243E+03  0.00000000000E+00 0.  1.
          2   -1    0    0  501    0  0.00000000000E+00 -0.00000000000E+00 -0.24514815753E+04  0.24514815753E+04  0.00000000000E+00 0. -1.
         24    2    1    2    0    0 -0.58354945265E+02  0.10741053252E+03 -0.13371214799E+04  0.13451165917E+04  0.80637901755E+02 0.  0.
        254    2    1    2    0    0  0.58354945265E+02 -0.10741053252E+03 -0.92511891299E+03  0.12956061660E+04  0.89878140399E+03 0.  0.
         23    2    4    4    0    0 -0.17754947206E+03 -0.86644854950E+02 -0.10055243876E+04  0.10289355839E+04  0.92725378201E+02 0.  0.
         23    2    4    4    0    0  0.23590441733E+03 -0.20765677569E+02  0.80405474644E+02  0.26667058213E+03  0.92552966144E+02 0.  0.
          4    1    3    3  502    0 -0.65075585487E+02  0.11506111755E+03 -0.12971596909E+04  0.13038777382E+04  0.00000000000E+00 0. -1.
         -3    1    3    3    0  502  0.67206402217E+01 -0.76505850317E+01 -0.39961788950E+02  0.41238853433E+02  0.00000000000E+00 0.  1.
         11    1    5    5    0    0 -0.16378056304E+03 -0.59257810091E+02 -0.67926166182E+03  0.70123602738E+03  0.00000000000E+00 0. -1.
        -11    1    5    5    0    0 -0.13768909029E+02 -0.27387044859E+02 -0.32626272582E+03  0.32769955651E+03  0.00000000000E+00 0.  1.
          1    1    6    6  503    0  0.20475573080E+03 -0.41056782287E+02  0.41604855275E+02  0.21293551289E+03  0.00000000000E+00 0. -1.
         -1    1    6    6    0  503  0.31148686531E+02  0.20291104718E+02  0.38800619370E+02  0.53735069245E+02  0.00000000000E+00 0.  1.
<mgrwt>
<rscale>  0 0.13622353E+04</rscale>
<asrwt>0</asrwt>
<pdfrwt beam="1">  1        2 0.37715102E+00 0.13622353E+04</pdfrwt>
<pdfrwt beam="2">  1       -1 0.29114027E-01 0.13622353E+04</pdfrwt>
<totfact> 0.44553971E+01</totfact>
</mgrwt>
</event>
<event>
12    6  0.1542110E-007  0.1094498E+04  0.7818608E-02  0.9210571E-01
         -1   -1    0    0    0  501 -0.00000000000E+00  0.00000000000E+00  0.13619128681E+03  0.13619128681E+03  0.00000000000E+00 0.  1.
          2   -1    0    0  501    0  0.00000000000E+00 -0.00000000000E+00 -0.21989773593E+04  0.21989773593E+04  0.00000000000E+00 0. -1.
         24    2    1    2    0    0 -0.12192845656E+03  0.64118190754E+02 -0.16627878172E+03  0.23048374438E+03  0.80600448334E+02 0.  0.
        254    2    1    2    0    0  0.12192845656E+03 -0.64118190754E+02 -0.18965072908E+04  0.21046849017E+04  0.90220892298E+03 0.  0.
         23    2    4    4    0    0  0.48916134775E+03  0.45100308627E+02 -0.12779821024E+04  0.13715111838E+04  0.80571775905E+02 0.  0.
         23    2    4    4    0    0 -0.36723289119E+03 -0.10921849938E+03 -0.61852518833E+03  0.73317371796E+03  0.90452280925E+02 0.  0.
          2    1    3    3  502    0 -0.62468747449E+02  0.19402722308E+02 -0.13454100790E+03  0.14959977556E+03  0.00000000000E+00 0. -1.
         -1    1    3    3    0  502 -0.59459709111E+02  0.44715468446E+02 -0.31737773816E+02  0.80883968824E+02  0.00000000000E+00 0.  1.
         11    1    5    5    0    0  0.14006185336E+02  0.10347708960E+02 -0.87894550859E+02  0.89603015457E+02  0.00000000000E+00 0.  1.
        -11    1    5    5    0    0  0.47515516241E+03  0.34752599666E+02 -0.11900875516E+04  0.12819081683E+04  0.00000000000E+00 0. -1.
          3    1    6    6  503    0 -0.22138186273E+03 -0.82074820865E+02 -0.45340054193E+03  0.51119297412E+03  0.00000000000E+00 0. -1.
         -3    1    6    6    0  503 -0.14585102846E+03 -0.27143678515E+02 -0.16512464640E+03  0.22198074383E+03  0.00000000000E+00 0.  1.
<mgrwt>
<rscale>  0 0.10944982E+04</rscale>
<asrwt>0</asrwt>
<pdfrwt beam="1">  1        2 0.33830420E+00 0.10944982E+04</pdfrwt>
<pdfrwt beam="2">  1       -1 0.20952506E-01 0.10944982E+04</pdfrwt>
<totfact> 0.11115390E+02</totfact>
</mgrwt>
</event>
<event>
12    6  0.1542110E-007  0.2964236E+04  0.7818608E-02  0.8254018E-01
         -1   -1    0    0    0  501 -0.00000000000E+00  0.00000000000E+00  0.24301807886E+04  0.24301807886E+04  0.00000000000E+00 0.  1.
          2   -1    0    0  501    0  0.00000000000E+00 -0.00000000000E+00 -0.90391378287E+03  0.90391378287E+03  0.00000000000E+00 0. -1.
         24    2    1    2    0    0 -0.12700014210E+04 -0.28162823942E+03  0.10730360648E+04  0.16882420471E+04  0.80850099954E+02 0.  0.
        254    2    1    2    0    0  0.12700014210E+04  0.28162823942E+03  0.45323094089E+03  0.16458525244E+04  0.90066318439E+03 0.  0.
         23    2    4    4    0    0  0.62367771676E+03 -0.28897162903E+03  0.33767301847E+03  0.77113344422E+03  0.90250898209E+02 0.  0.
         23    2    4    4    0    0  0.64632370420E+03  0.57059986845E+03  0.11555792242E+03  0.87471908015E+03  0.91985299095E+02 0.  0.
          4    1    3    3  502    0 -0.63118926102E+03 -0.11812544340E+03  0.48494588879E+03  0.80469001401E+03  0.00000000000E+00 0. -1.
         -3    1    3    3    0  502 -0.63881215995E+03 -0.16350279603E+03  0.58809017606E+03  0.88355203309E+03  0.00000000000E+00 0.  1.
         11    1    5    5    0    0  0.14521934871E+02 -0.15774126459E+02 -0.29550756821E+01  0.21643523979E+02  0.00000000000E+00 0.  1.
        -11    1    5    5    0    0  0.60915578189E+03 -0.27319750257E+03  0.34062809415E+03  0.74948992024E+03  0.00000000000E+00 0. -1.
          3    1    6    6  503    0  0.58451767728E+03  0.54565067225E+03  0.96680305486E+02  0.80544562364E+03  0.00000000000E+00 0. -1.
         -3    1    6    6    0  503  0.61806026925E+02  0.24949196208E+02  0.18877616931E+02  0.69273456509E+02  0.00000000000E+00 0.  1.
<mgrwt>
<rscale>  0 0.29642361E+04</rscale>
<asrwt>0</asrwt>
<pdfrwt beam="1">  1        2 0.13906366E+00 0.29642361E+04</pdfrwt>
<pdfrwt beam="2">  1       -1 0.37387396E+00 0.29642361E+04</pdfrwt>
<totfact> 0.30677087E-01</totfact>
</mgrwt>
</event>
<event>
12    6  0.1542110E-007  0.3843549E+04  0.7818608E-02  0.8036873E-01
          2   -1    0    0  501    0  0.00000000000E+00  0.00000000000E+00  0.51065251690E+04  0.51065251690E+04  0.00000000000E+00 0. -1.
         -1   -1    0    0    0  501 -0.00000000000E+00 -0.00000000000E+00 -0.72323481217E+03  0.72323481217E+03  0.00000000000E+00 0.  1.
         24    2    1    2    0    0  0.12372455661E+04  0.71131048861E+03  0.38096888964E+04  0.40691503738E+04  0.86695301102E+02 0.  0.
        254    2    1    2    0    0 -0.12372455661E+04 -0.71131048861E+03  0.57360146042E+03  0.17606096073E+04  0.85673120170E+03 0.  0.
         23    2    4    4    0    0 -0.12747912334E+04 -0.43632889908E+03  0.35822628888E+03  0.13971795708E+04  0.91154165702E+02 0.  0.
         23    2    4    4    0    0  0.37545667300E+02 -0.27498158953E+03  0.21537517155E+03  0.36343003658E+03  0.93114849814E+02 0.  0.
          2    1    3    3  502    0  0.56256718039E+03  0.28991035529E+03  0.17789052095E+04  0.18881296542E+04  0.00000000000E+00 0. -1.
         -1    1    3    3    0  502  0.67467838574E+03  0.42140013332E+03  0.20307836868E+04  0.21810207196E+04  0.00000000000E+00 0.  1.
         11    1    5    5    0    0 -0.12512405455E+04 -0.41472165375E+03  0.34491719550E+03  0.13625581913E+04  0.00000000000E+00 0. -1.
        -11    1    5    5    0    0 -0.23550687908E+02 -0.21607245331E+02  0.13309093380E+02  0.34621379498E+02  0.00000000000E+00 0.  1.
          3    1    6    6  503    0  0.59223168255E+02 -0.18400332418E+03  0.10948834345E+03  0.22215378529E+03  0.00000000000E+00 0.  1.
         -3    1    6    6    0  503 -0.21677500954E+02 -0.90978265347E+02  0.10588682810E+03  0.14127625129E+03  0.00000000000E+00 0. -1.
<mgrwt>
<rscale>  0 0.38435488E+04</rscale>
<asrwt>0</asrwt>
<pdfrwt beam="1">  1        2 0.78561923E+00 0.38435488E+04</pdfrwt>
<pdfrwt beam="2">  1       -1 0.11126690E+00 0.38435488E+04</pdfrwt>
<totfact> 0.16567685E-02</totfact>
</mgrwt>
</event>
<event>
12    6  0.1542110E-007  0.1526537E+04  0.7818608E-02  0.8866995E-01
         -1   -1    0    0    0  501 -0.00000000000E+00  0.00000000000E+00  0.27452523333E+03  0.27452523333E+03  0.00000000000E+00 0.  1.
          2   -1    0    0  501    0  0.00000000000E+00 -0.00000000000E+00 -0.21221330184E+04  0.21221330184E+04  0.00000000000E+00 0. -1.
         24    2    1    2    0    0 -0.23801606970E+03 -0.22534911112E+03 -0.24768395421E+02  0.33825173034E+03  0.79792783810E+02 0.  0.
        254    2    1    2    0    0  0.23801606970E+03  0.22534911112E+03 -0.18228393897E+04  0.20584065214E+04  0.89825391483E+03 0.  0.
         23    2    4    4    0    0  0.19191427083E+03 -0.31284229791E+03 -0.49910346658E+03  0.62604677256E+03  0.90160414669E+02 0.  0.
         23    2    4    4    0    0  0.46101798869E+02  0.53819140904E+03 -0.13237359231E+04  0.14323597489E+04  0.87191096998E+02 0.  0.
          4    1    3    3  502    0 -0.83952781933E+02 -0.42152217022E+02 -0.30643791142E+02  0.98812554515E+02  0.00000000000E+00 0. -1.
         -1    1    3    3    0  502 -0.15406328777E+03 -0.18319689410E+03  0.58753957212E+01  0.23943917583E+03  0.00000000000E+00 0.  1.
         11    1    5    5    0    0  0.15274170768E+03 -0.25305928891E+03 -0.45329942935E+03  0.54115562052E+03  0.00000000000E+00 0.  1.
        -11    1    5    5    0    0  0.39172563150E+02 -0.59783009002E+02 -0.45804037230E+02  0.84891152046E+02  0.00000000000E+00 0. -1.
          1    1    6    6  503    0  0.86190336346E+01  0.24279927970E+03 -0.48733231384E+03  0.54453517983E+03  0.00000000000E+00 0. -1.
         -1    1    6    6    0  503  0.37482765235E+02  0.29539212934E+03 -0.83640360927E+03  0.88782456903E+03  0.00000000000E+00 0.  1.
<mgrwt>
<rscale>  0 0.15265373E+04</rscale>
<asrwt>0</asrwt>
<pdfrwt beam="1">  1        2 0.32648199E+00 0.15265373E+04</pdfrwt>
<pdfrwt beam="2">  1       -1 0.42234653E-01 0.15265373E+04</pdfrwt>
<totfact> 0.34586711E+01</totfact>
</mgrwt>
</event>
<event>
12    6  0.1542110E-007  0.2085986E+04  0.7818608E-02  0.8567442E-01
         -1   -1    0    0    0  501 -0.00000000000E+00  0.00000000000E+00  0.10510744536E+04  0.10510744536E+04  0.00000000000E+00 0.  1.
          2   -1    0    0  501    0  0.00000000000E+00 -0.00000000000E+00 -0.10349738538E+04  0.10349738538E+04  0.00000000000E+00 0. -1.
         24    2    1    2    0    0 -0.71930075621E+03  0.38369859451E+03 -0.23045268026E+03  0.85096967273E+03  0.80142103565E+02 0.  0.
        254    2    1    2    0    0  0.71930075621E+03 -0.38369859451E+03  0.24655327999E+03  0.12350786346E+04  0.89443419241E+03 0.  0.
         23    2    4    4    0    0  0.22614347526E+03 -0.27381562182E+03  0.53316361136E+03  0.64689387679E+03  0.89957685570E+02 0.  0.
         23    2    4    4    0    0  0.49315728094E+03 -0.10988297269E+03 -0.28661033137E+03  0.58818475785E+03  0.92398354297E+02 0.  0.
          2    1    3    3  502    0 -0.21107490832E+03  0.13662276587E+03 -0.10275664485E+03  0.27161981727E+03  0.00000000000E+00 0. -1.
         -1    1    3    3    0  502 -0.50822584789E+03  0.24707582864E+03 -0.12769603541E+03  0.57934985546E+03  0.00000000000E+00 0.  1.
         11    1    5    5    0    0  0.67689539123E+02 -0.74537679935E+02  0.86382974538E+02  0.13266407851E+03  0.00000000000E+00 0. -1.
        -11    1    5    5    0    0  0.15845393614E+03 -0.19927794189E+03  0.44678063682E+03  0.51422979828E+03  0.00000000000E+00 0.  1.
          3    1    6    6  503    0  0.94911333806E+02  0.30698374148E+01 -0.23961956349E+02  0.97937533860E+02  0.00000000000E+00 0. -1.
         -3    1    6    6    0  503  0.39824594714E+03 -0.11295281010E+03 -0.26264837502E+03  0.49024722399E+03  0.00000000000E+00 0.  1.
<mgrwt>
<rscale>  0 0.20859862E+04</rscale>
<asrwt>0</asrwt>
<pdfrwt beam="1">  1        2 0.15922675E+00 0.20859862E+04</pdfrwt>
<pdfrwt beam="2">  1       -1 0.16170376E+00 0.20859862E+04</pdfrwt>
<totfact> 0.71424956E+00</totfact>
</mgrwt>
</event>
<event>
12    6  0.1542110E-007  0.1485908E+04  0.7818608E-02  0.8893878E-01
         -1   -1    0    0    0  501 -0.00000000000E+00  0.00000000000E+00  0.49844410645E+03  0.49844410645E+03  0.00000000000E+00 0.  1.
          2   -1    0    0  501    0  0.00000000000E+00 -0.00000000000E+00 -0.11074077185E+04  0.11074077185E+04  0.00000000000E+00 0. -1.
         24    2    1    2    0    0 -0.10737918733E+03 -0.43736051554E+03 -0.63187567445E+02  0.46183097521E+03  0.80502612141E+02 0.  0.
        254    2    1    2    0    0  0.10737918733E+03  0.43736051554E+03 -0.54577604465E+03  0.11440208498E+04  0.89894254734E+03 0.  0.
         23    2    4    4    0    0 -0.28468781051E+03  0.20717761415E+03 -0.57429277648E+03  0.67981977503E+03  0.91504208299E+02 0.  0.
         23    2    4    4    0    0  0.39206699784E+03  0.23018290139E+03  0.28516731838E+02  0.46420107476E+03  0.89267770924E+02 0.  0.
          4    1    3    3  502    0 -0.45545296842E+02 -0.75940620914E+02 -0.30705066149E+02  0.93723812644E+02  0.00000000000E+00 0. -1.
         -3    1    3    3    0  502 -0.61833890486E+02 -0.36141989463E+03 -0.32482501296E+02  0.36810716257E+03  0.00000000000E+00 0.  1.
         11    1    5    5    0    0 -0.12288264113E+03  0.59481107104E+02 -0.15360233526E+03  0.20550382720E+03  0.00000000000E+00 0.  1.
        -11    1    5    5    0    0 -0.16180516938E+03  0.14769650704E+03 -0.42069044122E+03  0.47431594783E+03  0.00000000000E+00 0. -1.
          2    1    6    6  503    0  0.25730579723E+03  0.17083547714E+03  0.57404435058E+02  0.31414376120E+03  0.00000000000E+00 0. -1.
         -2    1    6    6    0  503  0.13476120061E+03  0.59347424255E+02 -0.28887703220E+02  0.15005731356E+03  0.00000000000E+00 0.  1.
<mgrwt>
<rscale>  0 0.14859083E+04</rscale>
<asrwt>0</asrwt>
<pdfrwt beam="1">  1        2 0.17037042E+00 0.14859083E+04</pdfrwt>
<pdfrwt beam="2">  1       -1 0.76683709E-01 0.14859083E+04</pdfrwt>
<totfact> 0.40587288E+01</totfact>
</mgrwt>
</event>
<event>
12    6  0.1542110E-007  0.2064883E+04  0.7818608E-02  0.8576872E-01
         -1   -1    0    0    0  501 -0.00000000000E+00  0.00000000000E+00  0.42502271582E+03  0.42502271582E+03  0.00000000000E+00 0.  1.
          2   -1    0    0  501    0  0.00000000000E+00 -0.00000000000E+00 -0.25079498618E+04  0.25079498618E+04  0.00000000000E+00 0. -1.
         24    2    1    2    0    0 -0.12638114960E+03  0.51579701568E+03 -0.17648182615E+04  0.18447850387E+04  0.81422273147E+02 0.  0.
        254    2    1    2    0    0  0.12638114960E+03 -0.51579701568E+03 -0.31810888444E+03  0.10881875389E+04  0.89495256916E+03 0.  0.
         23    2    4    4    0    0  0.36086008934E+03 -0.34029067123E+03  0.15253862007E+03  0.52618933327E+03  0.87117385360E+02 0.  0.
         23    2    4    4    0    0 -0.23447893974E+03 -0.17550634444E+03 -0.47064750452E+03  0.56199820561E+03  0.92466531661E+02 0.  0.
          4    1    3    3  502    0 -0.95106500430E+02  0.45268153038E+03 -0.16005572011E+04  0.16660579727E+04  0.00000000000E+00 0. -1.
         -3    1    3    3    0  502 -0.31274649165E+02  0.63115485294E+02 -0.16426106046E+03  0.17872706607E+03  0.00000000000E+00 0.  1.
         11    1    5    5    0    0  0.35153418063E+03 -0.32476940889E+03  0.12749315343E+03  0.49528370988E+03  0.00000000000E+00 0. -1.
        -11    1    5    5    0    0  0.93259087036E+01 -0.15521262348E+02  0.25045466640E+02  0.30905623392E+02  0.00000000000E+00 0.  1.
          3    1    6    6  503    0 -0.21341535825E+03 -0.17119419006E+03 -0.46540782468E+03  0.53986851096E+03  0.00000000000E+00 0. -1.
         -3    1    6    6    0  503 -0.21063581487E+02 -0.43121543841E+01 -0.52396798323E+01  0.22129694648E+02  0.00000000000E+00 0.  1.
<mgrwt>
<rscale>  0 0.20648832E+04</rscale>
<asrwt>0</asrwt>
<pdfrwt beam="1">  1        2 0.38583845E+00 0.20648832E+04</pdfrwt>
<pdfrwt beam="2">  1       -1 0.65388109E-01 0.20648832E+04</pdfrwt>
<totfact> 0.85939693E+00</totfact>
</mgrwt>
</event>
<event>
12    6  0.1542110E-007  0.1529415E+04  0.7818608E-02  0.8865125E-01
         -1   -1    0    0    0  501 -0.00000000000E+00  0.00000000000E+00  0.18982924717E+03  0.18982924717E+03  0.00000000000E+00 0.  1.
          2   -1    0    0  501    0  0.00000000000E+00 -0.00000000000E+00 -0.30805451716E+04  0.30805451716E+04  0.00000000000E+00 0. -1.
         24    2    1    2    0    0 -0.29744994571E+03  0.16089136365E+03 -0.15642861099E+04  0.16024722532E+04  0.81017205049E+02 0.  0.
        254    2    1    2    0    0  0.29744994571E+03 -0.16089136365E+03 -0.13264298145E+04  0.16679021655E+04  0.95295282148E+03 0.  0.
         23    2    4    4    0    0 -0.24001464541E+03  0.36314544064E+02 -0.51942130000E+02  0.26766144930E+03  0.10009440770E+03 0.  0.
         23    2    4    4    0    0  0.53746459112E+03 -0.19720590772E+03 -0.12744876845E+04  0.14002407162E+04  0.92719192986E+02 0.  0.
          4    1    3    3  502    0 -0.27339319243E+03  0.15239894665E+03 -0.13084094149E+04  0.13453269022E+04  0.00000000000E+00 0. -1.
         -3    1    3    3    0  502 -0.24056753285E+02  0.84924169987E+01 -0.25587669502E+03  0.25714535108E+03  0.00000000000E+00 0.  1.
         11    1    5    5    0    0 -0.16270865447E+02 -0.18347417121E+02  0.13799237322E+02  0.28138722929E+02  0.00000000000E+00 0.  1.
        -11    1    5    5    0    0 -0.22374377996E+03  0.54661961184E+02 -0.65741367322E+02  0.23952272638E+03  0.00000000000E+00 0. -1.
          3    1    6    6  503    0  0.44595760692E+03 -0.14708700388E+03 -0.95611107971E+03  0.10652047553E+04  0.00000000000E+00 0. -1.
         -3    1    6    6    0  503  0.91506984210E+02 -0.50118903831E+02 -0.31837660479E+03  0.33503596099E+03  0.00000000000E+00 0.  1.
<mgrwt>
<rscale>  0 0.15294150E+04</rscale>
<asrwt>0</asrwt>
<pdfrwt beam="1">  1        2 0.47393001E+00 0.15294150E+04</pdfrwt>
<pdfrwt beam="2">  1       -1 0.29204501E-01 0.15294150E+04</pdfrwt>
<totfact> 0.18325798E+01</totfact>
</mgrwt>
</event>
<event>
12    6  0.1542110E-007  0.2011177E+04  0.7818608E-02  0.8601413E-01
          2   -1    0    0  501    0  0.00000000000E+00  0.00000000000E+00  0.21929211134E+04  0.21929211134E+04  0.00000000000E+00 0. -1.
         -1   -1    0    0    0  501 -0.00000000000E+00 -0.00000000000E+00 -0.46112383959E+03  0.46112383959E+03  0.00000000000E+00 0.  1.
         24    2    1    2    0    0 -0.18173687039E+03 -0.75058206063E+03  0.98260386541E+03  0.12522783453E+04  0.79303076633E+02 0.  0.
        254    2    1    2    0    0  0.18173687039E+03  0.75058206063E+03  0.74919340842E+03  0.14017666077E+04  0.89847489643E+03 0.  0.
         23    2    4    4    0    0 -0.18894841281E+03  0.46394539159E+03  0.76942546023E+03  0.92270296836E+03  0.91751838539E+02 0.  0.
         23    2    4    4    0    0  0.37068528320E+03  0.28663666903E+03 -0.20232051810E+02  0.47906363937E+03  0.97593418985E+02 0.  0.
          4    1    3    3  502    0 -0.18679004876E+03 -0.69427959827E+03  0.89493737916E+03  0.11479667223E+04  0.00000000000E+00 0. -1.
         -3    1    3    3    0  502  0.50531783649E+01 -0.56302462352E+02  0.87666486250E+02  0.10431162299E+03  0.00000000000E+00 0.  1.
         11    1    5    5    0    0 -0.57574056453E+02  0.14700814657E+03  0.16976044005E+03  0.23182919173E+03  0.00000000000E+00 0. -1.
        -11    1    5    5    0    0 -0.13137435635E+03  0.31693724502E+03  0.59966502019E+03  0.69087377662E+03  0.00000000000E+00 0.  1.
          1    1    6    6  503    0  0.77803604126E+02  0.15121889666E+02 -0.28048855151E+01  0.79309140361E+02  0.00000000000E+00 0. -1.
         -1    1    6    6    0  503  0.29288167908E+03  0.27151477937E+03 -0.17427166295E+02  0.39975449901E+03  0.00000000000E+00 0.  1.
<mgrwt>
<rscale>  0 0.20111770E+04</rscale>
<asrwt>0</asrwt>
<pdfrwt beam="1">  1        2 0.33737247E+00 0.20111770E+04</pdfrwt>
<pdfrwt beam="2">  1       -1 0.70942130E-01 0.20111770E+04</pdfrwt>
<totfact> 0.11053658E+01</totfact>
</mgrwt>
</event>
<event>
12    6  0.1542110E-007  0.3241330E+04  0.7818608E-02  0.8177986E-01
         -1   -1    0    0    0  501 -0.00000000000E+00  0.00000000000E+00  0.11537432416E+04  0.11537432416E+04  0.00000000000E+00 0.  1.
          2   -1    0    0  501    0  0.00000000000E+00 -0.00000000000E+00 -0.22765513846E+04  0.22765513846E+04  0.00000000000E+00 0. -1.
         24    2    1    2    0    0 -0.41470608414E+03 -0.32420015122E+03 -0.19974721018E+04  0.20672786691E+04  0.81605292376E+02 0.  0.
        254    2    1    2    0    0  0.41470608414E+03  0.32420015122E+03  0.87466395879E+03  0.13630159571E+04  0.90315479522E+03 0.  0.
         23    2    4    4    0    0  0.17248999420E+03  0.51632379465E+03  0.88197683773E+03  0.10404667317E+04  0.91349977557E+02 0.  0.
         23    2    4    4    0    0  0.24221608993E+03 -0.19212364343E+03 -0.73128789400E+01  0.32254922540E+03  0.91675493009E+02 0.  0.
          2    1    3    3  502    0 -0.23139472211E+03 -0.23123364089E+03 -0.12197135040E+04  0.12628196806E+04  0.00000000000E+00 0. -1.
         -1    1    3    3    0  502 -0.18331136203E+03 -0.92966510339E+02 -0.77775859786E+03  0.80445898841E+03  0.00000000000E+00 0.  1.
         11    1    5    5    0    0 -0.62448572059E+01  0.77656976925E+02  0.13875335665E+03  0.15912918741E+03  0.00000000000E+00 0. -1.
        -11    1    5    5    0    0  0.17873485141E+03  0.43866681773E+03  0.74322348109E+03  0.88133754426E+03  0.00000000000E+00 0.  1.
          4    1    6    6  503    0  0.30058762710E+01  0.80302439712E+01  0.58323004731E+01  0.10369948852E+02  0.00000000000E+00 0. -1.
         -4    1    6    6    0  503  0.23921021366E+03 -0.20015388740E+03 -0.13145179413E+02  0.31217927654E+03  0.00000000000E+00 0.  1.
<mgrwt>
<rscale>  0 0.32413305E+04</rscale>
<asrwt>0</asrwt>
<pdfrwt beam="1">  1        2 0.35023868E+00 0.32413305E+04</pdfrwt>
<pdfrwt beam="2">  1       -1 0.17749896E+00 0.32413305E+04</pdfrwt>
<totfact> 0.96742849E-01</totfact>
</mgrwt>
</event>
<event>
12    6  0.1542110E-007  0.1469172E+04  0.7818608E-02  0.8905216E-01
         -1   -1    0    0    0  501 -0.00000000000E+00  0.00000000000E+00  0.15104610579E+04  0.15104610579E+04  0.00000000000E+00 0.  1.
          2   -1    0    0  501    0  0.00000000000E+00 -0.00000000000E+00 -0.35725311697E+03  0.35725311697E+03  0.00000000000E+00 0. -1.
         24    2    1    2    0    0  0.19237533442E+03 -0.21192563462E+03  0.81315797870E+03  0.86569559471E+03  0.79260459695E+02 0.  0.
        254    2    1    2    0    0 -0.19237533442E+03  0.21192563462E+03  0.34004996221E+03  0.10020185801E+04  0.89804594216E+03 0.  0.
         23    2    4    4    0    0  0.34474665359E+03  0.80073823950E+01  0.17836536028E+03  0.39864659599E+03  0.90501565801E+02 0.  0.
         23    2    4    4    0    0 -0.53712198801E+03  0.20391825223E+03  0.16168460193E+03  0.60337198414E+03  0.88505125019E+02 0.  0.
          4    1    3    3  502    0  0.12404368978E+03 -0.12010816881E+03  0.37509181355E+03  0.41292454248E+03  0.00000000000E+00 0. -1.
         -3    1    3    3    0  502  0.68331644638E+02 -0.91817465810E+02  0.43806616515E+03  0.45277105223E+03  0.00000000000E+00 0.  1.
         11    1    5    5    0    0  0.98166249076E+02  0.35916074147E+02  0.26962821422E+02  0.10795170484E+03  0.00000000000E+00 0.  1.
        -11    1    5    5    0    0  0.24658040451E+03 -0.27908691752E+02  0.15140253886E+03  0.29069489114E+03  0.00000000000E+00 0. -1.
          2    1    6    6  503    0 -0.16774945482E+03  0.10243881841E+03  0.33194830626E+02  0.19933762286E+03  0.00000000000E+00 0. -1.
         -2    1    6    6    0  503 -0.36937253319E+03  0.10147943381E+03  0.12848977130E+03  0.40403436128E+03  0.00000000000E+00 0.  1.
<mgrwt>
<rscale>  0 0.14691724E+04</rscale>
<asrwt>0</asrwt>
<pdfrwt beam="1">  1        2 0.54962019E-01 0.14691724E+04</pdfrwt>
<pdfrwt beam="2">  1       -1 0.23237862E+00 0.14691724E+04</pdfrwt>
<totfact> 0.91137486E+00</totfact>
</mgrwt>
</event>
<event>
12    6  0.1542110E-007  0.1358285E+04  0.7818608E-02  0.8984580E-01
         -1   -1    0    0    0  501 -0.00000000000E+00  0.00000000000E+00  0.60084115628E+03  0.60084115628E+03  0.00000000000E+00 0.  1.
          2   -1    0    0  501    0  0.00000000000E+00 -0.00000000000E+00 -0.76764798783E+03  0.76764798783E+03  0.00000000000E+00 0. -1.
         24    2    1    2    0    0 -0.25752301737E+03  0.29306269110E+03 -0.10159416038E+03  0.41224013876E+03  0.86120341332E+02 0.  0.
        254    2    1    2    0    0  0.25752301737E+03 -0.29306269110E+03 -0.65212671172E+02  0.95624900536E+03  0.87060646814E+03 0.  0.
         23    2    4    4    0    0 -0.64565810996E+02 -0.14528240343E+03 -0.41293256395E+03  0.45191885038E+03  0.91878312266E+02 0.  0.
         23    2    4    4    0    0  0.32208882837E+03 -0.14778028767E+03  0.34771989277E+03  0.50433015498E+03  0.88654129105E+02 0.  0.
          2    1    3    3  502    0 -0.32035749480E+02  0.49806668702E+02  0.14236958379E+02  0.60907179181E+02  0.00000000000E+00 0. -1.
         -1    1    3    3    0  502 -0.22548726789E+03  0.24325602240E+03 -0.11583111876E+03  0.35133295958E+03  0.00000000000E+00 0.  1.
         11    1    5    5    0    0  0.28735160473E+01 -0.19906116321E+02 -0.16339021252E+03  0.16462342515E+03  0.00000000000E+00 0.  1.
        -11    1    5    5    0    0 -0.67439327044E+02 -0.12537628711E+03 -0.24954235143E+03  0.28729542523E+03  0.00000000000E+00 0. -1.
          2    1    6    6  503    0  0.22919450970E+03 -0.84564832508E+02  0.18435029781E+03  0.30604961440E+03  0.00000000000E+00 0. -1.
         -2    1    6    6    0  503  0.92894318664E+02 -0.63215455158E+02  0.16336959496E+03  0.19828054057E+03  0.00000000000E+00 0.  1.
<mgrwt>
<rscale>  0 0.13582850E+04</rscale>
<asrwt>0</asrwt>
<pdfrwt beam="1">  1        2 0.11809969E+00 0.13582850E+04</pdfrwt>
<pdfrwt beam="2">  1       -1 0.92437101E-01 0.13582850E+04</pdfrwt>
<totfact> 0.46183607E+01</totfact>
</mgrwt>
</event>
<event>
12    6  0.1542110E-007  0.1236613E+04  0.7818608E-02  0.9081400E-01
         -1   -1    0    0    0  501 -0.00000000000E+00  0.00000000000E+00  0.15991615425E+04  0.15991615425E+04  0.00000000000E+00 0.  1.
          2   -1    0    0  501    0  0.00000000000E+00 -0.00000000000E+00 -0.23906445232E+03  0.23906445232E+03  0.00000000000E+00 0. -1.
         24    2    1    2    0    0 -0.23375361964E+03 -0.16341532108E+03  0.30218876555E+03  0.42300163907E+03  0.79164479281E+02 0.  0.
        254    2    1    2    0    0  0.23375361964E+03  0.16341532108E+03  0.10579083246E+04  0.14152243557E+04  0.89573692113E+03 0.  0.
         23    2    4    4    0    0  0.14266472943E+03  0.62260690054E+02 -0.12713924896E+03  0.21883348624E+03  0.86568397963E+02 0.  0.
         23    2    4    4    0    0  0.91088890208E+02  0.10115463103E+03  0.11850475735E+04  0.11963908695E+04  0.92108173716E+02 0.  0.
          4    1    3    3  502    0 -0.69271387761E+02 -0.80600553668E+02  0.72717496439E+02  0.12877425481E+03  0.00000000000E+00 0. -1.
         -3    1    3    3    0  502 -0.16448223187E+03 -0.82814767416E+02  0.22947126911E+03  0.29422738426E+03  0.00000000000E+00 0.  1.
         11    1    5    5    0    0  0.60339901896E+01  0.76229590069E+01  0.12592883105E+02  0.15909093203E+02  0.00000000000E+00 0.  1.
        -11    1    5    5    0    0  0.13663073924E+03  0.54637731047E+02 -0.13973213206E+03  0.20292439304E+03  0.00000000000E+00 0. -1.
          3    1    6    6  503    0  0.10893836779E+03  0.94559113606E+02  0.10852594305E+04  0.10948045604E+04  0.00000000000E+00 0. -1.
         -3    1    6    6    0  503 -0.17849477579E+02  0.65955174244E+01  0.99788143014E+02  0.10158630905E+03  0.00000000000E+00 0.  1.
<mgrwt>
<rscale>  0 0.12366126E+04</rscale>
<asrwt>0</asrwt>
<pdfrwt beam="1">  1        2 0.36779147E-01 0.12366126E+04</pdfrwt>
<pdfrwt beam="2">  1       -1 0.24602485E+00 0.12366126E+04</pdfrwt>
<totfact> 0.11845683E+01</totfact>
</mgrwt>
</event>
<event>
12    6  0.1542110E-007  0.2397775E+04  0.7818608E-02  0.8440337E-01
          2   -1    0    0  501    0  0.00000000000E+00  0.00000000000E+00  0.15899905958E+04  0.15899905958E+04  0.00000000000E+00 0. -1.
         -1   -1    0    0    0  501 -0.00000000000E+00 -0.00000000000E+00 -0.90398740679E+03  0.90398740679E+03  0.00000000000E+00 0.  1.
         24    2    1    2    0    0 -0.73467183983E+03 -0.56539376486E+03  0.74219885570E+03  0.11900445419E+04  0.77032776911E+02 0.  0.
        254    2    1    2    0    0  0.73467183983E+03  0.56539376486E+03 -0.56195666731E+02  0.13039334607E+04  0.91524406322E+03 0.  0.
         23    2    4    4    0    0  0.57696600549E+03  0.66781524032E+03  0.26032489665E+03  0.92457326120E+03  0.90552177351E+02 0.  0.
         23    2    4    4    0    0  0.15770583435E+03 -0.10242147546E+03 -0.31652056338E+03  0.37936019945E+03  0.91474614302E+02 0.  0.
          2    1    3    3  502    0 -0.64134439248E+03 -0.47241186196E+03  0.60884249521E+03  0.10025890390E+04  0.00000000000E+00 0. -1.
         -1    1    3    3    0  502 -0.93327447350E+02 -0.92981902900E+02  0.13335636049E+03  0.18745550293E+03  0.00000000000E+00 0.  1.
         11    1    5    5    0    0  0.34394263554E+03  0.33834574208E+03  0.16520402366E+03  0.50996739814E+03  0.00000000000E+00 0.  1.
        -11    1    5    5    0    0  0.23302336994E+03  0.32946949824E+03  0.95120872994E+02  0.41460586307E+03  0.00000000000E+00 0. -1.
          3    1    6    6  503    0  0.19384989612E+02 -0.97687163162E+01  0.20776440202E-01  0.21707281552E+02  0.00000000000E+00 0.  1.
         -3    1    6    6    0  503  0.13832084473E+03 -0.92652759140E+02 -0.31654133982E+03  0.35765291790E+03  0.00000000000E+00 0. -1.
<mgrwt>
<rscale>  0 0.23977752E+04</rscale>
<asrwt>0</asrwt>
<pdfrwt beam="1">  1        2 0.24461394E+00 0.23977752E+04</pdfrwt>
<pdfrwt beam="2">  1       -1 0.13907499E+00 0.23977752E+04</pdfrwt>
<totfact> 0.49351305E+00</totfact>
</mgrwt>
</event>
<event>
12    6  0.1542110E-007  0.2118785E+04  0.7818608E-02  0.8553013E-01
         -1   -1    0    0    0  501 -0.00000000000E+00  0.00000000000E+00  0.63522323038E+03  0.63522323038E+03  0.00000000000E+00 0.  1.
          2   -1    0    0  501    0  0.00000000000E+00 -0.00000000000E+00 -0.17668002490E+04  0.17668002490E+04  0.00000000000E+00 0. -1.
         24    2    1    2    0    0  0.71587620936E+02  0.62605258561E+03  0.20933751353E+03  0.66904328556E+03  0.82037162120E+02 0.  0.
        254    2    1    2    0    0 -0.71587620936E+02 -0.62605258561E+03 -0.13409145322E+04  0.17329801938E+04  0.89894490502E+03 0.  0.
         23    2    4    4    0    0 -0.29561261951E+03  0.60137195308E+02 -0.67988752619E+03  0.74997395755E+03  0.95971796221E+02 0.  0.
         23    2    4    4    0    0  0.22402499857E+03 -0.68618978092E+03 -0.66102700597E+03  0.98300623628E+03  0.91109508460E+02 0.  0.
          2    1    3    3  502    0  0.22072439717E+02  0.26106317537E+03  0.45501605146E+02  0.26591647222E+03  0.00000000000E+00 0. -1.
         -3    1    3    3    0  502  0.49515181219E+02  0.36498941024E+03  0.16383590838E+03  0.40312681334E+03  0.00000000000E+00 0.  1.
         11    1    5    5    0    0 -0.79921466038E+02 -0.25026476973E+02 -0.15604490021E+03  0.17709821051E+03  0.00000000000E+00 0. -1.
        -11    1    5    5    0    0 -0.21569115347E+03  0.85163672282E+02 -0.52384262597E+03  0.57287574704E+03  0.00000000000E+00 0.  1.
          4    1    6    6  503    0  0.65469749369E+02 -0.23230177283E+03 -0.27912588791E+03  0.36900089843E+03  0.00000000000E+00 0. -1.
         -4    1    6    6    0  503  0.15855524920E+03 -0.45388800809E+03 -0.38190111806E+03  0.61400533785E+03  0.00000000000E+00 0.  1.
<mgrwt>
<rscale>  0 0.21187851E+04</rscale>
<asrwt>0</asrwt>
<pdfrwt beam="1">  1        2 0.27181542E+00 0.21187851E+04</pdfrwt>
<pdfrwt beam="2">  1       -1 0.97726650E-01 0.21187851E+04</pdfrwt>
<totfact> 0.94745332E+00</totfact>
</mgrwt>
</event>
<event>
12    6  0.1542110E-007  0.1609973E+04  0.7818608E-02  0.8814444E-01
         -1   -1    0    0    0  501 -0.00000000000E+00  0.00000000000E+00  0.83236261420E+03  0.83236261420E+03  0.00000000000E+00 0.  1.
          2   -1    0    0  501    0  0.00000000000E+00 -0.00000000000E+00 -0.77851098281E+03  0.77851098281E+03  0.00000000000E+00 0. -1.
         24    2    1    2    0    0  0.43462231056E+03  0.44411027425E+02 -0.32213363073E+03  0.54852536223E+03  0.79000663075E+02 0.  0.
        254    2    1    2    0    0 -0.43462231056E+03 -0.44411027425E+02  0.37598526212E+03  0.10623482348E+04  0.89238442523E+03 0.  0.
         23    2    4    4    0    0  0.15987639687E+03 -0.26690893773E+03  0.11844205708E+02  0.32461789341E+03  0.91845784860E+02 0.  0.
         23    2    4    4    0    0 -0.59449870743E+03  0.22249791030E+03  0.36414105642E+03  0.73773034136E+03  0.93345135763E+02 0.  0.
          4    1    3    3  502    0  0.40263445701E+03  0.60467508193E+02 -0.28524783141E+03  0.49712890767E+03  0.00000000000E+00 0. -1.
         -3    1    3    3    0  502  0.31987853550E+02 -0.16056480767E+02 -0.36885799326E+02  0.51396454559E+02  0.00000000000E+00 0.  1.
         11    1    5    5    0    0  0.14880108198E+03 -0.17065421315E+03  0.20495221181E+02  0.22734264130E+03  0.00000000000E+00 0. -1.
        -11    1    5    5    0    0  0.11075314894E+02 -0.96254724576E+02 -0.86510154732E+01  0.97275252104E+02  0.00000000000E+00 0.  1.
          2    1    6    6  503    0 -0.49968845417E+03  0.14860345898E+03  0.30028020670E+03  0.60161427991E+03  0.00000000000E+00 0. -1.
         -2    1    6    6    0  503 -0.94810253263E+02  0.73894451320E+02  0.63860849719E+02  0.13611606146E+03  0.00000000000E+00 0.  1.
<mgrwt>
<rscale>  0 0.16099732E+04</rscale>
<asrwt>0</asrwt>
<pdfrwt beam="1">  1        2 0.11977092E+00 0.16099732E+04</pdfrwt>
<pdfrwt beam="2">  1       -1 0.12805579E+00 0.16099732E+04</pdfrwt>
<totfact> 0.20586211E+01</totfact>
</mgrwt>
</event>
<event>
12    6  0.1542110E-007  0.2562542E+04  0.7818608E-02  0.8381037E-01
          2   -1    0    0  501    0  0.00000000000E+00  0.00000000000E+00  0.14117755626E+04  0.14117755626E+04  0.00000000000E+00 0. -1.
         -1   -1    0    0    0  501 -0.00000000000E+00 -0.00000000000E+00 -0.11628299356E+04  0.11628299356E+04  0.00000000000E+00 0.  1.
         24    2    1    2    0    0 -0.11147968074E+04 -0.33850063539E+00  0.23047624403E+03  0.11411834330E+04  0.80051810823E+02 0.  0.
        254    2    1    2    0    0  0.11147968074E+04  0.33850063539E+00  0.18469382981E+02  0.14334220652E+04  0.90088049294E+03 0.  0.
         23    2    4    4    0    0  0.24236364266E+03 -0.24251857283E+03  0.31610381068E+03  0.47549773513E+03  0.92849790164E+02 0.  0.
         23    2    4    4    0    0  0.87243316474E+03  0.24285707347E+03 -0.29763442770E+03  0.95792433008E+03  0.94411781748E+02 0.  0.
          2    1    3    3  502    0 -0.26613125394E+03  0.15391145382E+02  0.86423777517E+02  0.28023526009E+03  0.00000000000E+00 0. -1.
         -1    1    3    3    0  502 -0.84866555347E+03 -0.15729646017E+02  0.14405246651E+03  0.86094817296E+03  0.00000000000E+00 0.  1.
         11    1    5    5    0    0  0.17270629380E+03 -0.19901801266E+03  0.18942057912E+03  0.32452394223E+03  0.00000000000E+00 0.  1.
        -11    1    5    5    0    0  0.69657348860E+02 -0.43500560170E+02  0.12668323156E+03  0.15097379291E+03  0.00000000000E+00 0. -1.
          2    1    6    6  503    0  0.30264082935E+03  0.49671330797E+02 -0.13199819482E+03  0.33388955678E+03  0.00000000000E+00 0. -1.
         -2    1    6    6    0  503  0.56979233540E+03  0.19318574267E+03 -0.16563623289E+03  0.62403477331E+03  0.00000000000E+00 0.  1.
<mgrwt>
<rscale>  0 0.25625416E+04</rscale>
<asrwt>0</asrwt>
<pdfrwt beam="1">  1        2 0.21719624E+00 0.25625416E+04</pdfrwt>
<pdfrwt beam="2">  1       -1 0.17889691E+00 0.25625416E+04</pdfrwt>
<totfact> 0.30524716E+00</totfact>
</mgrwt>
</event>
<event>
12    6  0.1542110E-007  0.1200245E+04  0.7818608E-02  0.9112642E-01
          2   -1    0    0  501    0  0.00000000000E+00  0.00000000000E+00  0.21955007561E+04  0.21955007561E+04  0.00000000000E+00 0. -1.
         -1   -1    0    0    0  501 -0.00000000000E+00 -0.00000000000E+00 -0.16403867653E+03  0.16403867653E+03  0.00000000000E+00 0.  1.
         24    2    1    2    0    0  0.24984663903E+03 -0.20195864001E+02  0.38712897187E+03  0.46810469032E+03  0.80137034386E+02 0.  0.
        254    2    1    2    0    0 -0.24984663903E+03  0.20195864001E+02  0.16443331077E+04  0.18914347423E+04  0.90047920543E+03 0.  0.
         23    2    4    4    0    0 -0.34690745136E+03 -0.32108999067E+03  0.13079165535E+04  0.13933917002E+04  0.86320086854E+02 0.  0.
         23    2    4    4    0    0  0.97060812334E+02  0.34128585467E+03  0.33641655420E+03  0.49804304211E+03  0.94730871199E+02 0.  0.
          2    1    3    3  502    0  0.18994364554E+03 -0.40688231582E+02  0.32947453736E+03  0.38247560895E+03  0.00000000000E+00 0. -1.
         -1    1    3    3    0  502  0.59902993485E+02  0.20492367581E+02  0.57654434509E+02  0.85629081369E+02  0.00000000000E+00 0.  1.
         11    1    5    5    0    0 -0.19544405010E+03 -0.12346443503E+03  0.60323075377E+03  0.64601020559E+03  0.00000000000E+00 0. -1.
        -11    1    5    5    0    0 -0.15146340126E+03 -0.19762555564E+03  0.70468579972E+03  0.74738149462E+03  0.00000000000E+00 0.  1.
          1    1    6    6  503    0  0.36646469851E+02  0.74371059621E+02  0.13429989817E+03  0.15783054492E+03  0.00000000000E+00 0. -1.
         -1    1    6    6    0  503  0.60414342483E+02  0.26691479505E+03  0.20211665603E+03  0.34021249719E+03  0.00000000000E+00 0.  1.
<mgrwt>
<rscale>  0 0.12002450E+04</rscale>
<asrwt>0</asrwt>
<pdfrwt beam="1">  1        2 0.33776933E+00 0.12002450E+04</pdfrwt>
<pdfrwt beam="2">  1       -1 0.25236721E-01 0.12002450E+04</pdfrwt>
<totfact> 0.80695561E+01</totfact>
</mgrwt>
</event>
<event>
12    6  0.1542110E-007  0.2011233E+04  0.7818608E-02  0.8601387E-01
          2   -1    0    0  501    0  0.00000000000E+00  0.00000000000E+00  0.66641962835E+03  0.66641962835E+03  0.00000000000E+00 0. -1.
         -1   -1    0    0    0  501 -0.00000000000E+00 -0.00000000000E+00 -0.15174589865E+04  0.15174589865E+04  0.00000000000E+00 0.  1.
         24    2    1    2    0    0 -0.51685856113E+02  0.72969658309E+03  0.14692166864E+02  0.73574127130E+03  0.77271129285E+02 0.  0.
        254    2    1    2    0    0  0.51685856113E+02 -0.72969658309E+03 -0.86573152506E+03  0.14481373436E+04  0.90137792369E+03 0.  0.
         23    2    4    4    0    0 -0.14546771211E+03 -0.61448554997E+03 -0.10417096406E+03  0.64719778571E+03  0.96229089597E+02 0.  0.
         23    2    4    4    0    0  0.19715356822E+03 -0.11521103312E+03 -0.76156056100E+03  0.80093955788E+03  0.96884341791E+02 0.  0.
          2    1    3    3  502    0 -0.45152611566E+02  0.24590592651E+03  0.29012180196E+02  0.25169463567E+03  0.00000000000E+00 0. -1.
         -1    1    3    3    0  502 -0.65332445464E+01  0.48379065658E+03 -0.14320013332E+02  0.48404663563E+03  0.00000000000E+00 0.  1.
         11    1    5    5    0    0 -0.58930541619E+02 -0.16658400464E+03 -0.68876761350E+02  0.18964980251E+03  0.00000000000E+00 0.  1.
        -11    1    5    5    0    0 -0.86537170493E+02 -0.44790154533E+03 -0.35294202706E+02  0.45754798320E+03  0.00000000000E+00 0. -1.
          4    1    6    6  503    0  0.17693451780E+03 -0.89520086598E+02 -0.72618209791E+03  0.75276829690E+03  0.00000000000E+00 0. -1.
         -4    1    6    6    0  503  0.20219050426E+02 -0.25690946524E+02 -0.35378463089E+02  0.48171260976E+02  0.00000000000E+00 0.  1.
<mgrwt>
<rscale>  0 0.20112329E+04</rscale>
<asrwt>0</asrwt>
<pdfrwt beam="1">  1        2 0.10252610E+00 0.20112329E+04</pdfrwt>
<pdfrwt beam="2">  1       -1 0.23345523E+00 0.20112329E+04</pdfrwt>
<totfact> 0.41358353E+00</totfact>
</mgrwt>
</event>
<event>
12    6  0.1542110E-007  0.1599734E+04  0.7818608E-02  0.8820712E-01
         -1   -1    0    0    0  501 -0.00000000000E+00  0.00000000000E+00  0.32902498258E+03  0.32902498258E+03  0.00000000000E+00 0.  1.
          2   -1    0    0  501    0  0.00000000000E+00 -0.00000000000E+00 -0.19444935012E+04  0.19444935012E+04  0.00000000000E+00 0. -1.
         24    2    1    2    0    0 -0.40612487471E+03 -0.31994230064E+03 -0.31050878672E+03  0.60829728064E+03  0.79431639826E+02 0.  0.
        254    2    1    2    0    0  0.40612487471E+03  0.31994230064E+03 -0.13049597319E+04  0.16652212032E+04  0.89595829365E+03 0.  0.
         23    2    4    4    0    0 -0.25923800033E+03  0.95842638195E+02 -0.59541896416E+03  0.66262067901E+03  0.90289917824E+02 0.  0.
         23    2    4    4    0    0  0.66536287505E+03  0.22409966244E+03 -0.70954076777E+03  0.10026005242E+04  0.93974973952E+02 0.  0.
          4    1    3    3  502    0 -0.19826711852E+02 -0.11622679755E+02 -0.36604810200E+02  0.43221491383E+02  0.00000000000E+00 0. -1.
         -3    1    3    3    0  502 -0.38629816286E+03 -0.30831962088E+03 -0.27390397652E+03  0.56507578926E+03  0.00000000000E+00 0.  1.
         11    1    5    5    0    0 -0.84278484359E+02  0.74246992569E+02 -0.19341422897E+03  0.22366167038E+03  0.00000000000E+00 0.  1.
        -11    1    5    5    0    0 -0.17495951597E+03  0.21595645626E+02 -0.40200473519E+03  0.43895900863E+03  0.00000000000E+00 0. -1.
          1    1    6    6  503    0 -0.29458259410E+01  0.34743885713E+01 -0.50158035563E+01  0.67755111789E+01  0.00000000000E+00 0. -1.
         -1    1    6    6    0  503  0.66830870099E+03  0.22062527387E+03 -0.70452496421E+03  0.99582501298E+03  0.00000000000E+00 0.  1.
<mgrwt>
<rscale>  0 0.15997337E+04</rscale>
<asrwt>0</asrwt>
<pdfrwt beam="1">  1        2 0.29915285E+00 0.15997337E+04</pdfrwt>
<pdfrwt beam="2">  1       -1 0.50619228E-01 0.15997337E+04</pdfrwt>
<totfact> 0.30724578E+01</totfact>
</mgrwt>
</event>
<event>
12    6  0.1542110E-007  0.1170822E+04  0.7818608E-02  0.9138787E-01
         -1   -1    0    0    0  501 -0.00000000000E+00  0.00000000000E+00  0.20409063895E+03  0.20409063895E+03  0.00000000000E+00 0.  1.
          2   -1    0    0  501    0  0.00000000000E+00 -0.00000000000E+00 -0.16791846784E+04  0.16791846784E+04  0.00000000000E+00 0. -1.
         24    2    1    2    0    0  0.41754445770E+02 -0.18849688296E+03 -0.10934978198E+03  0.23586147702E+03  0.79992205227E+02 0.  0.
        254    2    1    2    0    0 -0.41754445770E+02  0.18849688296E+03 -0.13657442575E+04  0.16474138404E+04  0.90079990892E+03 0.  0.
         23    2    4    4    0    0 -0.32627331036E+03 -0.16332038080E+03 -0.96504932912E+03  0.10359751080E+04  0.93789108674E+02 0.  0.
         23    2    4    4    0    0  0.28451886459E+03  0.35181726376E+03 -0.40069492838E+03  0.61143873237E+03  0.92598738824E+02 0.  0.
          2    1    3    3  502    0  0.27177501547E+02 -0.14439221539E+02 -0.33340066337E+02  0.45372543817E+02  0.00000000000E+00 0. -1.
         -1    1    3    3    0  502  0.14576944223E+02 -0.17405766142E+03 -0.76009715639E+02  0.19048893320E+03  0.00000000000E+00 0.  1.
         11    1    5    5    0    0 -0.21040492162E+03 -0.14865869624E+03 -0.60864208196E+03  0.66091967964E+03  0.00000000000E+00 0. -1.
        -11    1    5    5    0    0 -0.11586838874E+03 -0.14661684555E+02 -0.35640724717E+03  0.37505542835E+03  0.00000000000E+00 0.  1.
          1    1    6    6  503    0  0.20395314176E+03  0.29387609003E+03 -0.27450536982E+03  0.45090269281E+03  0.00000000000E+00 0. -1.
         -1    1    6    6    0  503  0.80565722829E+02  0.57941173725E+02 -0.12618955857E+03  0.16053603956E+03  0.00000000000E+00 0.  1.
<mgrwt>
<rscale>  0 0.11708217E+04</rscale>
<asrwt>0</asrwt>
<pdfrwt beam="1">  1        2 0.25833611E+00 0.11708217E+04</pdfrwt>
<pdfrwt beam="2">  1       -1 0.31398559E-01 0.11708217E+04</pdfrwt>
<totfact> 0.10680002E+02</totfact>
</mgrwt>
</event>
<event>
12    6  0.1542110E-007  0.1316506E+04  0.7818608E-02  0.9016577E-01
          2   -1    0    0  501    0  0.00000000000E+00  0.00000000000E+00  0.22496050861E+04  0.22496050861E+04  0.00000000000E+00 0. -1.
         -1   -1    0    0    0  501 -0.00000000000E+00 -0.00000000000E+00 -0.19261037129E+03  0.19261037129E+03  0.00000000000E+00 0.  1.
         24    2    1    2    0    0  0.16131953258E+03  0.26846584956E+03  0.50025575536E+03  0.59611513093E+03  0.83663161474E+02 0.  0.
        254    2    1    2    0    0 -0.16131953258E+03 -0.26846584956E+03  0.15567389595E+04  0.18461003265E+04  0.94156907527E+03 0.  0.
         23    2    4    4    0    0  0.15716224594E+03 -0.37222146843E+03  0.14098516441E+04  0.14692344995E+04  0.87861044414E+02 0.  0.
         23    2    4    4    0    0 -0.31848177852E+03  0.10375561888E+03  0.14688731539E+03  0.37686582695E+03  0.90863064047E+02 0.  0.
          2    1    3    3  502    0  0.15958454981E+03  0.21710818950E+03  0.38500873499E+03  0.46993076139E+03  0.00000000000E+00 0. -1.
         -1    1    3    3    0  502  0.17349827653E+01  0.51357660063E+02  0.11524702037E+03  0.12618436954E+03  0.00000000000E+00 0.  1.
         11    1    5    5    0    0  0.14299821554E+02 -0.11980723966E+02  0.14919621005E+03  0.15035801188E+03  0.00000000000E+00 0. -1.
        -11    1    5    5    0    0  0.14286242439E+03 -0.36024074447E+03  0.12606554341E+04  0.13188764877E+04  0.00000000000E+00 0.  1.
          3    1    6    6  503    0  0.36454895693E+01 -0.57473682588E+01  0.35220728573E+01  0.76633434814E+01  0.00000000000E+00 0. -1.
         -3    1    6    6    0  503 -0.32212726809E+03  0.10950298713E+03  0.14336524253E+03  0.36920248347E+03  0.00000000000E+00 0.  1.
<mgrwt>
<rscale>  0 0.13165064E+04</rscale>
<asrwt>0</asrwt>
<pdfrwt beam="1">  1        2 0.34609307E+00 0.13165064E+04</pdfrwt>
<pdfrwt beam="2">  1       -1 0.29632367E-01 0.13165064E+04</pdfrwt>
<totfact> 0.56432620E+01</totfact>
</mgrwt>
</event>
<event>
12    6  0.1542110E-007  0.1830276E+04  0.7818608E-02  0.8690363E-01
         -1   -1    0    0    0  501 -0.00000000000E+00  0.00000000000E+00  0.51381987430E+03  0.51381987430E+03  0.00000000000E+00 0.  1.
          2   -1    0    0  501    0  0.00000000000E+00 -0.00000000000E+00 -0.16299052491E+04  0.16299052491E+04  0.00000000000E+00 0. -1.
         24    2    1    2    0    0  0.90610541933E+02  0.67836753541E+03 -0.51725523621E+03  0.86388036047E+03  0.10170306988E+03 0.  0.
        254    2    1    2    0    0 -0.90610541933E+02 -0.67836753541E+03 -0.59883013860E+03  0.12798447629E+04  0.90056221267E+03 0.  0.
         23    2    4    4    0    0  0.29339930700E+03 -0.63215371605E+03 -0.23417451759E+03  0.74054062295E+03  0.88663608585E+02 0.  0.
         23    2    4    4    0    0 -0.38400984893E+03 -0.46213819352E+02 -0.36465562101E+03  0.53930413997E+03  0.90972261060E+02 0.  0.
          4    1    3    3  502    0  0.21901829863E+02  0.11648121007E+03 -0.45337939451E+02  0.12689795587E+03  0.00000000000E+00 0. -1.
         -3    1    3    3    0  502  0.68708712070E+02  0.56188632534E+03 -0.47191729676E+03  0.73698240460E+03  0.00000000000E+00 0.  1.
         11    1    5    5    0    0  0.15486006716E+03 -0.39159642014E+03 -0.10304450125E+03  0.43352919845E+03  0.00000000000E+00 0.  1.
        -11    1    5    5    0    0  0.13853923984E+03 -0.24055729591E+03 -0.13113001634E+03  0.30701142450E+03  0.00000000000E+00 0. -1.
          3    1    6    6  503    0 -0.28526390273E+03 -0.29434424933E+02 -0.21162349767E+03  0.35640760982E+03  0.00000000000E+00 0. -1.
         -3    1    6    6    0  503 -0.98745946202E+02 -0.16779394418E+02 -0.15303212334E+03  0.18289653015E+03  0.00000000000E+00 0.  1.
<mgrwt>
<rscale>  0 0.18302762E+04</rscale>
<asrwt>0</asrwt>
<pdfrwt beam="1">  1        2 0.25075465E+00 0.18302762E+04</pdfrwt>
<pdfrwt beam="2">  1       -1 0.79049211E-01 0.18302762E+04</pdfrwt>
<totfact> 0.18420857E+01</totfact>
</mgrwt>
</event>
<event>
12    6  0.1542110E-007  0.1055963E+04  0.7818608E-02  0.9249209E-01
         -1   -1    0    0    0  501 -0.00000000000E+00  0.00000000000E+00  0.26965343484E+03  0.26965343484E+03  0.00000000000E+00 0.  1.
          2   -1    0    0  501    0  0.00000000000E+00 -0.00000000000E+00 -0.10337888562E+04  0.10337888562E+04  0.00000000000E+00 0. -1.
         24    2    1    2    0    0  0.17889649994E+02  0.12192066711E+03 -0.10189288325E+03  0.17760276627E+03  0.77303908596E+02 0.  0.
        254    2    1    2    0    0 -0.17889649994E+02 -0.12192066711E+03 -0.66224253808E+03  0.11258395247E+04  0.90208911289E+03 0.  0.
         23    2    4    4    0    0 -0.31761083461E+03 -0.37586939659E+01  0.54501755051E+02  0.33491775217E+03  0.91152012459E+02 0.  0.
         23    2    4    4    0    0  0.29972118461E+03 -0.11816197314E+03 -0.71674429313E+03  0.79092177257E+03  0.89665089073E+02 0.  0.
          2    1    3    3  502    0  0.17098044855E+02  0.10031899964E+03 -0.11401015467E+03  0.15282198858E+03  0.00000000000E+00 0. -1.
         -1    1    3    3    0  502  0.79160513895E+00  0.21601667465E+02  0.12117271419E+02  0.24780777683E+02  0.00000000000E+00 0.  1.
         11    1    5    5    0    0 -0.85862709180E+02  0.39661159675E+02  0.12025005471E+02  0.95341560565E+02  0.00000000000E+00 0. -1.
        -11    1    5    5    0    0 -0.23174812543E+03 -0.43419853641E+02  0.42476749580E+02  0.23957619161E+03  0.00000000000E+00 0.  1.
          1    1    6    6  503    0  0.30090365331E+03 -0.11275676658E+03 -0.66167505001E+03  0.73557526385E+03  0.00000000000E+00 0.  1.
         -1    1    6    6    0  503 -0.11824686966E+01 -0.54052065583E+01 -0.55069243120E+02  0.55346508724E+02  0.00000000000E+00 0. -1.
<mgrwt>
<rscale>  0 0.10559635E+04</rscale>
<asrwt>0</asrwt>
<pdfrwt beam="1">  1        2 0.15904444E+00 0.10559635E+04</pdfrwt>
<pdfrwt beam="2">  1       -1 0.41485143E-01 0.10559635E+04</pdfrwt>
<totfact> 0.15481804E+02</totfact>
</mgrwt>
</event>
<event>
12    6  0.1542110E-007  0.1982530E+04  0.7818608E-02  0.8614832E-01
          2   -1    0    0  501    0  0.00000000000E+00  0.00000000000E+00  0.54068400224E+03  0.54068400224E+03  0.00000000000E+00 0. -1.
         -1   -1    0    0    0  501 -0.00000000000E+00 -0.00000000000E+00 -0.18173389793E+04  0.18173389793E+04  0.00000000000E+00 0.  1.
         24    2    1    2    0    0 -0.77910506007E+02  0.29831626073E+03 -0.14382419104E+04  0.14731115275E+04  0.80343893110E+02 0.  0.
        254    2    1    2    0    0  0.77910506007E+02 -0.29831626073E+03  0.16158693336E+03  0.88491145405E+03  0.81356948450E+03 0.  0.
         23    2    4    4    0    0 -0.13766982381E+02 -0.14471153917E+03  0.47898960761E+03  0.50892781650E+03  0.91899503983E+02 0.  0.
         23    2    4    4    0    0  0.91677488388E+02 -0.15360472156E+03 -0.31740267425E+03  0.37598363755E+03  0.92844309051E+02 0.  0.
          4    1    3    3  502    0 -0.13971432165E+02  0.52414052896E+01 -0.13349453686E+03  0.13432596405E+03  0.00000000000E+00 0. -1.
         -3    1    3    3    0  502 -0.63939073841E+02  0.29307485544E+03 -0.13047473736E+04  0.13387855634E+04  0.00000000000E+00 0.  1.
         11    1    5    5    0    0 -0.99813697775E+01  0.11059215064E+02  0.27042681045E+02  0.30874594387E+02  0.00000000000E+00 0. -1.
        -11    1    5    5    0    0 -0.37856126035E+01 -0.15577075423E+03  0.45194692657E+03  0.47805322211E+03  0.00000000000E+00 0.  1.
          1    1    6    6  503    0  0.31493226826E+02 -0.42466016478E+01 -0.19329656393E+02  0.37195330053E+02  0.00000000000E+00 0. -1.
         -1    1    6    6    0  503  0.60184261561E+02 -0.14935811991E+03 -0.29807301786E+03  0.33878830750E+03  0.00000000000E+00 0.  1.
<mgrwt>
<rscale>  0 0.19825298E+04</rscale>
<asrwt>0</asrwt>
<pdfrwt beam="1">  1        2 0.83182155E-01 0.19825298E+04</pdfrwt>
<pdfrwt beam="2">  1       -1 0.27959061E+00 0.19825298E+04</pdfrwt>
<totfact> 0.26743170E+00</totfact>
</mgrwt>
</event>
<event>
12    6  0.1542110E-007  0.1580642E+04  0.7818608E-02  0.8832530E-01
         -1   -1    0    0    0  501 -0.00000000000E+00  0.00000000000E+00  0.62068112697E+03  0.62068112697E+03  0.00000000000E+00 0.  1.
          2   -1    0    0  501    0  0.00000000000E+00 -0.00000000000E+00 -0.10063251608E+04  0.10063251608E+04  0.00000000000E+00 0. -1.
         24    2    1    2    0    0 -0.48492064891E+03  0.22047526764E+03 -0.14832720252E+03  0.55882434304E+03  0.80785567908E+02 0.  0.
        254    2    1    2    0    0  0.48492064891E+03 -0.22047526764E+03 -0.23731683132E+03  0.10681819447E+04  0.89495028311E+03 0.  0.
         23    2    4    4    0    0  0.57352002541E+03 -0.21964574703E+03  0.16819077099E+03  0.64346901472E+03  0.92707948576E+02 0.  0.
         23    2    4    4    0    0 -0.88599376496E+02 -0.82952061284E+00 -0.40550760230E+03  0.42471293001E+03  0.89967326143E+02 0.  0.
          4    1    3    3  502    0 -0.37860845660E+03  0.13378157042E+03 -0.11391612616E+03  0.41739520336E+03  0.00000000000E+00 0. -1.
         -3    1    3    3    0  502 -0.10631219231E+03  0.86693697226E+02 -0.34411076361E+02  0.14142913968E+03  0.00000000000E+00 0.  1.
         11    1    5    5    0    0  0.52994532158E+03 -0.20177591130E+03  0.12746973413E+03  0.58120916662E+03  0.00000000000E+00 0.  1.
        -11    1    5    5    0    0  0.43574703834E+02 -0.17869835725E+02  0.40721036860E+02  0.62259848105E+02  0.00000000000E+00 0. -1.
          3    1    6    6  503    0 -0.96529031473E+01 -0.35800828963E+02 -0.16671973037E+03  0.17079328555E+03  0.00000000000E+00 0. -1.
         -3    1    6    6    0  503 -0.78946473349E+02  0.34971308351E+02 -0.23878787193E+03  0.25391964446E+03  0.00000000000E+00 0.  1.
<mgrwt>
<rscale>  0 0.15806417E+04</rscale>
<asrwt>0</asrwt>
<pdfrwt beam="1">  1        2 0.15481926E+00 0.15806417E+04</pdfrwt>
<pdfrwt beam="2">  1       -1 0.95489404E-01 0.15806417E+04</pdfrwt>
<totfact> 0.28945463E+01</totfact>
</mgrwt>
</event>
<event>
12    6  0.1542110E-007  0.2219643E+04  0.7818608E-02  0.8510296E-01
         -1   -1    0    0    0  501 -0.00000000000E+00  0.00000000000E+00  0.42676859243E+03  0.42676859243E+03  0.00000000000E+00 0.  1.
          2   -1    0    0  501    0  0.00000000000E+00 -0.00000000000E+00 -0.28861162729E+04  0.28861162729E+04  0.00000000000E+00 0. -1.
         24    2    1    2    0    0  0.86507016398E+01 -0.61898104996E+02 -0.23986701537E+04  0.24008676317E+04  0.81490297205E+02 0.  0.
        254    2    1    2    0    0 -0.86507016398E+01  0.61898104996E+02 -0.60677526744E+02  0.91201723362E+03  0.90784770867E+03 0.  0.
         23    2    4    4    0    0 -0.21743103557E+00  0.44499720759E+03 -0.19870385056E+03  0.49588088094E+03  0.91608219090E+02 0.  0.
         23    2    4    4    0    0 -0.84332706042E+01 -0.38309910260E+03  0.13802632382E+03  0.41613635269E+03  0.85335546489E+02 0.  0.
          4    1    3    3  502    0  0.20145203951E+02 -0.75741782972E+02 -0.21966460944E+04  0.21980438373E+04  0.00000000000E+00 0. -1.
         -3    1    3    3    0  502 -0.11494502312E+02  0.13843677976E+02 -0.20202405931E+03  0.20282379433E+03  0.00000000000E+00 0.  1.
         11    1    5    5    0    0 -0.45791700747E+02  0.21310063345E+03 -0.98241551772E+02  0.23908191552E+03  0.00000000000E+00 0. -1.
        -11    1    5    5    0    0  0.45574269712E+02  0.23189657414E+03 -0.10046229879E+03  0.25679896541E+03  0.00000000000E+00 0.  1.
          3    1    6    6  503    0  0.15294399569E+02 -0.35685197986E+03  0.12668769301E+03  0.37898156386E+03  0.00000000000E+00 0. -1.
         -3    1    6    6    0  503 -0.23727670173E+02 -0.26247122743E+02  0.11338630814E+02  0.37154788828E+02  0.00000000000E+00 0.  1.
<mgrwt>
<rscale>  0 0.22196430E+04</rscale>
<asrwt>0</asrwt>
<pdfrwt beam="1">  1        2 0.44401788E+00 0.22196430E+04</pdfrwt>
<pdfrwt beam="2">  1       -1 0.65656708E-01 0.22196430E+04</pdfrwt>
<totfact> 0.50067279E+00</totfact>
</mgrwt>
</event>
<event>
12    6  0.1542110E-007  0.2273543E+04  0.7818608E-02  0.8488426E-01
          2   -1    0    0  501    0  0.00000000000E+00  0.00000000000E+00  0.22534052384E+04  0.22534052384E+04  0.00000000000E+00 0. -1.
         -1   -1    0    0    0  501 -0.00000000000E+00 -0.00000000000E+00 -0.57346524074E+03  0.57346524074E+03  0.00000000000E+00 0.  1.
         24    2    1    2    0    0 -0.40451180175E+03  0.52836327486E+03 -0.15160690268E+03  0.68711612677E+03  0.79664112026E+02 0.  0.
        254    2    1    2    0    0  0.40451180175E+03 -0.52836327486E+03  0.18315469003E+04  0.21397543524E+04  0.88384788985E+03 0.  0.
         23    2    4    4    0    0  0.36689798529E+03  0.48095599311E+02  0.12808022360E+04  0.13362875593E+04  0.91009643276E+02 0.  0.
         23    2    4    4    0    0  0.37613816463E+02 -0.57645887417E+03  0.55074466434E+03  0.80346679306E+03  0.92301513767E+02 0.  0.
          2    1    3    3  502    0 -0.21144679498E+03  0.22908296998E+03 -0.42540104204E+02  0.31464013524E+03  0.00000000000E+00 0. -1.
         -1    1    3    3    0  502 -0.19306500677E+03  0.29928030489E+03 -0.10906679848E+03  0.37247599153E+03  0.00000000000E+00 0.  1.
         11    1    5    5    0    0  0.15812066324E+03  0.57893007704E+02  0.48079309111E+03  0.50942687497E+03  0.00000000000E+00 0. -1.
        -11    1    5    5    0    0  0.20877732204E+03 -0.97974083925E+01  0.80000914488E+03  0.82686068434E+03  0.00000000000E+00 0.  1.
          4    1    6    6  503    0  0.36422651768E+02 -0.35896267851E+03  0.40086421700E+03  0.53932637112E+03  0.00000000000E+00 0. -1.
         -4    1    6    6    0  503  0.11911646949E+01 -0.21749619567E+03  0.14988044735E+03  0.26414042193E+03  0.00000000000E+00 0.  1.
<mgrwt>
<rscale>  0 0.22735431E+04</rscale>
<asrwt>0</asrwt>
<pdfrwt beam="1">  1        2 0.34667772E+00 0.22735431E+04</pdfrwt>
<pdfrwt beam="2">  1       -1 0.88225423E-01 0.22735431E+04</pdfrwt>
<totfact> 0.62859234E+00</totfact>
</mgrwt>
</event>
<event>
12    6  0.1542110E-007  0.1794673E+04  0.7818608E-02  0.8709137E-01
         -1   -1    0    0    0  501 -0.00000000000E+00  0.00000000000E+00  0.37036969994E+03  0.37036969994E+03  0.00000000000E+00 0.  1.
          2   -1    0    0  501    0  0.00000000000E+00 -0.00000000000E+00 -0.21740783468E+04  0.21740783468E+04  0.00000000000E+00 0. -1.
         24    2    1    2    0    0 -0.28010229033E+03 -0.60279078968E+03 -0.76699806341E+03  0.10180833228E+04  0.79959951392E+02 0.  0.
        254    2    1    2    0    0  0.28010229033E+03  0.60279078968E+03 -0.10367105834E+04  0.15263647238E+04  0.90177957799E+03 0.  0.
         23    2    4    4    0    0 -0.85094450502E+01  0.59038725177E+03 -0.10663916639E+04  0.12224933528E+04  0.93109070556E+02 0.  0.
         23    2    4    4    0    0  0.28861173538E+03  0.12403537907E+02  0.29681080504E+02  0.30387137106E+03  0.89477718248E+02 0.  0.
          4    1    3    3  502    0 -0.18662452811E+03 -0.40836916256E+03 -0.45934628445E+03  0.64233410035E+03  0.00000000000E+00 0. -1.
         -3    1    3    3    0  502 -0.93477762217E+02 -0.19442162711E+03 -0.30765177896E+03  0.37574922250E+03  0.00000000000E+00 0.  1.
         11    1    5    5    0    0 -0.30124366678E+02  0.55720606414E+03 -0.10017469954E+04  0.11466835300E+04  0.00000000000E+00 0.  1.
        -11    1    5    5    0    0  0.21614921627E+02  0.33181187624E+02 -0.64644668557E+02  0.75809822727E+02  0.00000000000E+00 0. -1.
          4    1    6    6  503    0  0.85667645371E+02  0.27876891532E+02  0.43156431064E+02  0.99892662829E+02  0.00000000000E+00 0. -1.
         -4    1    6    6    0  503  0.20294409000E+03 -0.15473353625E+02 -0.13475350560E+02  0.20397870823E+03  0.00000000000E+00 0.  1.
<mgrwt>
<rscale>  0 0.17946729E+04</rscale>
<asrwt>0</asrwt>
<pdfrwt beam="1">  1        2 0.33447358E+00 0.17946729E+04</pdfrwt>
<pdfrwt beam="2">  1       -1 0.56979955E-01 0.17946729E+04</pdfrwt>
<totfact> 0.17914273E+01</totfact>
</mgrwt>
</event>
<event>
12    6  0.1542110E-007  0.1229966E+04  0.7818608E-02  0.9087025E-01
         -1   -1    0    0    0  501 -0.00000000000E+00  0.00000000000E+00  0.33322256410E+03  0.33322256410E+03  0.00000000000E+00 0.  1.
          2   -1    0    0  501    0  0.00000000000E+00 -0.00000000000E+00 -0.11349885317E+04  0.11349885317E+04  0.00000000000E+00 0. -1.
         24    2    1    2    0    0  0.54367782838E+01  0.15280787420E+03  0.10131236359E+03  0.20041464277E+03  0.80759080263E+02 0.  0.
        254    2    1    2    0    0 -0.54367782838E+01 -0.15280787420E+03 -0.90307833114E+03  0.12677964530E+04  0.87657148541E+03 0.  0.
         23    2    4    4    0    0 -0.30047155310E+03 -0.30247430192E+03 -0.18908914742E+03  0.47514180003E+03  0.90725778706E+02 0.  0.
         23    2    4    4    0    0  0.29503477482E+03  0.14966642772E+03 -0.71398918373E+03  0.79265465295E+03  0.95264297718E+02 0.  0.
          4    1    3    3  502    0  0.31982683407E+02  0.13504951536E+03  0.69034856515E+02  0.15500669357E+03  0.00000000000E+00 0. -1.
         -3    1    3    3    0  502 -0.26545905123E+02  0.17758358835E+02  0.32277507079E+02  0.45407949200E+02  0.00000000000E+00 0.  1.
         11    1    5    5    0    0 -0.28094278292E+03 -0.30640817745E+03 -0.17687029420E+03  0.45177197728E+03  0.00000000000E+00 0. -1.
        -11    1    5    5    0    0 -0.19528770183E+02  0.39338755326E+01 -0.12218853223E+02  0.23369822756E+02  0.00000000000E+00 0.  1.
          3    1    6    6  503    0  0.29659697876E+03  0.15639675246E+03 -0.70847275994E+03  0.78381334741E+03  0.00000000000E+00 0. -1.
         -3    1    6    6    0  503 -0.15622039372E+01 -0.67303247445E+01 -0.55164237820E+01  0.88413055399E+01  0.00000000000E+00 0.  1.
<mgrwt>
<rscale>  0 0.12299655E+04</rscale>
<asrwt>0</asrwt>
<pdfrwt beam="1">  1        2 0.17461362E+00 0.12299655E+04</pdfrwt>
<pdfrwt beam="2">  1       -1 0.51265010E-01 0.12299655E+04</pdfrwt>
<totfact> 0.89074631E+01</totfact>
</mgrwt>
</event>
<event>
12    6  0.1542110E-007  0.1175357E+04  0.7818608E-02  0.9134704E-01
         -1   -1    0    0    0  501 -0.00000000000E+00  0.00000000000E+00  0.26801482044E+03  0.26801482044E+03  0.00000000000E+00 0.  1.
          2   -1    0    0  501    0  0.00000000000E+00 -0.00000000000E+00 -0.12886087676E+04  0.12886087676E+04  0.00000000000E+00 0. -1.
         24    2    1    2    0    0 -0.14412024529E+03  0.12149617114E+03 -0.39663807294E+02  0.20903472626E+03  0.81180875025E+02 0.  0.
        254    2    1    2    0    0  0.14412024529E+03 -0.12149617114E+03 -0.98093013989E+03  0.13475888618E+04  0.90456610394E+03 0.  0.
         23    2    4    4    0    0  0.25377730963E+03 -0.42189874893E+03 -0.85605374153E+03  0.99226145692E+03  0.96712529034E+02 0.  0.
         23    2    4    4    0    0 -0.10965706434E+03  0.30040257779E+03 -0.12487639836E+03  0.35532740488E+03  0.91635524163E+02 0.  0.
          4    1    3    3  502    0 -0.27379182732E+02 -0.78802573694E+01 -0.17333716478E+02  0.33349300296E+02  0.00000000000E+00 0. -1.
         -3    1    3    3    0  502 -0.11674106256E+03  0.12937642851E+03 -0.22330090816E+02  0.17568542597E+03  0.00000000000E+00 0.  1.
         11    1    5    5    0    0  0.10148934839E+03 -0.20031425451E+03 -0.30120633507E+03  0.37570087128E+03  0.00000000000E+00 0.  1.
        -11    1    5    5    0    0  0.15228796125E+03 -0.22158449441E+03 -0.55484740647E+03  0.61656058564E+03  0.00000000000E+00 0. -1.
          4    1    6    6  503    0 -0.54043914048E+02  0.25543451859E+03 -0.10062332110E+03  0.27980813191E+03  0.00000000000E+00 0.  1.
         -4    1    6    6    0  503 -0.55613150291E+02  0.44968059201E+02 -0.24253077262E+02  0.75519272972E+02  0.00000000000E+00 0. -1.
<mgrwt>
<rscale>  0 0.11753574E+04</rscale>
<asrwt>0</asrwt>
<pdfrwt beam="1">  1        2 0.19824750E+00 0.11753574E+04</pdfrwt>
<pdfrwt beam="2">  1       -1 0.41233049E-01 0.11753574E+04</pdfrwt>
<totfact> 0.10885719E+02</totfact>
</mgrwt>
</event>
<event>
12    6  0.1542110E-007  0.3559660E+04  0.7818608E-02  0.8099795E-01
          2   -1    0    0  501    0  0.00000000000E+00  0.00000000000E+00  0.14807456911E+04  0.14807456911E+04  0.00000000000E+00 0. -1.
         -1   -1    0    0    0  501 -0.00000000000E+00 -0.00000000000E+00 -0.21393238221E+04  0.21393238221E+04  0.00000000000E+00 0.  1.
         24    2    1    2    0    0 -0.14568696329E+04  0.33138006590E+03  0.43885936197E+03  0.15592790482E+04  0.80447096384E+02 0.  0.
        254    2    1    2    0    0  0.14568696329E+04 -0.33138006590E+03 -0.10974374930E+04  0.20607904650E+04  0.90011466749E+03 0.  0.
         23    2    4    4    0    0  0.81204830514E+03  0.21091997922E+03 -0.79969354203E+03  0.11625652974E+04  0.90214311403E+02 0.  0.
         23    2    4    4    0    0  0.64482132773E+03 -0.54230004512E+03 -0.29774395093E+03  0.89822516767E+03  0.90956626427E+02 0.  0.
          4    1    3    3  502    0 -0.12781291426E+04  0.28697478197E+03  0.35694774189E+03  0.13577114278E+04  0.00000000000E+00 0. -1.
         -3    1    3    3    0  502 -0.17874049026E+03  0.44405283929E+02  0.81911620084E+02  0.20156762043E+03  0.00000000000E+00 0.  1.
         11    1    5    5    0    0  0.59829968972E+03  0.12633197664E+03 -0.54058552136E+03  0.81618318590E+03  0.00000000000E+00 0.  1.
        -11    1    5    5    0    0  0.21374861542E+03  0.84588002587E+02 -0.25910802067E+03  0.34638211148E+03  0.00000000000E+00 0. -1.
          1    1    6    6  503    0  0.59433361828E+02 -0.24215684540E+02 -0.37453549567E+02  0.74306744318E+02  0.00000000000E+00 0. -1.
         -1    1    6    6    0  503  0.58538796590E+03 -0.51808436058E+03 -0.26029040136E+03  0.82391842335E+03  0.00000000000E+00 0.  1.
<mgrwt>
<rscale>  0 0.35596598E+04</rscale>
<asrwt>0</asrwt>
<pdfrwt beam="1">  1        2 0.22780703E+00 0.35596598E+04</pdfrwt>
<pdfrwt beam="2">  1       -1 0.32912674E+00 0.35596598E+04</pdfrwt>
<totfact> 0.25843834E-01</totfact>
</mgrwt>
</event>
<event>
12    6  0.1542110E-007  0.1293360E+04  0.7818608E-02  0.9034847E-01
         -1   -1    0    0    0  501 -0.00000000000E+00  0.00000000000E+00  0.28221105244E+03  0.28221105244E+03  0.00000000000E+00 0.  1.
          2   -1    0    0  501    0  0.00000000000E+00 -0.00000000000E+00 -0.14818527208E+04  0.14818527208E+04  0.00000000000E+00 0. -1.
         24    2    1    2    0    0  0.13205752398E+03  0.21383699696E+03 -0.57767482215E+03  0.63495390740E+03  0.79327255574E+02 0.  0.
        254    2    1    2    0    0 -0.13205752398E+03 -0.21383699696E+03 -0.62196684625E+03  0.11291098659E+04  0.90822953073E+03 0.  0.
         23    2    4    4    0    0 -0.97375022657E+02 -0.29717166705E+03  0.14128507673E+03  0.35516317501E+03  0.91577908024E+02 0.  0.
         23    2    4    4    0    0 -0.34682501324E+02  0.83334670096E+02 -0.76325192298E+03  0.77394669088E+03  0.91062831339E+02 0.  0.
          2    1    3    3  502    0  0.51376135924E+02  0.11080326524E+03 -0.19077318297E+03  0.22651992908E+03  0.00000000000E+00 0. -1.
         -1    1    3    3    0  502  0.80681388057E+02  0.10303373172E+03 -0.38690163918E+03  0.40843397832E+03  0.00000000000E+00 0.  1.
         11    1    5    5    0    0 -0.57490285732E+00 -0.83418787748E+02  0.72809875992E+02  0.11072625120E+03  0.00000000000E+00 0.  1.
        -11    1    5    5    0    0 -0.96800119800E+02 -0.21375287931E+03  0.68475200734E+02  0.24443692381E+03  0.00000000000E+00 0. -1.
          1    1    6    6  503    0 -0.14217619034E+02  0.50144536180E+02 -0.68023188581E+03  0.68222579376E+03  0.00000000000E+00 0. -1.
         -1    1    6    6    0  503 -0.20464882290E+02  0.33190133916E+02 -0.83020037171E+02  0.91720897120E+02  0.00000000000E+00 0.  1.
<mgrwt>
<rscale>  0 0.12933603E+04</rscale>
<asrwt>0</asrwt>
<pdfrwt beam="1">  1        2 0.22797734E+00 0.12933603E+04</pdfrwt>
<pdfrwt beam="2">  1       -1 0.43417084E-01 0.12933603E+04</pdfrwt>
<totfact> 0.76015840E+01</totfact>
</mgrwt>
</event>
<event>
12    6  0.1542110E-007  0.2844096E+04  0.7818608E-02  0.8289708E-01
         -1   -1    0    0    0  501 -0.00000000000E+00  0.00000000000E+00  0.12578123585E+04  0.12578123585E+04  0.00000000000E+00 0.  1.
          2   -1    0    0  501    0  0.00000000000E+00 -0.00000000000E+00 -0.16077285724E+04  0.16077285724E+04  0.00000000000E+00 0. -1.
         24    2    1    2    0    0 -0.27547616019E+03 -0.63748717617E+03 -0.11613869609E+04  0.13554639680E+04  0.78650370499E+02 0.  0.
        254    2    1    2    0    0  0.27547616019E+03  0.63748717617E+03  0.81147074709E+03  0.15100769630E+04  0.10675067429E+04 0.  0.
         23    2    4    4    0    0 -0.29237348646E+03  0.23388106248E+03 -0.61796959866E+02  0.38989028728E+03  0.89515165728E+02 0.  0.
         23    2    4    4    0    0  0.56784964665E+03  0.40360611369E+03  0.87326770695E+03  0.11201866757E+04  0.82888987119E+02 0.  0.
          4    1    3    3  502    0 -0.25484312885E+03 -0.62453800071E+03 -0.11222113259E+04  0.13093322705E+04  0.00000000000E+00 0. -1.
         -3    1    3    3    0  502 -0.20633031349E+02 -0.12949175456E+02 -0.39175635082E+02  0.46131697473E+02  0.00000000000E+00 0.  1.
         11    1    5    5    0    0 -0.10134920465E+03  0.11918281733E+03  0.72697471712E+01  0.15661754197E+03  0.00000000000E+00 0.  1.
        -11    1    5    5    0    0 -0.19102428181E+03  0.11469824515E+03 -0.69066707037E+02  0.23327274531E+03  0.00000000000E+00 0. -1.
          1    1    6    6  503    0  0.54345277180E+03  0.39633957092E+03  0.85897642065E+03  0.10909933372E+04  0.00000000000E+00 0. -1.
         -1    1    6    6    0  503  0.24396874849E+02  0.72665427664E+01  0.14291286304E+02  0.29193338459E+02  0.00000000000E+00 0.  1.
<mgrwt>
<rscale>  0 0.28440962E+04</rscale>
<asrwt>0</asrwt>
<pdfrwt beam="1">  1        2 0.24734286E+00 0.28440962E+04</pdfrwt>
<pdfrwt beam="2">  1       -1 0.19350959E+00 0.28440962E+04</pdfrwt>
<totfact> 0.18198804E+00</totfact>
</mgrwt>
</event>
<event>
12    6  0.1542110E-007  0.1421930E+04  0.7818608E-02  0.8938096E-01
         -1   -1    0    0    0  501 -0.00000000000E+00  0.00000000000E+00  0.26692746008E+03  0.26692746008E+03  0.00000000000E+00 0.  1.
          2   -1    0    0  501    0  0.00000000000E+00 -0.00000000000E+00 -0.18936644627E+04  0.18936644627E+04  0.00000000000E+00 0. -1.
         24    2    1    2    0    0 -0.11232124402E+03 -0.30269270023E+03 -0.90638987778E+03  0.96552722192E+03  0.80382044611E+02 0.  0.
        254    2    1    2    0    0  0.11232124402E+03  0.30269270023E+03 -0.72034712484E+03  0.11950647009E+04  0.89724061787E+03 0.  0.
         23    2    4    4    0    0  0.29911857394E+03  0.53616689087E+03 -0.58943574143E+03  0.85624935839E+03  0.93710267984E+02 0.  0.
         23    2    4    4    0    0 -0.18679732992E+03 -0.23347419064E+03 -0.13091138342E+03  0.33881534248E+03  0.90854861349E+02 0.  0.
          4    1    3    3  502    0 -0.11222548489E+01  0.26611659679E+01 -0.41501035453E+02  0.41601408677E+02  0.00000000000E+00 0. -1.
         -3    1    3    3    0  502 -0.11119898917E+03 -0.30535386620E+03 -0.86488884232E+03  0.92392581324E+03  0.00000000000E+00 0.  1.
         11    1    5    5    0    0  0.11753232996E+03  0.16505695354E+03 -0.14321067178E+03  0.24812686878E+03  0.00000000000E+00 0. -1.
        -11    1    5    5    0    0  0.18158624398E+03  0.37110993734E+03 -0.44622506964E+03  0.60812248961E+03  0.00000000000E+00 0.  1.
          2    1    6    6  503    0 -0.11046077782E+02  0.56495070102E+01  0.37029813568E+01  0.12947773351E+02  0.00000000000E+00 0. -1.
         -2    1    6    6    0  503 -0.17575125214E+03 -0.23912369765E+03 -0.13461436477E+03  0.32586756913E+03  0.00000000000E+00 0.  1.
<mgrwt>
<rscale>  0 0.14219297E+04</rscale>
<asrwt>0</asrwt>
<pdfrwt beam="1">  1        2 0.29133298E+00 0.14219297E+04</pdfrwt>
<pdfrwt beam="2">  1       -1 0.41065764E-01 0.14219297E+04</pdfrwt>
<totfact> 0.49194143E+01</totfact>
</mgrwt>
</event>
<event>
12    6  0.1542110E-007  0.1370195E+04  0.7818608E-02  0.8975680E-01
          2   -1    0    0  501    0  0.00000000000E+00  0.00000000000E+00  0.10122819897E+04  0.10122819897E+04  0.00000000000E+00 0. -1.
         -1   -1    0    0    0  501 -0.00000000000E+00 -0.00000000000E+00 -0.46366401544E+03  0.46366401544E+03  0.00000000000E+00 0.  1.
         24    2    1    2    0    0 -0.35430861506E+03  0.12187709909E+03  0.17606689024E+03  0.42165034712E+03  0.80005271065E+02 0.  0.
        254    2    1    2    0    0  0.35430861506E+03 -0.12187709909E+03  0.37255108398E+03  0.10542956580E+04  0.91233568510E+03 0.  0.
         23    2    4    4    0    0 -0.24961442285E+03 -0.13004098612E+03 -0.64437491020E+02  0.30257499324E+03  0.90451191921E+02 0.  0.
         23    2    4    4    0    0  0.60392303791E+03  0.81638870324E+01  0.43698857500E+03  0.75172066475E+03  0.96619140804E+02 0.  0.
          4    1    3    3  502    0 -0.27224596642E+03  0.59661691221E+02  0.14450698788E+03  0.31394211756E+03  0.00000000000E+00 0. -1.
         -3    1    3    3    0  502 -0.82062648634E+02  0.62215407867E+02  0.31559902367E+02  0.10770822956E+03  0.00000000000E+00 0.  1.
         11    1    5    5    0    0 -0.23736948608E+02  0.13976361384E+02 -0.93195104941E+01  0.29079798531E+02  0.00000000000E+00 0. -1.
        -11    1    5    5    0    0 -0.22587747424E+03 -0.14401734751E+03 -0.55117980526E+02  0.27349519471E+03  0.00000000000E+00 0.  1.
          1    1    6    6  503    0  0.36556989039E+03 -0.82806864349E+01  0.20748420131E+03  0.42042788719E+03  0.00000000000E+00 0. -1.
         -1    1    6    6    0  503  0.23835314752E+03  0.16444573467E+02  0.22950437369E+03  0.33129277757E+03  0.00000000000E+00 0.  1.
<mgrwt>
<rscale>  0 0.13701952E+04</rscale>
<asrwt>0</asrwt>
<pdfrwt beam="1">  1        2 0.15573569E+00 0.13701952E+04</pdfrwt>
<pdfrwt beam="2">  1       -1 0.71332926E-01 0.13701952E+04</pdfrwt>
<totfact> 0.54631636E+01</totfact>
</mgrwt>
</event>
<event>
12    6  0.1542110E-007  0.1082627E+04  0.7818608E-02  0.9222292E-01
          2   -1    0    0  501    0  0.00000000000E+00  0.00000000000E+00  0.17198799069E+03  0.17198799069E+03  0.00000000000E+00 0. -1.
         -1   -1    0    0    0  501 -0.00000000000E+00 -0.00000000000E+00 -0.17037262164E+04  0.17037262164E+04  0.00000000000E+00 0.  1.
         24    2    1    2    0    0  0.50652604982E+02 -0.81329966362E+02 -0.37535323587E+02  0.13157272003E+03  0.81989208554E+02 0.  0.
        254    2    1    2    0    0 -0.50652604982E+02  0.81329966362E+02 -0.14942029021E+04  0.17441414870E+04  0.89454288012E+03 0.  0.
         23    2    4    4    0    0  0.15912272978E+03 -0.27260309446E+03 -0.11622070197E+04  0.12075578820E+04  0.88534692107E+02 0.  0.
         23    2    4    4    0    0 -0.20977533476E+03  0.35393306082E+03 -0.33199588245E+03  0.53658360501E+03  0.91795406133E+02 0.  0.
          4    1    3    3  502    0  0.54960806941E+02 -0.16950623567E+02 -0.34304083556E+02  0.66968530576E+02  0.00000000000E+00 0. -1.
         -3    1    3    3    0  502 -0.43082019581E+01 -0.64379342795E+02 -0.32312400302E+01  0.64604189454E+02  0.00000000000E+00 0.  1.
         11    1    5    5    0    0  0.17009329852E+03 -0.24993730065E+03 -0.10576072759E+04  0.10999697880E+04  0.00000000000E+00 0.  1.
        -11    1    5    5    0    0 -0.10970568747E+02 -0.22665793807E+02 -0.10459974378E+03  0.10758809407E+03  0.00000000000E+00 0. -1.
          4    1    6    6  503    0 -0.10855493904E+02  0.70280772098E+02 -0.30743939232E+02  0.77475276535E+02  0.00000000000E+00 0. -1.
         -4    1    6    6    0  503 -0.19891984085E+03  0.28365228872E+03 -0.30125194322E+03  0.45910832847E+03  0.00000000000E+00 0.  1.
<mgrwt>
<rscale>  0 0.10826273E+04</rscale>
<asrwt>0</asrwt>
<pdfrwt beam="1">  1        2 0.26459691E-01 0.10826273E+04</pdfrwt>
<pdfrwt beam="2">  1       -1 0.26211173E+00 0.10826273E+04</pdfrwt>
<totfact> 0.13709712E+01</totfact>
</mgrwt>
</event>
<event>
12    6  0.1542110E-007  0.1129105E+04  0.7818608E-02  0.9177280E-01
         -1   -1    0    0    0  501 -0.00000000000E+00  0.00000000000E+00  0.72455044912E+03  0.72455044912E+03  0.00000000000E+00 0.  1.
          2   -1    0    0  501    0  0.00000000000E+00 -0.00000000000E+00 -0.43988567394E+03  0.43988567394E+03  0.00000000000E+00 0. -1.
         24    2    1    2    0    0 -0.30995084931E+02  0.15927942846E+03  0.13091220656E+03  0.22312782948E+03  0.79482015831E+02 0.  0.
        254    2    1    2    0    0  0.30995084931E+02 -0.15927942846E+03  0.15375256861E+03  0.94130829358E+03  0.91438001924E+03 0.  0.
         23    2    4    4    0    0 -0.10993608095E+03  0.31235937212E+03  0.25824717236E+03  0.42975516996E+03  0.91343225398E+02 0.  0.
         23    2    4    4    0    0  0.14093116589E+03 -0.47163880058E+03 -0.10449460374E+03  0.51155312363E+03  0.91993066857E+02 0.  0.
          2    1    3    3  502    0 -0.47153848930E+02  0.92289841715E+02  0.44981664041E+02  0.11297898235E+03  0.00000000000E+00 0. -1.
         -1    1    3    3    0  502  0.16158763999E+02  0.66989586745E+02  0.85930542518E+02  0.11014884713E+03  0.00000000000E+00 0.  1.
         11    1    5    5    0    0  0.15338664047E+02  0.19174271079E+02  0.15549253886E+02  0.29063836336E+02  0.00000000000E+00 0. -1.
        -11    1    5    5    0    0 -0.12527474500E+03  0.29318510104E+03  0.24269791847E+03  0.40069133362E+03  0.00000000000E+00 0.  1.
          3    1    6    6  503    0  0.37078302300E+02 -0.11181882009E+03 -0.66098818118E+02  0.13508257765E+03  0.00000000000E+00 0. -1.
         -3    1    6    6    0  503  0.10385286359E+03 -0.35981998049E+03 -0.38395785625E+02  0.37647054598E+03  0.00000000000E+00 0.  1.
<mgrwt>
<rscale>  0 0.11291047E+04</rscale>
<asrwt>0</asrwt>
<pdfrwt beam="1">  1        2 0.67674719E-01 0.11291047E+04</pdfrwt>
<pdfrwt beam="2">  1       -1 0.11146930E+00 0.11291047E+04</pdfrwt>
<totfact> 0.59893408E+01</totfact>
</mgrwt>
</event>
<event>
12    6  0.1542110E-007  0.3391823E+04  0.7818608E-02  0.8139916E-01
         -1   -1    0    0    0  501 -0.00000000000E+00  0.00000000000E+00  0.22648821195E+04  0.22648821195E+04  0.00000000000E+00 0.  1.
          2   -1    0    0  501    0  0.00000000000E+00 -0.00000000000E+00 -0.12698743872E+04  0.12698743872E+04  0.00000000000E+00 0. -1.
         24    2    1    2    0    0  0.15012468913E+04  0.23166619058E+03  0.89416065869E+03  0.17643651581E+04  0.77779656321E+02 0.  0.
        254    2    1    2    0    0 -0.15012468913E+04 -0.23166619058E+03  0.10084707361E+03  0.17703913487E+04  0.90371673808E+03 0.  0.
         23    2    4    4    0    0 -0.34063529250E+03 -0.80246846870E+01 -0.35455550709E+03  0.50003663300E+03  0.90720607773E+02 0.  0.
         23    2    4    4    0    0 -0.11606115988E+04 -0.22364150589E+03  0.45540258070E+03  0.12703547157E+04  0.96823482099E+02 0.  0.
          4    1    3    3  502    0  0.44757950172E+03  0.43972947087E+02  0.23534307861E+03  0.50758979017E+03  0.00000000000E+00 0. -1.
         -3    1    3    3    0  502  0.10536673896E+04  0.18769324349E+03  0.65881758008E+03  0.12567753679E+04  0.00000000000E+00 0.  1.
         11    1    5    5    0    0 -0.48795904227E+02  0.31455026368E+02 -0.55386981147E+02  0.80238249194E+02  0.00000000000E+00 0. -1.
        -11    1    5    5    0    0 -0.29183938827E+03 -0.39479711055E+02 -0.29916852594E+03  0.41979838380E+03  0.00000000000E+00 0.  1.
          1    1    6    6  503    0 -0.68326427270E+03 -0.13508139663E+03  0.21717473574E+03  0.72956282520E+03  0.00000000000E+00 0. -1.
         -1    1    6    6    0  503 -0.47734732613E+03 -0.88560109258E+02  0.23822784496E+03  0.54079189050E+03  0.00000000000E+00 0.  1.
<mgrwt>
<rscale>  0 0.33918230E+04</rscale>
<asrwt>0</asrwt>
<pdfrwt beam="1">  1        2 0.19536529E+00 0.33918230E+04</pdfrwt>
<pdfrwt beam="2">  1       -1 0.34844340E+00 0.33918230E+04</pdfrwt>
<totfact> 0.25856056E-01</totfact>
</mgrwt>
</event>
<event>
12    6  0.1542110E-007  0.1179760E+04  0.7818608E-02  0.9130760E-01
         -1   -1    0    0    0  501 -0.00000000000E+00  0.00000000000E+00  0.21536716328E+03  0.21536716328E+03  0.00000000000E+00 0.  1.
          2   -1    0    0  501    0  0.00000000000E+00 -0.00000000000E+00 -0.16156513530E+04  0.16156513530E+04  0.00000000000E+00 0. -1.
         24    2    1    2    0    0  0.68702540037E+02 -0.22113124005E+03 -0.28760489197E+03  0.37759153973E+03  0.78991978451E+02 0.  0.
        254    2    1    2    0    0 -0.68702540037E+02  0.22113124005E+03 -0.11126792978E+04  0.14534269766E+04  0.90596671693E+03 0.  0.
         23    2    4    4    0    0  0.22341575288E+02  0.54297538497E+03 -0.86417837733E+03  0.10252597810E+04  0.95036497925E+02 0.  0.
         23    2    4    4    0    0 -0.91044115325E+02 -0.32184414492E+03 -0.24850092045E+03  0.42816719562E+03  0.98497489219E+02 0.  0.
          4    1    3    3  502    0  0.39901692852E+02 -0.20052847689E+03 -0.26809047359E+03  0.33715918669E+03  0.00000000000E+00 0. -1.
         -3    1    3    3    0  502  0.28800847185E+02 -0.20602763156E+02 -0.19514418383E+02  0.40432353049E+02  0.00000000000E+00 0.  1.
         11    1    5    5    0    0 -0.53122895908E+01  0.19332964789E+03 -0.22957865748E+03  0.30018483164E+03  0.00000000000E+00 0. -1.
        -11    1    5    5    0    0  0.27653864879E+02  0.34964573707E+03 -0.63459971985E+03  0.72507494932E+03  0.00000000000E+00 0.  1.
          3    1    6    6  503    0 -0.13532329712E+02 -0.22129792522E+03 -0.15947883089E+03  0.27311058777E+03  0.00000000000E+00 0. -1.
         -3    1    6    6    0  503 -0.77511785613E+02 -0.10054621970E+03 -0.89022089570E+02  0.15505660785E+03  0.00000000000E+00 0.  1.
<mgrwt>
<rscale>  0 0.11797597E+04</rscale>
<asrwt>0</asrwt>
<pdfrwt beam="1">  1        2 0.24856174E+00 0.11797597E+04</pdfrwt>
<pdfrwt beam="2">  1       -1 0.33133410E-01 0.11797597E+04</pdfrwt>
<totfact> 0.10526220E+02</totfact>
</mgrwt>
</event>
<event>
12    6  0.1542110E-007  0.4095535E+04  0.7818608E-02  0.7985547E-01
         -1   -1    0    0    0  501 -0.00000000000E+00  0.00000000000E+00  0.16179975429E+04  0.16179975429E+04  0.00000000000E+00 0.  1.
          2   -1    0    0  501    0  0.00000000000E+00 -0.00000000000E+00 -0.25916928539E+04  0.25916928539E+04  0.00000000000E+00 0. -1.
         24    2    1    2    0    0 -0.59488625811E+02 -0.71378958096E+03 -0.23225333407E+04  0.24317857471E+04  0.79914570959E+02 0.  0.
        254    2    1    2    0    0  0.59488625811E+02  0.71378958096E+03  0.13488380297E+04  0.17779046497E+04  0.91024526943E+03 0.  0.
         23    2    4    4    0    0  0.24449389361E+03 -0.10017938538E+03  0.55855401399E+03  0.62457231734E+03  0.91075901115E+02 0.  0.
         23    2    4    4    0    0 -0.18500526780E+03  0.81396896635E+03  0.79028401573E+03  0.11533323324E+04  0.94096844137E+02 0.  0.
          4    1    3    3  502    0  0.12012496658E+02 -0.30502900288E+03 -0.10282956627E+04  0.10726504382E+04  0.00000000000E+00 0. -1.
         -3    1    3    3    0  502 -0.71501122469E+02 -0.40876057808E+03 -0.12942376780E+04  0.13591353089E+04  0.00000000000E+00 0.  1.
         11    1    5    5    0    0  0.19737976642E+03 -0.85944791393E+02  0.35519135570E+03  0.41533863114E+03  0.00000000000E+00 0.  1.
        -11    1    5    5    0    0  0.47114127190E+02 -0.14234593991E+02  0.20336265830E+03  0.20923368619E+03  0.00000000000E+00 0. -1.
          2    1    6    6  503    0 -0.15732132776E+03  0.51619865604E+03  0.47715339540E+03  0.72033770928E+03  0.00000000000E+00 0. -1.
         -2    1    6    6    0  503 -0.27683940041E+02  0.29777031030E+03  0.31313062033E+03  0.43299462309E+03  0.00000000000E+00 0.  1.
<mgrwt>
<rscale>  0 0.40955355E+04</rscale>
<asrwt>0</asrwt>
<pdfrwt beam="1">  1        2 0.39872197E+00 0.40955355E+04</pdfrwt>
<pdfrwt beam="2">  1       -1 0.24892270E+00 0.40955355E+04</pdfrwt>
<totfact> 0.19401022E-01</totfact>
</mgrwt>
</event>
<event>
12    6  0.1542110E-007  0.3186613E+04  0.7818608E-02  0.8192362E-01
          2   -1    0    0  501    0  0.00000000000E+00  0.00000000000E+00  0.31840274121E+04  0.31840274121E+04  0.00000000000E+00 0. -1.
         -1   -1    0    0    0  501 -0.00000000000E+00 -0.00000000000E+00 -0.79730024870E+03  0.79730024870E+03  0.00000000000E+00 0.  1.
         24    2    1    2    0    0  0.13903118734E+04 -0.39860994788E+03  0.13906960371E+04  0.20080832612E+04  0.80659286231E+02 0.  0.
        254    2    1    2    0    0 -0.13903118734E+04  0.39860994788E+03  0.99603112630E+03  0.19732443996E+04  0.89986580108E+03 0.  0.
         23    2    4    4    0    0 -0.73499962157E+03  0.52034972300E+03  0.92934244705E+03  0.12974256852E+04  0.92993262555E+02 0.  0.
         23    2    4    4    0    0 -0.65531225186E+03 -0.12173977512E+03  0.66688679254E+02  0.67581871434E+03  0.89603763524E+02 0.  0.
          4    1    3    3  502    0  0.11493664145E+04 -0.30713055844E+03  0.11117155036E+04  0.16282762959E+04  0.00000000000E+00 0. -1.
         -3    1    3    3    0  502  0.24094545894E+03 -0.91479389439E+02  0.27898053346E+03  0.37980696535E+03  0.00000000000E+00 0.  1.
         11    1    5    5    0    0 -0.19534197875E+02  0.21022226052E+02  0.11066068053E+02  0.30756734823E+02  0.00000000000E+00 0. -1.
        -11    1    5    5    0    0 -0.71546542369E+03  0.49932749695E+03  0.91827637900E+03  0.12666689504E+04  0.00000000000E+00 0.  1.
          1    1    6    6  503    0 -0.19449738906E+03 -0.45238969683E+02 -0.20116442222E+02  0.20069995012E+03  0.00000000000E+00 0. -1.
         -1    1    6    6    0  503 -0.46081486279E+03 -0.76500805434E+02  0.86805121476E+02  0.47511876422E+03  0.00000000000E+00 0.  1.
<mgrwt>
<rscale>  0 0.31866132E+04</rscale>
<asrwt>0</asrwt>
<pdfrwt beam="1">  1        2 0.48985037E+00 0.31866132E+04</pdfrwt>
<pdfrwt beam="2">  1       -1 0.12266158E+00 0.31866132E+04</pdfrwt>
<totfact> 0.74517710E-01</totfact>
</mgrwt>
</event>
<event>
12    6  0.1542110E-007  0.1413536E+04  0.7818608E-02  0.8944078E-01
         -1   -1    0    0    0  501 -0.00000000000E+00  0.00000000000E+00  0.12464647449E+03  0.12464647449E+03  0.00000000000E+00 0.  1.
          2   -1    0    0  501    0  0.00000000000E+00 -0.00000000000E+00 -0.40075047206E+04  0.40075047206E+04  0.00000000000E+00 0. -1.
         24    2    1    2    0    0 -0.83628944046E+02 -0.12715241372E+03 -0.23065697534E+04  0.23127666102E+04  0.73917719062E+02 0.  0.
        254    2    1    2    0    0  0.83628944046E+02  0.12715241372E+03 -0.15762884927E+04  0.18193845849E+04  0.89571944212E+03 0.  0.
         23    2    4    4    0    0 -0.29436028942E+02 -0.36549167803E+03 -0.49977007627E+03  0.62650276995E+03  0.91021673827E+02 0.  0.
         23    2    4    4    0    0  0.11306497299E+03  0.49264409175E+03 -0.10765184164E+04  0.11928818150E+04  0.92699699629E+02 0.  0.
          4    1    3    3  502    0 -0.85583157727E+02 -0.67391646984E+02 -0.14052533405E+04  0.14094690710E+04  0.00000000000E+00 0. -1.
         -3    1    3    3    0  502  0.19542136807E+01 -0.59760766740E+02 -0.90131641293E+03  0.90329753925E+03  0.00000000000E+00 0.  1.
         11    1    5    5    0    0 -0.53002562115E+01 -0.31060836718E+03 -0.36702759574E+03  0.48084811168E+03  0.00000000000E+00 0. -1.
        -11    1    5    5    0    0 -0.24135772731E+02 -0.54883310850E+02 -0.13274248054E+03  0.14565465826E+03  0.00000000000E+00 0.  1.
          3    1    6    6  503    0  0.11263857621E+03  0.37932318605E+03 -0.76280270237E+03  0.85932618432E+03  0.00000000000E+00 0.  1.
         -3    1    6    6    0  503  0.42639677497E+00  0.11332090570E+03 -0.31371571406E+03  0.33355563064E+03  0.00000000000E+00 0. -1.
<mgrwt>
<rscale>  0 0.14135365E+04</rscale>
<asrwt>0</asrwt>
<pdfrwt beam="1">  1        2 0.61653918E+00 0.14135365E+04</pdfrwt>
<pdfrwt beam="2">  1       -1 0.19176381E-01 0.14135365E+04</pdfrwt>
<totfact> 0.84287900E+00</totfact>
</mgrwt>
</event>
<event>
12    6  0.1542110E-007  0.1166535E+04  0.7818608E-02  0.9142663E-01
         -1   -1    0    0    0  501 -0.00000000000E+00  0.00000000000E+00  0.46128005697E+03  0.46128005697E+03  0.00000000000E+00 0.  1.
          2   -1    0    0  501    0  0.00000000000E+00 -0.00000000000E+00 -0.73751541158E+03  0.73751541158E+03  0.00000000000E+00 0. -1.
         24    2    1    2    0    0 -0.11438285377E+02 -0.10528529713E+03  0.14923975370E+03  0.19937065309E+03  0.79122215998E+02 0.  0.
        254    2    1    2    0    0  0.11438285377E+02  0.10528529713E+03 -0.42547510831E+03  0.99942481547E+03  0.89811194504E+03 0.  0.
         23    2    4    4    0    0  0.55462131809E+02  0.31469173221E+03  0.15993180363E+03  0.36851631901E+03  0.90106388120E+02 0.  0.
         23    2    4    4    0    0 -0.44023846433E+02 -0.20940643508E+03 -0.58540691194E+03  0.63090849646E+03  0.97750315852E+02 0.  0.
          2    1    3    3  502    0 -0.42152923737E+02 -0.37192814164E+02  0.50570719104E+02  0.75614628451E+02  0.00000000000E+00 0. -1.
         -1    1    3    3    0  502  0.30714638361E+02 -0.68092482966E+02  0.98669034592E+02  0.12375602463E+03  0.00000000000E+00 0.  1.
         11    1    5    5    0    0  0.15568693844E+02  0.13420256605E+03  0.11706606051E+03  0.17876569997E+03  0.00000000000E+00 0.  1.
        -11    1    5    5    0    0  0.39893437965E+02  0.18048916616E+03  0.42865743119E+02  0.18975061904E+03  0.00000000000E+00 0. -1.
          3    1    6    6  503    0 -0.23792383742E+02 -0.86469649919E+01 -0.26290211363E+02  0.36496886733E+02  0.00000000000E+00 0. -1.
         -3    1    6    6    0  503 -0.20231462691E+02 -0.20075947009E+03 -0.55911670057E+03  0.59441160972E+03  0.00000000000E+00 0.  1.
<mgrwt>
<rscale>  0 0.11665353E+04</rscale>
<asrwt>0</asrwt>
<pdfrwt beam="1">  1        2 0.11346391E+00 0.11665353E+04</pdfrwt>
<pdfrwt beam="2">  1       -1 0.70966163E-01 0.11665353E+04</pdfrwt>
<totfact> 0.86833350E+01</totfact>
</mgrwt>
</event>
<event>
12    6  0.1542110E-007  0.3039140E+04  0.7818608E-02  0.8232642E-01
          2   -1    0    0  501    0  0.00000000000E+00  0.00000000000E+00  0.62405480599E+03  0.62405480599E+03  0.00000000000E+00 0. -1.
         -1   -1    0    0    0  501 -0.00000000000E+00 -0.00000000000E+00 -0.37001437664E+04  0.37001437664E+04  0.00000000000E+00 0.  1.
         24    2    1    2    0    0  0.56565714267E+03 -0.97652720057E+03 -0.25324121731E+04  0.27735537912E+04  0.76914507654E+02 0.  0.
        254    2    1    2    0    0 -0.56565714267E+03  0.97652720057E+03 -0.54367678732E+03  0.15506447812E+04  0.91397013737E+03 0.  0.
         23    2    4    4    0    0  0.16266658617E+03  0.19344479025E+02  0.61677975269E+02  0.20100016262E+03  0.98804178118E+02 0.  0.
         23    2    4    4    0    0 -0.72832372884E+03  0.95718272154E+03 -0.60535476259E+03  0.13496446186E+04  0.91825876384E+02 0.  0.
          4    1    3    3  502    0  0.34947744865E+02 -0.98538179091E+02 -0.20773843188E+03  0.23256477311E+03  0.00000000000E+00 0. -1.
         -3    1    3    3    0  502  0.53070939781E+03 -0.87798902148E+03 -0.23246737412E+04  0.25409890180E+04  0.00000000000E+00 0.  1.
         11    1    5    5    0    0  0.13604583214E+03 -0.23013409568E+02  0.28276780915E+02  0.14084623460E+03  0.00000000000E+00 0.  1.
        -11    1    5    5    0    0  0.26620754029E+02  0.42357888593E+02  0.33401194354E+02  0.60153928013E+02  0.00000000000E+00 0. -1.
          1    1    6    6  503    0 -0.11740023441E+03  0.19775770673E+03 -0.88457611406E+02  0.24640550852E+03  0.00000000000E+00 0. -1.
         -1    1    6    6    0  503 -0.61092349443E+03  0.75942501482E+03 -0.51689715118E+03  0.11032391101E+04  0.00000000000E+00 0.  1.
<mgrwt>
<rscale>  0 0.30391397E+04</rscale>
<asrwt>0</asrwt>
<pdfrwt beam="1">  1        2 0.96008432E-01 0.30391397E+04</pdfrwt>
<pdfrwt beam="2">  1       -1 0.56925289E+00 0.30391397E+04</pdfrwt>
<totfact> 0.27373852E-02</totfact>
</mgrwt>
</event>
<event>
12    6  0.1542110E-007  0.1860142E+04  0.7818608E-02  0.8674955E-01
         -1   -1    0    0    0  501 -0.00000000000E+00  0.00000000000E+00  0.97385117759E+03  0.97385117759E+03  0.00000000000E+00 0.  1.
          2   -1    0    0  501    0  0.00000000000E+00 -0.00000000000E+00 -0.88825852766E+03  0.88825852766E+03  0.00000000000E+00 0. -1.
         24    2    1    2    0    0  0.62385909926E+02 -0.60613039125E+03 -0.33140910251E+03  0.69821205239E+03  0.79887570485E+02 0.  0.
        254    2    1    2    0    0 -0.62385909926E+02  0.60613039125E+03  0.41700175244E+03  0.11638976529E+04  0.89971174930E+03 0.  0.
         23    2    4    4    0    0 -0.39484066871E+03  0.10710455579E+03  0.36322813420E+03  0.55509340512E+03  0.93933334890E+02 0.  0.
         23    2    4    4    0    0  0.33245475878E+03  0.49902583546E+03  0.53773618247E+02  0.60880424774E+03  0.90543133054E+02 0.  0.
          4    1    3    3  502    0  0.69085903637E+02 -0.49102020161E+03 -0.29648355411E+03  0.57773367422E+03  0.00000000000E+00 0. -1.
         -3    1    3    3    0  502 -0.66999937112E+01 -0.11511018964E+03 -0.34925548402E+02  0.12047837817E+03  0.00000000000E+00 0.  1.
         11    1    5    5    0    0 -0.23402689635E+03  0.10579194444E+03  0.19590256024E+03  0.32301445298E+03  0.00000000000E+00 0.  1.
        -11    1    5    5    0    0 -0.16081377236E+03  0.13126113427E+01  0.16732557396E+03  0.23207895215E+03  0.00000000000E+00 0. -1.
          2    1    6    6  503    0  0.25077760540E+03  0.32373904731E+03  0.67078959145E+02  0.41496501646E+03  0.00000000000E+00 0.  1.
         -2    1    6    6    0  503  0.81677153384E+02  0.17528678816E+03 -0.13305340898E+02  0.19383923128E+03  0.00000000000E+00 0. -1.
<mgrwt>
<rscale>  0 0.18601415E+04</rscale>
<asrwt>0</asrwt>
<pdfrwt beam="1">  1        2 0.13665516E+00 0.18601415E+04</pdfrwt>
<pdfrwt beam="2">  1       -1 0.14982326E+00 0.18601415E+04</pdfrwt>
<totfact> 0.11208430E+01</totfact>
</mgrwt>
</event>
<event>
12    6  0.1542110E-007  0.2327926E+04  0.7818608E-02  0.8466991E-01
         -1   -1    0    0    0  501 -0.00000000000E+00  0.00000000000E+00  0.10636859267E+04  0.10636859267E+04  0.00000000000E+00 0.  1.
          2   -1    0    0  501    0  0.00000000000E+00 -0.00000000000E+00 -0.12736931342E+04  0.12736931342E+04  0.00000000000E+00 0. -1.
         24    2    1    2    0    0 -0.28760253592E+02  0.13292632632E+03  0.88740411033E+03  0.90123772338E+03  0.79036817977E+02 0.  0.
        254    2    1    2    0    0  0.28760253592E+02 -0.13292632632E+03 -0.10974113179E+04  0.14361413375E+04  0.91634806716E+03 0.  0.
         23    2    4    4    0    0 -0.29699446784E+03 -0.10288406703E+03 -0.10417970456E+04  0.10920061706E+04  0.91353965721E+02 0.  0.
         23    2    4    4    0    0  0.32575472143E+03 -0.30042259291E+02 -0.55614272277E+02  0.34413516695E+03  0.91199725741E+02 0.  0.
          4    1    3    3  502    0  0.95434802466E+01  0.46819710494E+01  0.23529633146E+03  0.23553632940E+03  0.00000000000E+00 0. -1.
         -3    1    3    3    0  502 -0.38303733839E+02  0.12824435528E+03  0.65210777888E+03  0.66570139399E+03  0.00000000000E+00 0.  1.
         11    1    5    5    0    0 -0.12837664436E+03  0.25450912093E+01 -0.41810958104E+03  0.43738159777E+03  0.00000000000E+00 0.  1.
        -11    1    5    5    0    0 -0.16861782348E+03 -0.10542915824E+03 -0.62368746460E+03  0.65462457279E+03  0.00000000000E+00 0. -1.
          3    1    6    6  503    0  0.25645230746E+03  0.91831664438E+01 -0.21543205971E+02  0.25751937067E+03  0.00000000000E+00 0. -1.
         -3    1    6    6    0  503  0.69302413969E+02 -0.39225425735E+02 -0.34071066305E+02  0.86615796280E+02  0.00000000000E+00 0.  1.
<mgrwt>
<rscale>  0 0.23279257E+04</rscale>
<asrwt>0</asrwt>
<pdfrwt beam="1">  1        2 0.19595279E+00 0.23279257E+04</pdfrwt>
<pdfrwt beam="2">  1       -1 0.16364399E+00 0.23279257E+04</pdfrwt>
<totfact> 0.48441126E+00</totfact>
</mgrwt>
</event>
<event>
12    6  0.1542110E-007  0.1388232E+04  0.7818608E-02  0.8962381E-01
          2   -1    0    0  501    0  0.00000000000E+00  0.00000000000E+00  0.28041523961E+04  0.28041523961E+04  0.00000000000E+00 0. -1.
         -1   -1    0    0    0  501 -0.00000000000E+00 -0.00000000000E+00 -0.17181551174E+03  0.17181551174E+03  0.00000000000E+00 0.  1.
         24    2    1    2    0    0 -0.12771173750E+03 -0.25998214682E+03  0.19037561387E+03  0.35598548316E+03  0.81128202891E+02 0.  0.
        254    2    1    2    0    0  0.12771173750E+03  0.25998214682E+03  0.24419612704E+04  0.26199824246E+04  0.90400887968E+03 0.  0.
         23    2    4    4    0    0  0.50569661039E+03  0.11794227038E+03  0.11974943823E+04  0.13084189250E+04  0.91257036119E+02 0.  0.
         23    2    4    4    0    0 -0.37798487290E+03  0.14203987644E+03  0.12444668881E+04  0.13115634997E+04  0.91940673215E+02 0.  0.
          2    1    3    3  502    0 -0.56575011875E+02 -0.41745897525E+02  0.56993110346E+02  0.90507825936E+02  0.00000000000E+00 0. -1.
         -1    1    3    3    0  502 -0.71136725622E+02 -0.21823624929E+03  0.13338250352E+03  0.26547765722E+03  0.00000000000E+00 0.  1.
         11    1    5    5    0    0  0.19652057996E+02  0.16068258007E+02  0.27668961177E+02  0.37549483505E+02  0.00000000000E+00 0.  1.
        -11    1    5    5    0    0  0.48604455240E+03  0.10187401237E+03  0.11698254212E+04  0.12708694415E+04  0.00000000000E+00 0. -1.
          1    1    6    6  503    0 -0.20063792637E+03  0.28222711373E+02  0.65043016305E+03  0.68125729056E+03  0.00000000000E+00 0. -1.
         -1    1    6    6    0  503 -0.17734694653E+03  0.11381716507E+03  0.59403672507E+03  0.63030620910E+03  0.00000000000E+00 0.  1.
<mgrwt>
<rscale>  0 0.13882318E+04</rscale>
<asrwt>0</asrwt>
<pdfrwt beam="1">  1        2 0.43140803E+00 0.13882318E+04</pdfrwt>
<pdfrwt beam="2">  1       -1 0.26433158E-01 0.13882318E+04</pdfrwt>
<totfact> 0.32678118E+01</totfact>
</mgrwt>
</event>
<event>
12    6  0.1542110E-007  0.3053285E+04  0.7818608E-02  0.8228677E-01
          2   -1    0    0  501    0  0.00000000000E+00  0.00000000000E+00  0.38386666311E+04  0.38386666311E+04  0.00000000000E+00 0. -1.
         -1   -1    0    0    0  501 -0.00000000000E+00 -0.00000000000E+00 -0.60714747080E+03  0.60714747080E+03  0.00000000000E+00 0.  1.
         24    2    1    2    0    0 -0.34771166165E+02 -0.10017083226E+04  0.68894732778E+02  0.10078519013E+04  0.79939810244E+02 0.  0.
        254    2    1    2    0    0  0.34771166165E+02  0.10017083226E+04  0.31626244276E+04  0.34379622006E+04  0.90153326362E+03 0.  0.
         23    2    4    4    0    0 -0.31336776812E+03  0.69344191052E+03  0.25537347268E+04  0.26662499371E+04  0.90921015243E+02 0.  0.
         23    2    4    4    0    0  0.34813893428E+03  0.30826641208E+03  0.60888970079E+03  0.77171226351E+03  0.92543241429E+02 0.  0.
          4    1    3    3  502    0  0.14230050135E+01 -0.37910758013E+03  0.62101750236E+02  0.38416299879E+03  0.00000000000E+00 0. -1.
         -3    1    3    3    0  502 -0.36194171179E+02 -0.62260074247E+03  0.67929825422E+01  0.62368890255E+03  0.00000000000E+00 0.  1.
         11    1    5    5    0    0 -0.28455317968E+03  0.58314088960E+03  0.22551648410E+04  0.23466555498E+04  0.00000000000E+00 0. -1.
        -11    1    5    5    0    0 -0.28814588432E+02  0.11030102092E+03  0.29856988574E+03  0.31959438730E+03  0.00000000000E+00 0.  1.
          3    1    6    6  503    0  0.26483043337E+03  0.27829370503E+03  0.51705541106E+03  0.64414970528E+03  0.00000000000E+00 0. -1.
         -3    1    6    6    0  503  0.83308500907E+02  0.29972707047E+02  0.91834289735E+02  0.12756255823E+03  0.00000000000E+00 0.  1.
<mgrwt>
<rscale>  0 0.30532846E+04</rscale>
<asrwt>0</asrwt>
<pdfrwt beam="1">  1        2 0.59056408E+00 0.30532846E+04</pdfrwt>
<pdfrwt beam="2">  1       -1 0.93407306E-01 0.30532846E+04</pdfrwt>
<totfact> 0.49347818E-01</totfact>
</mgrwt>
</event>
<event>
12    6  0.1542110E-007  0.1876305E+04  0.7818608E-02  0.8666742E-01
          2   -1    0    0  501    0  0.00000000000E+00  0.00000000000E+00  0.10731104266E+04  0.10731104266E+04  0.00000000000E+00 0. -1.
         -1   -1    0    0    0  501 -0.00000000000E+00 -0.00000000000E+00 -0.82016695572E+03  0.82016695572E+03  0.00000000000E+00 0.  1.
         24    2    1    2    0    0  0.30334642584E+03  0.88963435050E+02  0.75648820037E+03  0.82464778358E+03  0.88521312835E+02 0.  0.
        254    2    1    2    0    0 -0.30334642584E+03 -0.88963435050E+02 -0.50354472948E+03  0.10686295987E+04  0.88796304983E+03 0.  0.
         23    2    4    4    0    0 -0.12204797437E+03  0.30675860296E+03 -0.52060581120E+03  0.62332355741E+03  0.92224172724E+02 0.  0.
         23    2    4    4    0    0 -0.18129845148E+03 -0.39572203802E+03  0.17061081718E+02  0.44530604132E+03  0.92419316442E+02 0.  0.
          4    1    3    3  502    0  0.29192791391E+03  0.76153916632E+02  0.64774851546E+03  0.71456242919E+03  0.00000000000E+00 0. -1.
         -3    1    3    3    0  502  0.11418511936E+02  0.12809518419E+02  0.10873968491E+03  0.11008535439E+03  0.00000000000E+00 0.  1.
         11    1    5    5    0    0 -0.88558377731E+01 -0.53901198114E+01 -0.21375052582E+02  0.23756517572E+02  0.00000000000E+00 0. -1.
        -11    1    5    5    0    0 -0.11319213659E+03  0.31214872278E+03 -0.49923075861E+03  0.59956703984E+03  0.00000000000E+00 0.  1.
          3    1    6    6  503    0 -0.24778022064E+00 -0.79369245361E+02  0.15155024826E+02  0.80803547457E+02  0.00000000000E+00 0. -1.
         -3    1    6    6    0  503 -0.18105067126E+03 -0.31635279265E+03  0.19060568925E+01  0.36450249387E+03  0.00000000000E+00 0.  1.
<mgrwt>
<rscale>  0 0.18763046E+04</rscale>
<asrwt>0</asrwt>
<pdfrwt beam="1">  1        2 0.16509391E+00 0.18763046E+04</pdfrwt>
<pdfrwt beam="2">  1       -1 0.12617953E+00 0.18763046E+04</pdfrwt>
<totfact> 0.13247535E+01</totfact>
</mgrwt>
</event>
<event>
12    6  0.1542110E-007  0.1809869E+04  0.7818608E-02  0.8701069E-01
          2   -1    0    0  501    0  0.00000000000E+00  0.00000000000E+00  0.11711494989E+04  0.11711494989E+04  0.00000000000E+00 0. -1.
         -1   -1    0    0    0  501 -0.00000000000E+00 -0.00000000000E+00 -0.69923285871E+03  0.69923285871E+03  0.00000000000E+00 0.  1.
         24    2    1    2    0    0  0.49088617752E+03  0.43726412932E+03  0.40909050484E+03  0.77753636740E+03  0.70983120588E+02 0.  0.
        254    2    1    2    0    0 -0.49088617752E+03 -0.43726412932E+03  0.62826135336E+02  0.10928459902E+04  0.87074455321E+03 0.  0.
         23    2    4    4    0    0 -0.84666848272E+02  0.14545558523E+03  0.28547669355E+03  0.34333928430E+03  0.89772596678E+02 0.  0.
         23    2    4    4    0    0 -0.40621932925E+03 -0.58271971455E+03 -0.22265055821E+03  0.74950670590E+03  0.87238878571E+02 0.  0.
          4    1    3    3  502    0  0.34850634326E+03  0.30704557553E+03  0.32599470047E+03  0.56745590267E+03  0.00000000000E+00 0. -1.
         -3    1    3    3    0  502  0.14237983426E+03  0.13021855379E+03  0.83095804366E+02  0.21008046473E+03  0.00000000000E+00 0.  1.
         11    1    5    5    0    0 -0.71855886855E+02  0.12363333945E+03  0.28402654380E+03  0.31799300099E+03  0.00000000000E+00 0.  1.
        -11    1    5    5    0    0 -0.12810961417E+02  0.21822245779E+02  0.14501497527E+01  0.25346283309E+02  0.00000000000E+00 0. -1.
          3    1    6    6  503    0  0.21034899346E+01 -0.20311910676E+02 -0.31318110575E+01  0.20659298771E+02  0.00000000000E+00 0. -1.
         -3    1    6    6    0  503 -0.40832281918E+03 -0.56240780388E+03 -0.21951874715E+03  0.72884740713E+03  0.00000000000E+00 0.  1.
<mgrwt>
<rscale>  0 0.18098687E+04</rscale>
<asrwt>0</asrwt>
<pdfrwt beam="1">  1        2 0.18017685E+00 0.18098687E+04</pdfrwt>
<pdfrwt beam="2">  1       -1 0.10757429E+00 0.18098687E+04</pdfrwt>
<totfact> 0.17059348E+01</totfact>
</mgrwt>
</event>
<event>
12    6  0.1542110E-007  0.1272985E+04  0.7818608E-02  0.9051267E-01
          2   -1    0    0  501    0  0.00000000000E+00  0.00000000000E+00  0.15799989836E+04  0.15799989836E+04  0.00000000000E+00 0. -1.
         -1   -1    0    0    0  501 -0.00000000000E+00 -0.00000000000E+00 -0.25640677842E+03  0.25640677842E+03  0.00000000000E+00 0.  1.
         24    2    1    2    0    0 -0.89569296968E+02  0.43266214589E+02 -0.87792023997E+02  0.15538827515E+03  0.80891608296E+02 0.  0.
        254    2    1    2    0    0  0.89569296968E+02 -0.43266214589E+02  0.14113842292E+04  0.16810174869E+04  0.90770023934E+03 0.  0.
         23    2    4    4    0    0  0.45812527709E+02 -0.12226974983E+02  0.15265983484E+04  0.15298502687E+04  0.87698578106E+02 0.  0.
         23    2    4    4    0    0  0.43756769259E+02 -0.31039239605E+02 -0.11521411921E+03  0.15116721821E+03  0.81848306910E+02 0.  0.
          4    1    3    3  502    0  0.57488428309E+01 -0.16250910216E+01  0.99932956054E+01  0.11642854967E+02  0.00000000000E+00 0. -1.
         -3    1    3    3    0  502 -0.95318139799E+02  0.44891305610E+02 -0.97785319602E+02  0.14374542018E+03  0.00000000000E+00 0.  1.
         11    1    5    5    0    0  0.37134321325E+02 -0.32682419657E+02  0.40197175618E+03  0.40500418657E+03  0.00000000000E+00 0. -1.
        -11    1    5    5    0    0  0.86782063841E+01  0.20455444674E+02  0.11246265922E+04  0.11248460821E+04  0.00000000000E+00 0.  1.
          4    1    6    6  503    0  0.19137239874E+02  0.24121140591E+02 -0.15226569317E+02  0.34349844054E+02  0.00000000000E+00 0. -1.
         -4    1    6    6    0  503  0.24619529385E+02 -0.55160380196E+02 -0.99987549890E+02  0.11681737415E+03  0.00000000000E+00 0.  1.
<mgrwt>
<rscale>  0 0.12729846E+04</rscale>
<asrwt>0</asrwt>
<pdfrwt beam="1">  1        2 0.24307676E+00 0.12729846E+04</pdfrwt>
<pdfrwt beam="2">  1       -1 0.39447198E-01 0.12729846E+04</pdfrwt>
<totfact> 0.79974077E+01</totfact>
</mgrwt>
</event>
<event>
12    6  0.1542110E-007  0.1653494E+04  0.7818608E-02  0.8788342E-01
         -1   -1    0    0    0  501 -0.00000000000E+00  0.00000000000E+00  0.11010417424E+04  0.11010417424E+04  0.00000000000E+00 0.  1.
          2   -1    0    0  501    0  0.00000000000E+00 -0.00000000000E+00 -0.62078519700E+03  0.62078519700E+03  0.00000000000E+00 0. -1.
         24    2    1    2    0    0 -0.34841356286E+03 -0.40708597929E+03  0.40045669623E+03  0.67322825867E+03  0.75892802018E+02 0.  0.
        254    2    1    2    0    0  0.34841356286E+03  0.40708597929E+03  0.79799849199E+02  0.10485986808E+04  0.89781967679E+03 0.  0.
         23    2    4    4    0    0  0.28363846549E+03  0.53142092943E+03 -0.26577082424E+03  0.66499305346E+03  0.93395111225E+02 0.  0.
         23    2    4    4    0    0  0.64775097373E+02 -0.12433495013E+03  0.34557067344E+03  0.38360562730E+03  0.89884336176E+02 0.  0.
          2    1    3    3  502    0 -0.59787703384E+02 -0.33297491918E+02  0.60469004408E+02  0.91322466776E+02  0.00000000000E+00 0. -1.
         -1    1    3    3    0  502 -0.28862585948E+03 -0.37378848738E+03  0.33998769182E+03  0.58190579190E+03  0.00000000000E+00 0.  1.
         11    1    5    5    0    0  0.19092993044E+02  0.85846442923E+02 -0.14631429392E+02  0.89152862388E+02  0.00000000000E+00 0. -1.
        -11    1    5    5    0    0  0.26454547245E+03  0.44557448650E+03 -0.25113939485E+03  0.57584019107E+03  0.00000000000E+00 0.  1.
          3    1    6    6  503    0 -0.21932298911E+02 -0.14063641993E+02  0.47517323000E+02  0.54191399195E+02  0.00000000000E+00 0. -1.
         -3    1    6    6    0  503  0.86707396284E+02 -0.11027130814E+03  0.29805335044E+03  0.32941422810E+03  0.00000000000E+00 0.  1.
<mgrwt>
<rscale>  0 0.16534938E+04</rscale>
<asrwt>0</asrwt>
<pdfrwt beam="1">  1        2 0.95505415E-01 0.16534938E+04</pdfrwt>
<pdfrwt beam="2">  1       -1 0.16939104E+00 0.16534938E+04</pdfrwt>
<totfact> 0.12904996E+01</totfact>
</mgrwt>
</event>
<event>
12    6  0.1542110E-007  0.1751107E+04  0.7818608E-02  0.8732741E-01
          2   -1    0    0  501    0  0.00000000000E+00  0.00000000000E+00  0.92550495511E+03  0.92550495511E+03  0.00000000000E+00 0. -1.
         -1   -1    0    0    0  501 -0.00000000000E+00 -0.00000000000E+00 -0.82829781029E+03  0.82829781029E+03  0.00000000000E+00 0.  1.
         24    2    1    2    0    0 -0.68731650398E+02 -0.59221920485E+03 -0.20247568858E+03  0.63505195062E+03  0.82746293963E+02 0.  0.
        254    2    1    2    0    0  0.68731650398E+02  0.59221920485E+03  0.29968283340E+03  0.11187508148E+04  0.89796768236E+03 0.  0.
         23    2    4    4    0    0  0.42131782180E+03  0.36706259328E+03  0.38281302465E+03  0.68304226536E+03  0.88075365854E+02 0.  0.
         23    2    4    4    0    0 -0.35258617141E+03  0.22515661157E+03 -0.83130191248E+02  0.43570854942E+03  0.88987658338E+02 0.  0.
          2    1    3    3  502    0 -0.15359455234E+02 -0.30613530405E+03 -0.14200089115E+03  0.33781502385E+03  0.00000000000E+00 0. -1.
         -1    1    3    3    0  502 -0.53372195163E+02 -0.28608390080E+03 -0.60474797428E+02  0.29723692677E+03  0.00000000000E+00 0.  1.
         11    1    5    5    0    0  0.45342027892E+02  0.82580006916E+02  0.62969176300E+02  0.11331581619E+03  0.00000000000E+00 0. -1.
        -11    1    5    5    0    0  0.37597579391E+03  0.28448258636E+03  0.31984384835E+03  0.56972644916E+03  0.00000000000E+00 0.  1.
          2    1    6    6  503    0 -0.34705049446E+03  0.22327633828E+03 -0.66389015233E+02  0.41797592070E+03  0.00000000000E+00 0.  1.
         -2    1    6    6    0  503 -0.55356769451E+01  0.18802732965E+01 -0.16741176016E+02  0.17732628719E+02  0.00000000000E+00 0. -1.
<mgrwt>
<rscale>  0 0.17511068E+04</rscale>
<asrwt>0</asrwt>
<pdfrwt beam="1">  1        2 0.14238538E+00 0.17511068E+04</pdfrwt>
<pdfrwt beam="2">  1       -1 0.12743043E+00 0.17511068E+04</pdfrwt>
<totfact> 0.16258969E+01</totfact>
</mgrwt>
</event>
<event>
12    6  0.1542110E-007  0.1833483E+04  0.7818608E-02  0.8688694E-01
         -1   -1    0    0    0  501 -0.00000000000E+00  0.00000000000E+00  0.32534180875E+03  0.32534180875E+03  0.00000000000E+00 0.  1.
          2   -1    0    0  501    0  0.00000000000E+00 -0.00000000000E+00 -0.25831749246E+04  0.25831749246E+04  0.00000000000E+00 0. -1.
         24    2    1    2    0    0 -0.66125456920E+03  0.11275043135E+03 -0.59310572760E+03  0.89885371217E+03  0.78697691860E+02 0.  0.
        254    2    1    2    0    0  0.66125456920E+03 -0.11275043135E+03 -0.16647273883E+04  0.20096630212E+04  0.90413379347E+03 0.  0.
         23    2    4    4    0    0 -0.72817699048E+02 -0.32583253744E+03 -0.39627362189E+03  0.52586897621E+03  0.89644503361E+02 0.  0.
         23    2    4    4    0    0  0.73407226825E+03  0.21308210609E+03 -0.12684537664E+04  0.14837940450E+04  0.91671869133E+02 0.  0.
          4    1    3    3  502    0 -0.59176329767E+03  0.77783653294E+02 -0.51063620314E+03  0.78548292734E+03  0.00000000000E+00 0. -1.
         -3    1    3    3    0  502 -0.69491271527E+02  0.34966778057E+02 -0.82469524466E+02  0.11337078482E+03  0.00000000000E+00 0.  1.
         11    1    5    5    0    0 -0.75541910912E+02 -0.32466842506E+03 -0.40026915691E+03  0.52089496495E+03  0.00000000000E+00 0.  1.
        -11    1    5    5    0    0  0.27242118634E+01 -0.11641123743E+01  0.39955350188E+01  0.49740112569E+01  0.00000000000E+00 0. -1.
          4    1    6    6  503    0  0.68126343118E+03  0.22080392705E+03 -0.11910266860E+04  0.13897549437E+04  0.00000000000E+00 0.  1.
         -4    1    6    6    0  503  0.52808837072E+02 -0.77218209588E+01 -0.77427080398E+02  0.94039101287E+02  0.00000000000E+00 0. -1.
<mgrwt>
<rscale>  0 0.18334828E+04</rscale>
<asrwt>0</asrwt>
<pdfrwt beam="1">  1        2 0.39741152E+00 0.18334828E+04</pdfrwt>
<pdfrwt beam="2">  1       -1 0.50052587E-01 0.18334828E+04</pdfrwt>
<totfact> 0.13386961E+01</totfact>
</mgrwt>
</event>
<event>
12    6  0.1542110E-007  0.3040198E+04  0.7818608E-02  0.8232344E-01
          2   -1    0    0  501    0  0.00000000000E+00  0.00000000000E+00  0.12612530961E+04  0.12612530961E+04  0.00000000000E+00 0. -1.
         -1   -1    0    0    0  501 -0.00000000000E+00 -0.00000000000E+00 -0.18320672254E+04  0.18320672254E+04  0.00000000000E+00 0.  1.
         24    2    1    2    0    0  0.89198264728E+03 -0.96329114730E+03 -0.71221794167E+03  0.14956635279E+04  0.78689990940E+02 0.  0.
        254    2    1    2    0    0 -0.89198264728E+03  0.96329114730E+03  0.14140381241E+03  0.15976567937E+04  0.89941609652E+03 0.  0.
         23    2    4    4    0    0  0.42868127970E+02  0.29477571690E+02 -0.20341483329E+03  0.22891042944E+03  0.91190935281E+02 0.  0.
         23    2    4    4    0    0 -0.93485077525E+03  0.93381357561E+03  0.34481864570E+03  0.13687463642E+04  0.92805954473E+02 0.  0.
          4    1    3    3  502    0  0.14638858199E+03 -0.13410609732E+03 -0.13440272988E+03  0.23974602411E+03  0.00000000000E+00 0. -1.
         -3    1    3    3    0  502  0.74559406528E+03 -0.82918504998E+03 -0.57781521179E+03  0.12559175038E+04  0.00000000000E+00 0.  1.
         11    1    5    5    0    0  0.16784441191E+02  0.57561141405E+02 -0.16069687738E+03  0.17151818815E+03  0.00000000000E+00 0.  1.
        -11    1    5    5    0    0  0.26083686779E+02 -0.28083569715E+02 -0.42717955913E+02  0.57392241298E+02  0.00000000000E+00 0. -1.
          2    1    6    6  503    0 -0.35976070236E+03  0.42177243348E+03  0.15683947357E+03  0.57612357101E+03  0.00000000000E+00 0. -1.
         -2    1    6    6    0  503 -0.57509007289E+03  0.51204114213E+03  0.18797917213E+03  0.79262279321E+03  0.00000000000E+00 0.  1.
<mgrwt>
<rscale>  0 0.30401977E+04</rscale>
<asrwt>0</asrwt>
<pdfrwt beam="1">  1        2 0.19403894E+00 0.30401977E+04</pdfrwt>
<pdfrwt beam="2">  1       -1 0.28185649E+00 0.30401977E+04</pdfrwt>
<totfact> 0.73287063E-01</totfact>
</mgrwt>
</event>
<event>
12    6  0.1542110E-007  0.1458180E+04  0.7818608E-02  0.8912749E-01
         -1   -1    0    0    0  501 -0.00000000000E+00  0.00000000000E+00  0.29317420974E+03  0.29317420974E+03  0.00000000000E+00 0.  1.
          2   -1    0    0  501    0  0.00000000000E+00 -0.00000000000E+00 -0.18131610946E+04  0.18131610946E+04  0.00000000000E+00 0. -1.
         24    2    1    2    0    0 -0.34814443660E+03 -0.10856958189E+03 -0.86418855990E+03  0.94224165811E+03  0.89473864132E+02 0.  0.
        254    2    1    2    0    0  0.34814443660E+03  0.10856958189E+03 -0.65579832497E+03  0.11640936462E+04  0.88997228684E+03 0.  0.
         23    2    4    4    0    0  0.33064809908E+03  0.30662508181E+03  0.12527499510E+02  0.46034669153E+03  0.91733483212E+02 0.  0.
         23    2    4    4    0    0  0.17496337523E+02 -0.19805549992E+03 -0.66832582448E+03  0.70374695471E+03  0.95227442095E+02 0.  0.
          2    1    3    3  502    0 -0.31983604058E+03 -0.88502177128E+02 -0.82837603498E+03  0.89237580847E+03  0.00000000000E+00 0. -1.
         -3    1    3    3    0  502 -0.28308396023E+02 -0.20067404759E+02 -0.35812524923E+02  0.49865849642E+02  0.00000000000E+00 0.  1.
         11    1    5    5    0    0  0.23452182756E+03  0.20049183880E+03 -0.32480799627E+02  0.31024581766E+03  0.00000000000E+00 0. -1.
        -11    1    5    5    0    0  0.96126271512E+02  0.10613324300E+03  0.45008299137E+02  0.15010087387E+03  0.00000000000E+00 0.  1.
          1    1    6    6  503    0 -0.21451090832E+02 -0.73743641342E+02 -0.14090058303E+03  0.16047195466E+03  0.00000000000E+00 0. -1.
         -1    1    6    6    0  503  0.38947428354E+02 -0.12431185858E+03 -0.52742524145E+03  0.54327500005E+03  0.00000000000E+00 0.  1.
<mgrwt>
<rscale>  0 0.14581798E+04</rscale>
<asrwt>0</asrwt>
<pdfrwt beam="1">  1        2 0.27894786E+00 0.14581798E+04</pdfrwt>
<pdfrwt beam="2">  1       -1 0.45103725E-01 0.14581798E+04</pdfrwt>
<totfact> 0.45685462E+01</totfact>
</mgrwt>
</event>
<event>
12    6  0.1542110E-007  0.1709048E+04  0.7818608E-02  0.8756221E-01
         -1   -1    0    0    0  501 -0.00000000000E+00  0.00000000000E+00  0.39646263490E+03  0.39646263490E+03  0.00000000000E+00 0.  1.
          2   -1    0    0  501    0  0.00000000000E+00 -0.00000000000E+00 -0.18418160653E+04  0.18418160653E+04  0.00000000000E+00 0. -1.
         24    2    1    2    0    0  0.47826753330E+03  0.18640478412E+03 -0.97337777842E+03  0.11032922096E+04  0.79390321729E+02 0.  0.
        254    2    1    2    0    0 -0.47826753330E+03 -0.18640478412E+03 -0.47197565197E+03  0.11349864906E+04  0.89551479103E+03 0.  0.
         23    2    4    4    0    0 -0.70224062542E+03 -0.23089303738E+03 -0.20543453296E+03  0.77244160451E+03  0.89494102252E+02 0.  0.
         23    2    4    4    0    0  0.22397309212E+03  0.44488253262E+02 -0.26654111901E+03  0.36254488614E+03  0.90837633536E+02 0.  0.
          4    1    3    3  502    0  0.41575048665E+03  0.13311292716E+03 -0.79701208123E+03  0.90873306100E+03  0.00000000000E+00 0. -1.
         -1    1    3    3    0  502  0.62517046653E+02  0.53291856963E+02 -0.17636569719E+03  0.19455914856E+03  0.00000000000E+00 0.  1.
         11    1    5    5    0    0 -0.39505316086E+02  0.71304394849E+01 -0.16080818698E+02  0.43244721022E+02  0.00000000000E+00 0. -1.
        -11    1    5    5    0    0 -0.66273530934E+03 -0.23802347687E+03 -0.18935371426E+03  0.72919688349E+03  0.00000000000E+00 0.  1.
          1    1    6    6  503    0  0.90451914827E+02 -0.46397762639E+01 -0.50023574312E+02  0.10346706919E+03  0.00000000000E+00 0. -1.
         -1    1    6    6    0  503  0.13352117730E+03  0.49128029526E+02 -0.21651754470E+03  0.25907781695E+03  0.00000000000E+00 0.  1.
<mgrwt>
<rscale>  0 0.17090480E+04</rscale>
<asrwt>0</asrwt>
<pdfrwt beam="1">  1        2 0.28335632E+00 0.17090480E+04</pdfrwt>
<pdfrwt beam="2">  1       -1 0.60994251E-01 0.17090480E+04</pdfrwt>
<totfact> 0.24150423E+01</totfact>
</mgrwt>
</event>
<event>
12    6  0.1542110E-007  0.1756474E+04  0.7818608E-02  0.8729795E-01
          2   -1    0    0  501    0  0.00000000000E+00  0.00000000000E+00  0.11839664070E+04  0.11839664070E+04  0.00000000000E+00 0. -1.
         -1   -1    0    0    0  501 -0.00000000000E+00 -0.00000000000E+00 -0.65145433318E+03  0.65145433318E+03  0.00000000000E+00 0.  1.
         24    2    1    2    0    0  0.55702889293E+03  0.21714890263E+03  0.43703077965E+03  0.74494261961E+03  0.80676952552E+02 0.  0.
        254    2    1    2    0    0 -0.55702889293E+03 -0.21714890263E+03  0.95481294202E+02  0.10904781206E+04  0.90696803719E+03 0.  0.
         23    2    4    4    0    0 -0.74150532211E+03  0.24430079308E+02 -0.30412527717E+02  0.74830357209E+03  0.92770375958E+02 0.  0.
         23    2    4    4    0    0  0.18447642918E+03 -0.24157898194E+03  0.12589382192E+03  0.34217454851E+03  0.94033025133E+02 0.  0.
          2    1    3    3  502    0  0.54860682287E+03  0.20596674335E+03  0.43690503157E+03  0.73094305666E+03  0.00000000000E+00 0. -1.
         -1    1    3    3    0  502  0.84220700662E+01  0.11182159277E+02  0.12574808091E+00  0.13999562953E+02  0.00000000000E+00 0.  1.
         11    1    5    5    0    0 -0.27146144853E+03  0.50293155294E+02 -0.28466346331E+02  0.27754468538E+03  0.00000000000E+00 0. -1.
        -11    1    5    5    0    0 -0.47004387358E+03 -0.25863075986E+02 -0.19461813861E+01  0.47075888671E+03  0.00000000000E+00 0.  1.
          2    1    6    6  503    0  0.10055086650E+03 -0.18752573482E+03  0.11468541438E+03  0.24172116632E+03  0.00000000000E+00 0. -1.
         -2    1    6    6    0  503  0.83925562677E+02 -0.54053247116E+02  0.11208407535E+02  0.10045338219E+03  0.00000000000E+00 0.  1.
<mgrwt>
<rscale>  0 0.17564738E+04</rscale>
<asrwt>0</asrwt>
<pdfrwt beam="1">  1        2 0.18214868E+00 0.17564738E+04</pdfrwt>
<pdfrwt beam="2">  1       -1 0.10022374E+00 0.17564738E+04</pdfrwt>
<totfact> 0.19839087E+01</totfact>
</mgrwt>
</event>
<event>
12    6  0.1542110E-007  0.1445721E+04  0.7818608E-02  0.8921372E-01
          2   -1    0    0  501    0  0.00000000000E+00  0.00000000000E+00  0.56082786692E+03  0.56082786692E+03  0.00000000000E+00 0. -1.
         -1   -1    0    0    0  501 -0.00000000000E+00 -0.00000000000E+00 -0.93170742222E+03  0.93170742222E+03  0.00000000000E+00 0.  1.
         24    2    1    2    0    0 -0.41833125581E+03  0.11766046012E+03 -0.70027692704E+02  0.44696197650E+03  0.77628005399E+02 0.  0.
        254    2    1    2    0    0  0.41833125581E+03 -0.11766046012E+03 -0.30085186260E+03  0.10455733126E+04  0.90214560101E+03 0.  0.
         23    2    4    4    0    0  0.39808128764E+03  0.27497844646E+03  0.72007225636E+02  0.49721577188E+03  0.89199919722E+02 0.  0.
         23    2    4    4    0    0  0.20249968172E+02 -0.39263890658E+03 -0.37285908823E+03  0.54835754077E+03  0.84242036230E+02 0.  0.
          4    1    3    3  502    0 -0.36050403997E+03  0.10881781846E+03 -0.33639902822E+02  0.37806894015E+03  0.00000000000E+00 0. -1.
         -3    1    3    3    0  502 -0.57827215845E+02  0.88426416596E+01 -0.36387789882E+02  0.68893036342E+02  0.00000000000E+00 0.  1.
         11    1    5    5    0    0  0.27439053508E+03  0.21015932542E+03  0.13731651626E+02  0.34589834643E+03  0.00000000000E+00 0. -1.
        -11    1    5    5    0    0  0.12369075256E+03  0.64819121038E+02  0.58275574009E+02  0.15131742546E+03  0.00000000000E+00 0.  1.
          3    1    6    6  503    0  0.21472489006E+02 -0.39656459484E+03 -0.37199695751E+03  0.54415648674E+03  0.00000000000E+00 0. -1.
         -3    1    6    6    0  503 -0.12225208344E+01  0.39256882656E+01 -0.86213072810E+00  0.42010540275E+01  0.00000000000E+00 0.  1.
<mgrwt>
<rscale>  0 0.14457213E+04</rscale>
<asrwt>0</asrwt>
<pdfrwt beam="1">  1        2 0.86281211E-01 0.14457213E+04</pdfrwt>
<pdfrwt beam="2">  1       -1 0.14333960E+00 0.14457213E+04</pdfrwt>
<totfact> 0.23497542E+01</totfact>
</mgrwt>
</event>
<event>
12    6  0.1542110E-007  0.1267084E+04  0.7818608E-02  0.9056083E-01
         -3   -1    0    0    0  501 -0.00000000000E+00  0.00000000000E+00  0.26029584609E+03  0.26029584609E+03  0.00000000000E+00 0.  1.
          2   -1    0    0  501    0  0.00000000000E+00 -0.00000000000E+00 -0.15419983261E+04  0.15419983261E+04  0.00000000000E+00 0. -1.
         24    2    1    2    0    0  0.69409927081E+02 -0.31711429655E+02  0.95708868482E+02  0.15699738696E+03  0.98308897143E+02 0.  0.
        254    2    1    2    0    0 -0.69409927081E+02  0.31711429655E+02 -0.13774113485E+04  0.16452967853E+04  0.89661370491E+03 0.  0.
         23    2    4    4    0    0 -0.26170655127E+03  0.10531010365E+03 -0.49357828613E+02  0.29824244271E+03  0.83257567085E+02 0.  0.
         23    2    4    4    0    0  0.19229662419E+03 -0.73598673998E+02 -0.13280535199E+04  0.13470543426E+04  0.91839498982E+02 0.  0.
          4    1    3    3  502    0  0.72144169740E+02 -0.42301763418E+02  0.27677457155E+02  0.88092349556E+02  0.00000000000E+00 0. -1.
         -3    1    3    3    0  502 -0.27342426597E+01  0.10590333764E+02  0.68031411327E+02  0.68905037401E+02  0.00000000000E+00 0.  1.
         11    1    5    5    0    0 -0.22856111820E+03  0.11688758044E+03 -0.55378399982E+02  0.26262075013E+03  0.00000000000E+00 0. -1.
        -11    1    5    5    0    0 -0.33145433076E+02 -0.11577476791E+02  0.60205713692E+01  0.35621692580E+02  0.00000000000E+00 0.  1.
          3    1    6    6  503    0  0.85992902950E+02 -0.81956730560E+02 -0.71063183470E+03  0.72049239380E+03  0.00000000000E+00 0. -1.
         -3    1    6    6    0  503  0.10630372124E+03  0.83580565618E+01 -0.61742168523E+03  0.62656194877E+03  0.00000000000E+00 0.  1.
<mgrwt>
<rscale>  0 0.12670845E+04</rscale>
<asrwt>0</asrwt>
<pdfrwt beam="1">  1        2 0.23723051E+00 0.12670845E+04</pdfrwt>
<pdfrwt beam="2">  1       -3 0.40045516E-01 0.12670845E+04</pdfrwt>
<totfact> 0.47017127E+01</totfact>
</mgrwt>
</event>
<event>
12    6  0.1542110E-007  0.1842531E+04  0.7818608E-02  0.8684003E-01
         -1   -1    0    0    0  501 -0.00000000000E+00  0.00000000000E+00  0.32815967354E+03  0.32815967354E+03  0.00000000000E+00 0.  1.
          2   -1    0    0  501    0  0.00000000000E+00 -0.00000000000E+00 -0.25863329856E+04  0.25863329856E+04  0.00000000000E+00 0. -1.
         24    2    1    2    0    0 -0.35481378876E+03 -0.38569366721E+03 -0.13235477423E+03  0.54716067233E+03  0.84938715948E+02 0.  0.
        254    2    1    2    0    0  0.35481378876E+03  0.38569366721E+03 -0.21258185378E+04  0.23673319868E+04  0.90027987336E+03 0.  0.
         23    2    4    4    0    0  0.25426933666E+03 -0.48684709532E+02 -0.10147085137E+03  0.29258003704E+03  0.91014547696E+02 0.  0.
         23    2    4    4    0    0  0.10054445210E+03  0.43437837674E+03 -0.20243476865E+04  0.20747519498E+04  0.88421356787E+02 0.  0.
          2    1    3    3  502    0  0.40194048152E+01 -0.22886653392E+01  0.21181030057E+01  0.50872354424E+01  0.00000000000E+00 0. -1.
         -1    1    3    3    0  502 -0.35883319357E+03 -0.38340500187E+03 -0.13447287723E+03  0.54207343689E+03  0.00000000000E+00 0.  1.
         11    1    5    5    0    0  0.18018282947E+03  0.82039581441E+01 -0.57283776913E+02  0.18924742551E+03  0.00000000000E+00 0. -1.
        -11    1    5    5    0    0  0.74086507189E+02 -0.56888667676E+02 -0.44187074455E+02  0.10333261153E+03  0.00000000000E+00 0.  1.
          4    1    6    6  503    0  0.10738435896E+03  0.32115110164E+03 -0.16049641837E+04  0.16402985891E+04  0.00000000000E+00 0.  1.
         -4    1    6    6    0  503 -0.68399068648E+01  0.11322727510E+03 -0.41938350280E+03  0.43445336064E+03  0.00000000000E+00 0. -1.
<mgrwt>
<rscale>  0 0.18425311E+04</rscale>
<asrwt>0</asrwt>
<pdfrwt beam="1">  1        2 0.39789739E+00 0.18425311E+04</pdfrwt>
<pdfrwt beam="2">  1       -1 0.50486103E-01 0.18425311E+04</pdfrwt>
<totfact> 0.13102309E+01</totfact>
</mgrwt>
</event>
<event>
12    6  0.1542110E-007  0.1179733E+04  0.7818608E-02  0.9130784E-01
          2   -1    0    0  501    0  0.00000000000E+00  0.00000000000E+00  0.67617144473E+03  0.67617144473E+03  0.00000000000E+00 0. -1.
         -1   -1    0    0    0  501 -0.00000000000E+00 -0.00000000000E+00 -0.51457701903E+03  0.51457701903E+03  0.00000000000E+00 0.  1.
         24    2    1    2    0    0 -0.13643291779E+03  0.36716313853E+02  0.22966055374E+03  0.28130895113E+03  0.80179344480E+02 0.  0.
        254    2    1    2    0    0  0.13643291779E+03 -0.36716313853E+02 -0.68066128046E+02  0.90943951263E+03  0.89581538309E+03 0.  0.
         23    2    4    4    0    0  0.26882874337E+03  0.12239591877E+03  0.32923683941E+03  0.45206112934E+03  0.93341920103E+02 0.  0.
         23    2    4    4    0    0 -0.13239582558E+03 -0.15911223262E+03 -0.39730296745E+03  0.45737838329E+03  0.92195338018E+02 0.  0.
          4    1    3    3  502    0 -0.12067009818E+03  0.51040434730E+02  0.22360940715E+03  0.25916706106E+03  0.00000000000E+00 0. -1.
         -3    1    3    3    0  502 -0.15762819610E+02 -0.14324120877E+02  0.60511465962E+01  0.22141890074E+02  0.00000000000E+00 0.  1.
         11    1    5    5    0    0  0.12850203944E+03  0.76752053333E+02  0.10204834097E+03  0.18115605352E+03  0.00000000000E+00 0. -1.
        -11    1    5    5    0    0  0.14032670393E+03  0.45643865433E+02  0.22718849843E+03  0.27090507583E+03  0.00000000000E+00 0.  1.
          3    1    6    6  503    0 -0.88697118730E+02 -0.37255626285E+02 -0.14907800153E+03  0.17742438136E+03  0.00000000000E+00 0. -1.
         -3    1    6    6    0  503 -0.43698706845E+02 -0.12185660633E+03 -0.24822496592E+03  0.27995400193E+03  0.00000000000E+00 0.  1.
<mgrwt>
<rscale>  0 0.11797327E+04</rscale>
<asrwt>0</asrwt>
<pdfrwt beam="1">  1        2 0.10402638E+00 0.11797327E+04</pdfrwt>
<pdfrwt beam="2">  1       -1 0.79165695E-01 0.11797327E+04</pdfrwt>
<totfact> 0.77097195E+01</totfact>
</mgrwt>
</event>
<event>
12    6  0.1542110E-007  0.1625276E+04  0.7818608E-02  0.8805168E-01
         -1   -1    0    0    0  501 -0.00000000000E+00  0.00000000000E+00  0.25141752124E+03  0.25141752124E+03  0.00000000000E+00 0.  1.
          2   -1    0    0  501    0  0.00000000000E+00 -0.00000000000E+00 -0.26266302204E+04  0.26266302204E+04  0.00000000000E+00 0. -1.
         24    2    1    2    0    0 -0.30603018984E+03  0.46178982197E+03 -0.86761885810E+03  0.10323933904E+04  0.78544972848E+02 0.  0.
        254    2    1    2    0    0  0.30603018984E+03 -0.46178982197E+03 -0.15075938411E+04  0.18456543513E+04  0.90922850707E+03 0.  0.
         23    2    4    4    0    0  0.59667305423E+03 -0.14655372030E+03 -0.79534345866E+03  0.10091153172E+04  0.90806275000E+02 0.  0.
         23    2    4    4    0    0 -0.29064286439E+03 -0.31523610167E+03 -0.71225038245E+03  0.83653903414E+03  0.93004698408E+02 0.  0.
          2    1    3    3  502    0  0.25787941515E+01  0.83987939362E+01 -0.47927059295E+01  0.10007994254E+02  0.00000000000E+00 0. -1.
         -1    1    3    3    0  502 -0.30860898399E+03  0.45339102803E+03 -0.86282615217E+03  0.10223853961E+04  0.00000000000E+00 0.  1.
         11    1    5    5    0    0  0.19485552445E+03 -0.34739291879E+02 -0.19288279922E+03  0.27636799388E+03  0.00000000000E+00 0. -1.
        -11    1    5    5    0    0  0.40181752978E+03 -0.11181442842E+03 -0.60246065944E+03  0.73274732331E+03  0.00000000000E+00 0.  1.
          2    1    6    6  503    0 -0.18565735000E+03 -0.16774196501E+03 -0.48730497722E+03  0.54778842563E+03  0.00000000000E+00 0.  1.
         -2    1    6    6    0  503 -0.10498551438E+03 -0.14749413666E+03 -0.22494540524E+03  0.28875060851E+03  0.00000000000E+00 0. -1.
<mgrwt>
<rscale>  0 0.16252764E+04</rscale>
<asrwt>0</asrwt>
<pdfrwt beam="1">  1        2 0.40409695E+00 0.16252764E+04</pdfrwt>
<pdfrwt beam="2">  1       -1 0.38679619E-01 0.16252764E+04</pdfrwt>
<totfact> 0.20775701E+01</totfact>
</mgrwt>
</event>
<event>
12    6  0.1542110E-007  0.1878261E+04  0.7818608E-02  0.8665753E-01
         -1   -1    0    0    0  501 -0.00000000000E+00  0.00000000000E+00  0.35254357334E+03  0.35254357334E+03  0.00000000000E+00 0.  1.
          2   -1    0    0  501    0  0.00000000000E+00 -0.00000000000E+00 -0.25017226349E+04  0.25017226349E+04  0.00000000000E+00 0. -1.
         24    2    1    2    0    0  0.55832924642E+03  0.25847902711E+03 -0.14086864993E+04  0.15392490617E+04  0.79668474961E+02 0.  0.
        254    2    1    2    0    0 -0.55832924642E+03 -0.25847902711E+03 -0.74049256229E+03  0.13150171465E+04  0.89576665824E+03 0.  0.
         23    2    4    4    0    0 -0.56526297160E+03 -0.39017053177E+03 -0.15752003407E+03  0.71046791757E+03  0.90536345406E+02 0.  0.
         23    2    4    4    0    0  0.69337251825E+01  0.13169150466E+03 -0.58297252821E+03  0.60454922896E+03  0.90730770086E+02 0.  0.
          2    1    3    3  502    0  0.41874096311E+03  0.21031694233E+03 -0.11422380998E+04  0.12346194098E+04  0.00000000000E+00 0. -1.
         -1    1    3    3    0  502  0.13958828331E+03  0.48162084780E+02 -0.26644839951E+03  0.30462965195E+03  0.00000000000E+00 0.  1.
         11    1    5    5    0    0 -0.35623762020E+03 -0.29559594944E+03 -0.11739539720E+03  0.47756034870E+03  0.00000000000E+00 0. -1.
        -11    1    5    5    0    0 -0.20902535140E+03 -0.94574582331E+02 -0.40124636874E+02  0.23290756887E+03  0.00000000000E+00 0.  1.
          1    1    6    6  503    0 -0.17710056060E+02  0.11956263966E+02 -0.23022988857E+02  0.31411086412E+02  0.00000000000E+00 0. -1.
         -1    1    6    6    0  503  0.24643781243E+02  0.11973524069E+03 -0.55994953935E+03  0.57313814255E+03  0.00000000000E+00 0.  1.
<mgrwt>
<rscale>  0 0.18782612E+04</rscale>
<asrwt>0</asrwt>
<pdfrwt beam="1">  1        2 0.38488040E+00 0.18782612E+04</pdfrwt>
<pdfrwt beam="2">  1       -1 0.54237474E-01 0.18782612E+04</pdfrwt>
<totfact> 0.12746461E+01</totfact>
</mgrwt>
</event>
<event>
12    6  0.1542110E-007  0.2446137E+04  0.7818608E-02  0.8422430E-01
          2   -1    0    0  501    0  0.00000000000E+00  0.00000000000E+00  0.10825688821E+04  0.10825688821E+04  0.00000000000E+00 0. -1.
         -1   -1    0    0    0  501 -0.00000000000E+00 -0.00000000000E+00 -0.13818021621E+04  0.13818021621E+04  0.00000000000E+00 0.  1.
         24    2    1    2    0    0 -0.94950616060E+03 -0.37149248531E+03 -0.38787582909E+03  0.10937893499E+04  0.79742507641E+02 0.  0.
        254    2    1    2    0    0  0.94950616060E+03  0.37149248531E+03  0.88642549071E+02  0.13705816943E+04  0.91162934544E+03 0.  0.
         23    2    4    4    0    0 -0.91845758179E+02 -0.14083421532E+03  0.77703817712E+02  0.20683779631E+03  0.92054718468E+02 0.  0.
         23    2    4    4    0    0  0.10413519188E+04  0.51232670064E+03  0.10938731358E+02  0.11637438980E+04  0.85368244978E+02 0.  0.
          4    1    3    3  502    0 -0.89460077230E+02 -0.52049147524E+02 -0.59219641263E+02  0.11924422454E+03  0.00000000000E+00 0. -1.
         -3    1    3    3    0  502 -0.86004608337E+03 -0.31944333779E+03 -0.32865618782E+03  0.97454512536E+03  0.00000000000E+00 0.  1.
         11    1    5    5    0    0 -0.15448755492E+02 -0.48988636913E+02 -0.17299632247E+02  0.54201733078E+02  0.00000000000E+00 0.  1.
        -11    1    5    5    0    0 -0.76397002687E+02 -0.91845578411E+02  0.95003449960E+02  0.15263606323E+03  0.00000000000E+00 0. -1.
          3    1    6    6  503    0  0.55176328902E+03  0.24713623050E+03 -0.30949589322E+02  0.60537337290E+03  0.00000000000E+00 0. -1.
         -3    1    6    6    0  503  0.48958862976E+03  0.26519047013E+03  0.41888320680E+02  0.55837052505E+03  0.00000000000E+00 0.  1.
<mgrwt>
<rscale>  0 0.24461366E+04</rscale>
<asrwt>0</asrwt>
<pdfrwt beam="1">  1        2 0.16654906E+00 0.24461366E+04</pdfrwt>
<pdfrwt beam="2">  1       -1 0.21258495E+00 0.24461366E+04</pdfrwt>
<totfact> 0.28162444E+00</totfact>
</mgrwt>
</event>
<event>
12    6  0.1542110E-007  0.2010197E+04  0.7818608E-02  0.8601868E-01
         -1   -1    0    0    0  501 -0.00000000000E+00  0.00000000000E+00  0.44179425604E+03  0.44179425604E+03  0.00000000000E+00 0.  1.
          2   -1    0    0  501    0  0.00000000000E+00 -0.00000000000E+00 -0.22866359284E+04  0.22866359284E+04  0.00000000000E+00 0. -1.
         24    2    1    2    0    0  0.45565793663E+02  0.43843995066E+02 -0.18190442480E+04  0.18219369796E+04  0.80832196081E+02 0.  0.
        254    2    1    2    0    0 -0.45565793663E+02 -0.43843995066E+02 -0.25797424397E+02  0.90649320491E+03  0.90391696852E+03 0.  0.
         23    2    4    4    0    0  0.11786840621E+03  0.39864290168E+03 -0.19233582186E+02  0.42604781916E+03  0.91310948330E+02 0.  0.
         23    2    4    4    0    0 -0.16343419987E+03 -0.44248689675E+03 -0.65638422105E+01  0.48044538575E+03  0.90990621417E+02 0.  0.
          2    1    3    3  502    0  0.27135631138E+02  0.12946964443E+02 -0.15719428380E+04  0.15722303433E+04  0.00000000000E+00 0. -1.
         -1    1    3    3    0  502  0.18430162525E+02  0.30897030624E+02 -0.24710140997E+03  0.24970663627E+03  0.00000000000E+00 0.  1.
         11    1    5    5    0    0  0.52823365542E+02  0.25468549175E+03  0.26863271848E+02  0.26148927900E+03  0.00000000000E+00 0.  1.
        -11    1    5    5    0    0  0.65045040663E+02  0.14395740993E+03 -0.46096854035E+02  0.16455854016E+03  0.00000000000E+00 0. -1.
          3    1    6    6  503    0 -0.11078518496E+03 -0.24676003074E+03  0.37360571609E+02  0.27305618889E+03  0.00000000000E+00 0. -1.
         -3    1    6    6    0  503 -0.52649014911E+02 -0.19572686600E+03 -0.43924413819E+02  0.20738919686E+03  0.00000000000E+00 0.  1.
<mgrwt>
<rscale>  0 0.20101966E+04</rscale>
<asrwt>0</asrwt>
<pdfrwt beam="1">  1        2 0.35179014E+00 0.20101966E+04</pdfrwt>
<pdfrwt beam="2">  1       -1 0.67968347E-01 0.20101966E+04</pdfrwt>
<totfact> 0.10686267E+01</totfact>
</mgrwt>
</event>
<event>
12    6  0.1542110E-007  0.1631213E+04  0.7818608E-02  0.8801599E-01
         -1   -1    0    0    0  501 -0.00000000000E+00  0.00000000000E+00  0.76128908457E+03  0.76128908457E+03  0.00000000000E+00 0.  1.
          2   -1    0    0  501    0  0.00000000000E+00 -0.00000000000E+00 -0.87379951350E+03  0.87379951350E+03  0.00000000000E+00 0. -1.
         24    2    1    2    0    0 -0.38078115026E+03  0.13718931307E+03 -0.40722565480E+03  0.57978827102E+03  0.80662960954E+02 0.  0.
        254    2    1    2    0    0  0.38078115026E+03 -0.13718931307E+03  0.29471522587E+03  0.10553003271E+04  0.92897067980E+03 0.  0.
         23    2    4    4    0    0  0.13128765825E+03 -0.50447662736E+03  0.28755526726E+03  0.60175393734E+03  0.87673557115E+02 0.  0.
         23    2    4    4    0    0  0.24949349200E+03  0.36728731430E+03  0.71599586181E+01  0.45354638971E+03  0.92228459931E+02 0.  0.
          4    1    3    3  502    0 -0.11624471839E+03  0.12352786258E+02 -0.15071334958E+03  0.19073526057E+03  0.00000000000E+00 0. -1.
         -3    1    3    3    0  502 -0.26453643186E+03  0.12483652681E+03 -0.25651230522E+03  0.38905301045E+03  0.00000000000E+00 0.  1.
         11    1    5    5    0    0  0.86379366080E+02 -0.44638578128E+03  0.25652404126E+03  0.52204046238E+03  0.00000000000E+00 0.  1.
        -11    1    5    5    0    0  0.44908292175E+02 -0.58090846080E+02  0.31031225998E+02  0.79713474967E+02  0.00000000000E+00 0. -1.
          1    1    6    6  503    0  0.12650863548E+03  0.23350598798E+03  0.40942721026E+02  0.26871134639E+03  0.00000000000E+00 0. -1.
         -1    1    6    6    0  503  0.12298485652E+03  0.13378132631E+03 -0.33782762407E+02  0.18483504332E+03  0.00000000000E+00 0.  1.
<mgrwt>
<rscale>  0 0.16312131E+04</rscale>
<asrwt>0</asrwt>
<pdfrwt beam="1">  1        2 0.13443069E+00 0.16312131E+04</pdfrwt>
<pdfrwt beam="2">  1       -1 0.11712140E+00 0.16312131E+04</pdfrwt>
<totfact> 0.21918024E+01</totfact>
</mgrwt>
</event>
<event>
12    6  0.1542110E-007  0.2392487E+04  0.7818608E-02  0.8442322E-01
          2   -1    0    0  501    0  0.00000000000E+00  0.00000000000E+00  0.12800080539E+04  0.12800080539E+04  0.00000000000E+00 0. -1.
         -1   -1    0    0    0  501 -0.00000000000E+00 -0.00000000000E+00 -0.11179607555E+04  0.11179607555E+04  0.00000000000E+00 0.  1.
         24    2    1    2    0    0 -0.86733688828E+03  0.45564298061E+02 -0.50394083954E+03  0.10072936565E+04  0.79591190437E+02 0.  0.
        254    2    1    2    0    0  0.86733688828E+03 -0.45564298061E+02  0.66598813791E+03  0.13906751529E+04  0.85795559216E+03 0.  0.
         23    2    4    4    0    0  0.56865107597E+03  0.38939391967E+01  0.84790049700E+03  0.10251634623E+04  0.92982055083E+02 0.  0.
         23    2    4    4    0    0  0.29868581231E+03 -0.49458237257E+02 -0.18191235909E+03  0.36551169067E+03  0.94060395050E+02 0.  0.
          4    1    3    3  502    0 -0.14120356845E+03 -0.74537505398E+01 -0.11234075771E+03  0.18059471748E+03  0.00000000000E+00 0. -1.
         -3    1    3    3    0  502 -0.72613331983E+03  0.53018048600E+02 -0.39160008184E+03  0.82669893900E+03  0.00000000000E+00 0.  1.
         11    1    5    5    0    0  0.10175969365E+03  0.11931790335E+02  0.98127839819E+02  0.14186781107E+03  0.00000000000E+00 0. -1.
        -11    1    5    5    0    0  0.46689138232E+03 -0.80378511379E+01  0.74977265718E+03  0.88329565118E+03  0.00000000000E+00 0.  1.
          2    1    6    6  503    0  0.92149065351E+02  0.46917023684E+01 -0.10197258931E+03  0.13752043952E+03  0.00000000000E+00 0. -1.
         -2    1    6    6    0  503  0.20653674696E+03 -0.54149939626E+02 -0.79939769785E+02  0.22799125115E+03  0.00000000000E+00 0.  1.
<mgrwt>
<rscale>  0 0.23924872E+04</rscale>
<asrwt>0</asrwt>
<pdfrwt beam="1">  1        2 0.19692431E+00 0.23924872E+04</pdfrwt>
<pdfrwt beam="2">  1       -1 0.17199396E+00 0.23924872E+04</pdfrwt>
<totfact> 0.41432035E+00</totfact>
</mgrwt>
</event>
<event>
12    6  0.1542110E-007  0.1679568E+04  0.7818608E-02  0.8773104E-01
         -1   -1    0    0    0  501 -0.00000000000E+00  0.00000000000E+00  0.39172790856E+03  0.39172790856E+03  0.00000000000E+00 0.  1.
          2   -1    0    0  501    0  0.00000000000E+00 -0.00000000000E+00 -0.18003238969E+04  0.18003238969E+04  0.00000000000E+00 0. -1.
         24    2    1    2    0    0  0.57609131356E+03  0.14558441837E+03 -0.35361634567E+03  0.69597616747E+03  0.79134577303E+02 0.  0.
        254    2    1    2    0    0 -0.57609131356E+03 -0.14558441837E+03 -0.10549796427E+04  0.14960756380E+04  0.87874014572E+03 0.  0.
         23    2    4    4    0    0  0.13737059914E+03  0.10048492965E+03  0.33142937788E+01  0.19311936849E+03  0.91193219838E+02 0.  0.
         23    2    4    4    0    0 -0.71346191271E+03 -0.24606934802E+03 -0.10582939364E+04  0.13029562695E+04  0.90171832628E+02 0.  0.
          4    1    3    3  502    0  0.34537026648E+02  0.17522954334E+02 -0.43730530342E+01  0.38974141827E+02  0.00000000000E+00 0. -1.
         -3    1    3    3    0  502  0.54155428691E+03  0.12806146403E+03 -0.34924329263E+03  0.65700202564E+03  0.00000000000E+00 0.  1.
         11    1    5    5    0    0  0.12481990316E+02 -0.17356876878E+02  0.72123098688E+00  0.21391153110E+02  0.00000000000E+00 0.  1.
        -11    1    5    5    0    0  0.12488860883E+03  0.11784180653E+03  0.25930627919E+01  0.17172821538E+03  0.00000000000E+00 0. -1.
          3    1    6    6  503    0 -0.55167547722E+03 -0.20015459108E+03 -0.88117025480E+03  0.10587108720E+04  0.00000000000E+00 0. -1.
         -3    1    6    6    0  503 -0.16178643548E+03 -0.45914756940E+02 -0.17712368163E+03  0.24424539751E+03  0.00000000000E+00 0.  1.
<mgrwt>
<rscale>  0 0.16795679E+04</rscale>
<asrwt>0</asrwt>
<pdfrwt beam="1">  1        2 0.27697291E+00 0.16795679E+04</pdfrwt>
<pdfrwt beam="2">  1       -1 0.60265831E-01 0.16795679E+04</pdfrwt>
<totfact> 0.26142392E+01</totfact>
</mgrwt>
</event>
<event>
12    6  0.1542110E-007  0.1628807E+04  0.7818608E-02  0.8803043E-01
          2   -1    0    0  501    0  0.00000000000E+00  0.00000000000E+00  0.14056492480E+04  0.14056492480E+04  0.00000000000E+00 0. -1.
         -1   -1    0    0    0  501 -0.00000000000E+00 -0.00000000000E+00 -0.47184844172E+03  0.47184844172E+03  0.00000000000E+00 0.  1.
         24    2    1    2    0    0  0.42310729208E+03 -0.68544427710E+02 -0.96231771942E+02  0.44663489133E+03  0.80647709459E+02 0.  0.
        254    2    1    2    0    0 -0.42310729208E+03  0.68544427710E+02  0.10300325783E+04  0.14308627984E+04  0.89592584316E+03 0.  0.
         23    2    4    4    0    0 -0.64454266838E+03 -0.65718084612E+02  0.46539514666E+03  0.80304960504E+03  0.92422441065E+02 0.  0.
         23    2    4    4    0    0  0.22143537630E+03  0.13426251232E+03  0.56463743159E+03  0.62781319337E+03  0.90961137456E+02 0.  0.
          2    1    3    3  502    0  0.12465500307E+03  0.71712768134E+01 -0.53252478915E+02  0.13574285806E+03  0.00000000000E+00 0. -1.
         -1    1    3    3    0  502  0.29845228901E+03 -0.75715704523E+02 -0.42979293027E+02  0.31089203327E+03  0.00000000000E+00 0.  1.
         11    1    5    5    0    0 -0.59684730380E+03 -0.45763521102E+02  0.40115034375E+03  0.72058490284E+03  0.00000000000E+00 0. -1.
        -11    1    5    5    0    0 -0.47695364587E+02 -0.19954563510E+02  0.64244802914E+02  0.82464702203E+02  0.00000000000E+00 0.  1.
          2    1    6    6  503    0  0.17775291210E+03  0.12461536828E+03  0.52474225663E+03  0.56787280589E+03  0.00000000000E+00 0. -1.
         -2    1    6    6    0  503  0.43682464201E+02  0.96471440387E+01  0.39895174957E+02  0.59940387483E+02  0.00000000000E+00 0.  1.
<mgrwt>
<rscale>  0 0.16288074E+04</rscale>
<asrwt>0</asrwt>
<pdfrwt beam="1">  1        2 0.21625373E+00 0.16288074E+04</pdfrwt>
<pdfrwt beam="2">  1       -1 0.72592069E-01 0.16288074E+04</pdfrwt>
<totfact> 0.29977136E+01</totfact>
</mgrwt>
</event>
<event>
12    6  0.1542110E-007  0.1692372E+04  0.7818608E-02  0.8765727E-01
         -1   -1    0    0    0  501 -0.00000000000E+00  0.00000000000E+00  0.32591103403E+03  0.32591103403E+03  0.00000000000E+00 0.  1.
          2   -1    0    0  501    0  0.00000000000E+00 -0.00000000000E+00 -0.21970120453E+04  0.21970120453E+04  0.00000000000E+00 0. -1.
         24    2    1    2    0    0  0.53914496452E+02 -0.41091334237E+02 -0.15333970611E+04  0.15370553858E+04  0.81470493448E+02 0.  0.
        254    2    1    2    0    0 -0.53914496452E+02  0.41091334237E+02 -0.33770395016E+03  0.98586769354E+03  0.92374015856E+03 0.  0.
         23    2    4    4    0    0 -0.84975675332E+02 -0.37342189959E+03 -0.39353903588E+03  0.55648314055E+03  0.90198295267E+02 0.  0.
         23    2    4    4    0    0  0.31061178880E+02  0.41451323383E+03  0.55835085717E+02  0.42938455298E+03  0.92019126773E+02 0.  0.
          2    1    3    3  502    0  0.84167463111E+01  0.21945029572E+02 -0.58714254117E+03  0.58761278883E+03  0.00000000000E+00 0. -1.
         -1    1    3    3    0  502  0.45497750141E+02 -0.63036363808E+02 -0.94625451992E+03  0.94944259695E+03  0.00000000000E+00 0.  1.
         11    1    5    5    0    0 -0.89740146163E+02 -0.36722529643E+03 -0.35992057774E+03  0.52196794389E+03  0.00000000000E+00 0.  1.
        -11    1    5    5    0    0  0.47644708315E+01 -0.61966031638E+01 -0.33618458140E+02  0.34515196664E+02  0.00000000000E+00 0. -1.
          3    1    6    6  503    0  0.24932007045E+02  0.60046369889E+02  0.35981828638E+02  0.74309242388E+02  0.00000000000E+00 0. -1.
         -3    1    6    6    0  503  0.61291718353E+01  0.35446686394E+03  0.19853257079E+02  0.35507531059E+03  0.00000000000E+00 0.  1.
<mgrwt>
<rscale>  0 0.16923717E+04</rscale>
<asrwt>0</asrwt>
<pdfrwt beam="1">  1        2 0.33800185E+00 0.16923717E+04</pdfrwt>
<pdfrwt beam="2">  1       -1 0.50140159E-01 0.16923717E+04</pdfrwt>
<totfact> 0.22453356E+01</totfact>
</mgrwt>
</event>
<event>
12    6  0.1542110E-007  0.1434445E+04  0.7818608E-02  0.8929256E-01
          2   -1    0    0  501    0  0.00000000000E+00  0.00000000000E+00  0.26754814117E+03  0.26754814117E+03  0.00000000000E+00 0. -1.
         -1   -1    0    0    0  501 -0.00000000000E+00 -0.00000000000E+00 -0.19226744633E+04  0.19226744633E+04  0.00000000000E+00 0.  1.
         24    2    1    2    0    0 -0.37640541065E+03  0.36886809831E+02 -0.21976342364E+03  0.44482449897E+03  0.80815856179E+02 0.  0.
        254    2    1    2    0    0  0.37640541065E+03 -0.36886809831E+02 -0.14353628985E+04  0.17453981055E+04  0.91820816072E+03 0.  0.
         23    2    4    4    0    0  0.71571753716E+02  0.74935152034E+02  0.10166889876E+03  0.17177283969E+03  0.91823474891E+02 0.  0.
         23    2    4    4    0    0  0.30483365693E+03 -0.11182196186E+03 -0.15370317972E+04  0.15736252658E+04  0.91662543590E+02 0.  0.
          4    1    3    3  502    0 -0.30147155016E+03  0.34873123537E+01 -0.19527690267E+03  0.35920791419E+03  0.00000000000E+00 0. -1.
         -3    1    3    3    0  502 -0.74933860493E+02  0.33399497477E+02 -0.24486520965E+02  0.85616584778E+02  0.00000000000E+00 0.  1.
         11    1    5    5    0    0  0.75584120025E+02  0.63740237545E+02  0.11647539562E+03  0.15278185385E+03  0.00000000000E+00 0.  1.
        -11    1    5    5    0    0 -0.40123663093E+01  0.11194914489E+02 -0.14806496862E+02  0.18990985839E+02  0.00000000000E+00 0. -1.
          4    1    6    6  503    0  0.11341011793E+02 -0.17412297487E+02 -0.38932328755E+02  0.44130860795E+02  0.00000000000E+00 0. -1.
         -4    1    6    6    0  503  0.29349264514E+03 -0.94409664378E+02 -0.14980994685E+04  0.15294944050E+04  0.00000000000E+00 0.  1.
<mgrwt>
<rscale>  0 0.14344448E+04</rscale>
<asrwt>0</asrwt>
<pdfrwt beam="1">  1        2 0.41161252E-01 0.14344448E+04</pdfrwt>
<pdfrwt beam="2">  1       -1 0.29579607E+00 0.14344448E+04</pdfrwt>
<totfact> 0.48938735E+00</totfact>
</mgrwt>
</event>
<event>
12    6  0.1542110E-007  0.1402986E+04  0.7818608E-02  0.8951660E-01
         -1   -1    0    0    0  501 -0.00000000000E+00  0.00000000000E+00  0.18931357341E+03  0.18931357341E+03  0.00000000000E+00 0.  1.
          2   -1    0    0  501    0  0.00000000000E+00 -0.00000000000E+00 -0.25993522659E+04  0.25993522659E+04  0.00000000000E+00 0. -1.
         24    2    1    2    0    0 -0.13583398351E+02  0.25804656432E+03 -0.12806605333E+04  0.13090325131E+04  0.81866847728E+02 0.  0.
        254    2    1    2    0    0  0.13583398351E+02 -0.25804656432E+03 -0.11293781592E+04  0.14796333262E+04  0.92035168033E+03 0.  0.
         23    2    4    4    0    0 -0.45970140815E+02 -0.59391540946E+03 -0.70758358390E+03  0.92948300027E+03  0.91735228455E+02 0.  0.
         23    2    4    4    0    0  0.59553539167E+02  0.33586884514E+03 -0.42179457529E+03  0.55015032594E+03  0.91652671668E+02 0.  0.
          4    1    3    3  502    0 -0.30072132685E+01  0.14344518736E+03 -0.89966531159E+03  0.91103415851E+03  0.00000000000E+00 0. -1.
         -3    1    3    3    0  502 -0.10576185083E+02  0.11460137696E+03 -0.38099522175E+03  0.39799835463E+03  0.00000000000E+00 0.  1.
         11    1    5    5    0    0 -0.56534017941E+02 -0.58191795129E+03 -0.69920732625E+03  0.91143594525E+03  0.00000000000E+00 0.  1.
        -11    1    5    5    0    0  0.10563877126E+02 -0.11997458167E+02 -0.83762576527E+01  0.18047055014E+02  0.00000000000E+00 0. -1.
          3    1    6    6  503    0 -0.22941193042E+02  0.56081423819E+02 -0.58274637455E+02  0.84067578806E+02  0.00000000000E+00 0. -1.
         -3    1    6    6    0  503  0.82494732209E+02  0.27978742132E+03 -0.36351993784E+03  0.46608274713E+03  0.00000000000E+00 0.  1.
<mgrwt>
<rscale>  0 0.14029863E+04</rscale>
<asrwt>0</asrwt>
<pdfrwt beam="1">  1        2 0.39990037E+00 0.14029863E+04</pdfrwt>
<pdfrwt beam="2">  1       -1 0.29125164E-01 0.14029863E+04</pdfrwt>
<totfact> 0.36445149E+01</totfact>
</mgrwt>
</event>
<event>
12    6  0.1542110E-007  0.2188535E+04  0.7818608E-02  0.8523215E-01
          2   -1    0    0  501    0  0.00000000000E+00  0.00000000000E+00  0.53101402421E+03  0.53101402421E+03  0.00000000000E+00 0. -1.
         -1   -1    0    0    0  501 -0.00000000000E+00 -0.00000000000E+00 -0.22549716301E+04  0.22549716301E+04  0.00000000000E+00 0.  1.
         24    2    1    2    0    0 -0.92214215660E+02  0.87689147161E+03 -0.93867144602E+03  0.12902537066E+04  0.78793587185E+02 0.  0.
        254    2    1    2    0    0  0.92214215660E+02 -0.87689147161E+03 -0.78528615987E+03  0.14957319477E+04  0.91820345885E+03 0.  0.
         23    2    4    4    0    0 -0.22676894678E+01  0.15847660772E+03  0.12710246254E+02  0.18211504256E+03  0.88793922976E+02 0.  0.
         23    2    4    4    0    0  0.94481905128E+02 -0.10353680793E+04 -0.79799640613E+03  0.13136169051E+04  0.88753699023E+02 0.  0.
          2    1    3    3  502    0 -0.12846102811E+01  0.29295088707E+03 -0.34458444168E+03  0.45228343979E+03  0.00000000000E+00 0. -1.
         -1    1    3    3    0  502 -0.90929605379E+02  0.58394058454E+03 -0.59408700433E+03  0.83797026685E+03  0.00000000000E+00 0.  1.
         11    1    5    5    0    0 -0.29455310382E+02  0.11091568264E+03 -0.22564365988E+02  0.11695749047E+03  0.00000000000E+00 0.  1.
        -11    1    5    5    0    0  0.27187620915E+02  0.47560925083E+02  0.35274612242E+02  0.65157552092E+02  0.00000000000E+00 0. -1.
          1    1    6    6  503    0 -0.77567316792E+01 -0.16160098674E+02 -0.62838837200E+01  0.18994811663E+02  0.00000000000E+00 0. -1.
         -1    1    6    6    0  503  0.10223863681E+03 -0.10192079807E+04 -0.79171252241E+03  0.12946220934E+04  0.00000000000E+00 0.  1.
<mgrwt>
<rscale>  0 0.21885352E+04</rscale>
<asrwt>0</asrwt>
<pdfrwt beam="1">  1        2 0.81694465E-01 0.21885352E+04</pdfrwt>
<pdfrwt beam="2">  1       -1 0.34691871E+00 0.21885352E+04</pdfrwt>
<totfact> 0.97723690E-01</totfact>
</mgrwt>
</event>
<event>
12    6  0.1542110E-007  0.4366470E+04  0.7818608E-02  0.7934440E-01
          2   -1    0    0  501    0  0.00000000000E+00  0.00000000000E+00  0.44964753015E+04  0.44964753015E+04  0.00000000000E+00 0. -1.
         -1   -1    0    0    0  501 -0.00000000000E+00 -0.00000000000E+00 -0.10600559521E+04  0.10600559521E+04  0.00000000000E+00 0.  1.
         24    2    1    2    0    0 -0.72951100247E+03  0.14394144092E+04 -0.44633692247E+02  0.16162793625E+04  0.79162282976E+02 0.  0.
        254    2    1    2    0    0  0.72951100247E+03 -0.14394144092E+04  0.34810530417E+04  0.39402518911E+04  0.89652358712E+03 0.  0.
         23    2    4    4    0    0  0.43688217453E+03 -0.14526628980E+04  0.30874940858E+04  0.34411899562E+04  0.89850181745E+02 0.  0.
         23    2    4    4    0    0  0.29262882794E+03  0.13248488855E+02  0.39355895592E+03  0.49906193492E+03  0.91471360030E+02 0.  0.
          4    1    3    3  502    0 -0.78282765813E+02  0.12128123065E+03 -0.20917680910E+02  0.14585910224E+03  0.00000000000E+00 0. -1.
         -3    1    3    3    0  502 -0.65122823666E+03  0.13181331785E+04 -0.23716011337E+02  0.14704202602E+04  0.00000000000E+00 0.  1.
         11    1    5    5    0    0  0.33319122567E+03 -0.98852955238E+03  0.21733643437E+04  0.24107508455E+04  0.00000000000E+00 0.  1.
        -11    1    5    5    0    0  0.10369094887E+03 -0.46413334564E+03  0.91412974207E+03  0.10304391106E+04  0.00000000000E+00 0. -1.
          1    1    6    6  503    0  0.18357203238E+02  0.88997381393E+01  0.79503039963E+02  0.82078776873E+02  0.00000000000E+00 0. -1.
         -1    1    6    6    0  503  0.27427162470E+03  0.43487507162E+01  0.31405591595E+03  0.41698315805E+03  0.00000000000E+00 0.  1.
<mgrwt>
<rscale>  0 0.43664702E+04</rscale>
<asrwt>0</asrwt>
<pdfrwt beam="1">  1        2 0.69176542E+00 0.43664702E+04</pdfrwt>
<pdfrwt beam="2">  1       -1 0.16308553E+00 0.43664702E+04</pdfrwt>
<totfact> 0.29595225E-02</totfact>
</mgrwt>
</event>
<event>
12    6  0.1542110E-007  0.1349538E+04  0.7818608E-02  0.8991178E-01
         -1   -1    0    0    0  501 -0.00000000000E+00  0.00000000000E+00  0.15043011510E+03  0.15043011510E+03  0.00000000000E+00 0.  1.
          2   -1    0    0  501    0  0.00000000000E+00 -0.00000000000E+00 -0.30267403809E+04  0.30267403809E+04  0.00000000000E+00 0. -1.
         24    2    1    2    0    0 -0.26995754216E+03 -0.24898383915E+03 -0.83796677683E+03  0.91835715221E+03  0.79507944286E+02 0.  0.
        254    2    1    2    0    0  0.26995754216E+03  0.24898383915E+03 -0.20383434889E+04  0.22588133438E+04  0.90140086331E+03 0.  0.
         23    2    4    4    0    0  0.16734699694E+03 -0.32804851973E+03 -0.75354267455E+03  0.84356149754E+03  0.90269535708E+02 0.  0.
         23    2    4    4    0    0  0.10261054521E+03  0.57703235888E+03 -0.12848008144E+04  0.14152518462E+04  0.93431196221E+02 0.  0.
          2    1    3    3  502    0 -0.27798006691E+02 -0.26514396203E+01 -0.94936297222E+02  0.98957869006E+02  0.00000000000E+00 0. -1.
         -3    1    3    3    0  502 -0.24215953547E+03 -0.24633239953E+03 -0.74303047961E+03  0.81939928320E+03  0.00000000000E+00 0.  1.
         11    1    5    5    0    0  0.15536844977E+03 -0.32596134501E+03 -0.68905572829E+03  0.77793826897E+03  0.00000000000E+00 0. -1.
        -11    1    5    5    0    0  0.11978547171E+02 -0.20871747157E+01 -0.64486946258E+02  0.65623228572E+02  0.00000000000E+00 0.  1.
          1    1    6    6  503    0  0.77326415225E+02  0.54042123527E+03 -0.11439262600E+04  0.12675179582E+04  0.00000000000E+00 0. -1.
         -1    1    6    6    0  503  0.25284129988E+02  0.36611123610E+02 -0.14087455439E+03  0.14773388805E+03  0.00000000000E+00 0.  1.
<mgrwt>
<rscale>  0 0.13495376E+04</rscale>
<asrwt>0</asrwt>
<pdfrwt beam="1">  1        2 0.46565229E+00 0.13495376E+04</pdfrwt>
<pdfrwt beam="2">  1       -1 0.23143098E-01 0.13495376E+04</pdfrwt>
<totfact> 0.30102463E+01</totfact>
</mgrwt>
</event>
<event>
12    6  0.1542110E-007  0.1551369E+04  0.7818608E-02  0.8850993E-01
          2   -1    0    0  501    0  0.00000000000E+00  0.00000000000E+00  0.21930278502E+04  0.21930278502E+04  0.00000000000E+00 0. -1.
         -1   -1    0    0    0  501 -0.00000000000E+00 -0.00000000000E+00 -0.27436350942E+03  0.27436350942E+03  0.00000000000E+00 0.  1.
         24    2    1    2    0    0 -0.22248337832E+03 -0.37446521393E+03  0.10870470762E+04  0.11738069318E+04  0.80176786901E+02 0.  0.
        254    2    1    2    0    0  0.22248337832E+03  0.37446521393E+03  0.83161726456E+03  0.12935844278E+04  0.88997210468E+03 0.  0.
         23    2    4    4    0    0 -0.16709262189E+03  0.49216259856E+03  0.65395090343E+03  0.84023234965E+03  0.90524303859E+02 0.  0.
         23    2    4    4    0    0  0.38957600021E+03 -0.11769738463E+03  0.17766636113E+03  0.45335207817E+03  0.91327085882E+02 0.  0.
          2    1    3    3  502    0 -0.11271368464E+03 -0.17886827193E+03  0.63316418648E+03  0.66752911581E+03  0.00000000000E+00 0. -1.
         -1    1    3    3    0  502 -0.10976969368E+03 -0.19559694200E+03  0.45388288969E+03  0.50627781595E+03  0.00000000000E+00 0.  1.
         11    1    5    5    0    0 -0.61757456209E+02  0.19967418699E+03  0.33490033307E+03  0.39476828323E+03  0.00000000000E+00 0. -1.
        -11    1    5    5    0    0 -0.10533516568E+03  0.29248841156E+03  0.31905057036E+03  0.44546406642E+03  0.00000000000E+00 0.  1.
          3    1    6    6  503    0 -0.45674435213E+01  0.22141987636E+01  0.15570124451E+01  0.53092847201E+01  0.00000000000E+00 0. -1.
         -3    1    6    6    0  503  0.39414344373E+03 -0.11991158339E+03  0.17610934868E+03  0.44804279345E+03  0.00000000000E+00 0.  1.
<mgrwt>
<rscale>  0 0.15513695E+04</rscale>
<asrwt>0</asrwt>
<pdfrwt beam="1">  1        2 0.33738889E+00 0.15513695E+04</pdfrwt>
<pdfrwt beam="2">  1       -1 0.42209772E-01 0.15513695E+04</pdfrwt>
<totfact> 0.31538881E+01</totfact>
</mgrwt>
</event>
<event>
12    6  0.1542110E-007  0.2442160E+04  0.7818608E-02  0.8423886E-01
          2   -1    0    0  501    0  0.00000000000E+00  0.00000000000E+00  0.26704213140E+04  0.26704213140E+04  0.00000000000E+00 0. -1.
         -1   -1    0    0    0  501 -0.00000000000E+00 -0.00000000000E+00 -0.55835268073E+03  0.55835268073E+03  0.00000000000E+00 0.  1.
         24    2    1    2    0    0 -0.56811567317E+03 -0.29919295448E+03  0.20403929393E+04  0.21405915870E+04  0.81591381086E+02 0.  0.
        254    2    1    2    0    0  0.56811567317E+03  0.29919295448E+03  0.71675694002E+02  0.10881824078E+04  0.87563217469E+03 0.  0.
         23    2    4    4    0    0 -0.12055131709E+03  0.22034168138E+03 -0.20458502142E+03  0.33659055424E+03  0.91406201158E+02 0.  0.
         23    2    4    4    0    0  0.68866699025E+03  0.78851273104E+02  0.27626071543E+03  0.75159185352E+03  0.89947677315E+02 0.  0.
          4    1    3    3  502    0 -0.53468812676E+03 -0.29027504820E+03  0.18620352171E+04  0.19589094278E+04  0.00000000000E+00 0. -1.
         -3    1    3    3    0  502 -0.33427546403E+02 -0.89179062846E+01  0.17835772219E+03  0.18168215921E+03  0.00000000000E+00 0.  1.
         11    1    5    5    0    0 -0.46191995970E+02  0.37881365303E+02 -0.11720871550E+02  0.60877558745E+02  0.00000000000E+00 0.  1.
        -11    1    5    5    0    0 -0.74359321117E+02  0.18246031608E+03 -0.19286414987E+03  0.27571299550E+03  0.00000000000E+00 0. -1.
          2    1    6    6  503    0  0.37014475781E+03  0.67022537161E+02  0.18978223675E+03  0.42132702216E+03  0.00000000000E+00 0. -1.
         -2    1    6    6    0  503  0.31852223245E+03  0.11828735943E+02  0.86478478679E+02  0.33026483136E+03  0.00000000000E+00 0.  1.
<mgrwt>
<rscale>  0 0.24421604E+04</rscale>
<asrwt>0</asrwt>
<pdfrwt beam="1">  1        2 0.41083404E+00 0.24421604E+04</pdfrwt>
<pdfrwt beam="2">  1       -1 0.85900414E-01 0.24421604E+04</pdfrwt>
<totfact> 0.37712650E+00</totfact>
</mgrwt>
</event>
<event>
12    6  0.1542110E-007  0.1796664E+04  0.7818608E-02  0.8708076E-01
          2   -1    0    0  501    0  0.00000000000E+00  0.00000000000E+00  0.82817494034E+03  0.82817494034E+03  0.00000000000E+00 0. -1.
         -1   -1    0    0    0  501 -0.00000000000E+00 -0.00000000000E+00 -0.97443224398E+03  0.97443224398E+03  0.00000000000E+00 0.  1.
         24    2    1    2    0    0 -0.55152322359E+03 -0.24059050675E+03 -0.34944927511E+03  0.70046411914E+03  0.80458239054E+02 0.  0.
        254    2    1    2    0    0  0.55152322359E+03  0.24059050675E+03  0.20319197146E+03  0.11021430652E+04  0.90076117854E+03 0.  0.
         23    2    4    4    0    0  0.49428054810E+03 -0.88366655524E+02 -0.21971904001E+03  0.55565171137E+03  0.91380751622E+02 0.  0.
         23    2    4    4    0    0  0.57242675496E+02  0.32895716227E+03  0.42291101147E+03  0.54649135381E+03  0.91156665484E+02 0.  0.
          4    1    3    3  502    0 -0.29209814435E+03 -0.90401546591E+02 -0.20137860339E+03  0.36612444259E+03  0.00000000000E+00 0. -1.
         -1    1    3    3    0  502 -0.25942507925E+03 -0.15018896016E+03 -0.14807067172E+03  0.33433967655E+03  0.00000000000E+00 0.  1.
         11    1    5    5    0    0  0.22629915427E+03 -0.84354587853E+02 -0.12011087675E+03  0.26972880164E+03  0.00000000000E+00 0. -1.
        -11    1    5    5    0    0  0.26798139382E+03 -0.40120676709E+01 -0.99608163252E+02  0.28592290973E+03  0.00000000000E+00 0.  1.
          3    1    6    6  503    0  0.65361248389E+02  0.32892626590E+03  0.39886702305E+03  0.52111369514E+03  0.00000000000E+00 0. -1.
         -3    1    6    6    0  503 -0.81185728929E+01  0.30896373578E-01  0.24043988424E+02  0.25377658674E+02  0.00000000000E+00 0.  1.
<mgrwt>
<rscale>  0 0.17966640E+04</rscale>
<asrwt>0</asrwt>
<pdfrwt beam="1">  1        2 0.12741153E+00 0.17966640E+04</pdfrwt>
<pdfrwt beam="2">  1       -1 0.14991265E+00 0.17966640E+04</pdfrwt>
<totfact> 0.12385873E+01</totfact>
</mgrwt>
</event>
<event>
12    6  0.1542110E-007  0.1496309E+04  0.7818608E-02  0.8886911E-01
         -1   -1    0    0    0  501 -0.00000000000E+00  0.00000000000E+00  0.64405607932E+03  0.64405607932E+03  0.00000000000E+00 0.  1.
          2   -1    0    0  501    0  0.00000000000E+00 -0.00000000000E+00 -0.86907796761E+03  0.86907796761E+03  0.00000000000E+00 0. -1.
         24    2    1    2    0    0 -0.76479863421E+02  0.29813874223E+03 -0.42210235505E+03  0.52858431147E+03  0.80592165021E+02 0.  0.
        254    2    1    2    0    0  0.76479863421E+02 -0.29813874223E+03  0.19708046676E+03  0.98454973546E+03  0.91419997379E+03 0.  0.
         23    2    4    4    0    0 -0.30697134710E+03 -0.12516886727E+02 -0.18130565272E+03  0.36838357056E+03  0.91905576287E+02 0.  0.
         23    2    4    4    0    0  0.38345121052E+03 -0.28562185550E+03  0.37838611949E+03  0.61616616490E+03  0.88713088941E+02 0.  0.
          4    1    3    3  502    0 -0.30818997758E+02  0.19906879769E+03 -0.21574381709E+03  0.29516705685E+03  0.00000000000E+00 0. -1.
         -3    1    3    3    0  502 -0.45660865663E+02  0.99069944539E+02 -0.20635853796E+03  0.23341725462E+03  0.00000000000E+00 0.  1.
         11    1    5    5    0    0 -0.26101691274E+02 -0.11875501266E+02 -0.51550563702E+02  0.58989714660E+02  0.00000000000E+00 0. -1.
        -11    1    5    5    0    0 -0.28086965583E+03 -0.64138546113E+00 -0.12975508902E+03  0.30939385590E+03  0.00000000000E+00 0.  1.
          1    1    6    6  503    0  0.18166445891E+03 -0.18886198564E+03  0.21741111168E+03  0.34049730797E+03  0.00000000000E+00 0. -1.
         -1    1    6    6    0  503  0.20178675161E+03 -0.96759869862E+02  0.16097500781E+03  0.27566885693E+03  0.00000000000E+00 0.  1.
<mgrwt>
<rscale>  0 0.14963087E+04</rscale>
<asrwt>0</asrwt>
<pdfrwt beam="1">  1        2 0.13370430E+00 0.14963087E+04</pdfrwt>
<pdfrwt beam="2">  1       -1 0.99085550E-01 0.14963087E+04</pdfrwt>
<totfact> 0.33065746E+01</totfact>
</mgrwt>
</event>
<event>
12    6  0.1542110E-007  0.1661703E+04  0.7818608E-02  0.8783513E-01
          2   -1    0    0  501    0  0.00000000000E+00  0.00000000000E+00  0.15537699077E+04  0.15537699077E+04  0.00000000000E+00 0. -1.
         -1   -1    0    0    0  501 -0.00000000000E+00 -0.00000000000E+00 -0.44428332947E+03  0.44428332947E+03  0.00000000000E+00 0.  1.
         24    2    1    2    0    0  0.47549734869E+03  0.33703467458E+03  0.50411833384E+03  0.77494144442E+03  0.81907553298E+02 0.  0.
        254    2    1    2    0    0 -0.47549734869E+03 -0.33703467458E+03  0.60536824442E+03  0.12231117928E+04  0.88873035608E+03 0.  0.
         23    2    4    4    0    0 -0.53959703630E+03 -0.49876397787E+03  0.18978273814E+03  0.76370322993E+03  0.85408831498E+02 0.  0.
         23    2    4    4    0    0  0.64099687618E+02  0.16172930330E+03  0.41558550629E+03  0.45940856285E+03  0.89887580283E+02 0.  0.
          2    1    3    3  502    0  0.33927230692E+03  0.23498657076E+03  0.30613908385E+03  0.51385360303E+03  0.00000000000E+00 0. -1.
         -1    1    3    3    0  502  0.13622504177E+03  0.10204810381E+03  0.19797924999E+03  0.26108784139E+03  0.00000000000E+00 0.  1.
         11    1    5    5    0    0 -0.50064483306E+03 -0.47003072791E+03  0.19781920337E+03  0.71463737047E+03  0.00000000000E+00 0. -1.
        -11    1    5    5    0    0 -0.38952203241E+02 -0.28733249967E+02 -0.80364652371E+01  0.49065859459E+02  0.00000000000E+00 0.  1.
          4    1    6    6  503    0  0.54917789786E+02  0.16640818833E+03  0.41321147424E+03  0.44883334460E+03  0.00000000000E+00 0. -1.
         -4    1    6    6    0  503  0.91818978314E+01 -0.46788850385E+01  0.23740320488E+01  0.10575218256E+02  0.00000000000E+00 0.  1.
<mgrwt>
<rscale>  0 0.16617028E+04</rscale>
<asrwt>0</asrwt>
<pdfrwt beam="1">  1        2 0.23904152E+00 0.16617028E+04</pdfrwt>
<pdfrwt beam="2">  1       -1 0.68351282E-01 0.16617028E+04</pdfrwt>
<totfact> 0.27890614E+01</totfact>
</mgrwt>
</event>
<event>
12    6  0.1542110E-007  0.2129334E+04  0.7818608E-02  0.8548430E-01
         -1   -1    0    0    0  501 -0.00000000000E+00  0.00000000000E+00  0.45828398085E+03  0.45828398085E+03  0.00000000000E+00 0.  1.
          2   -1    0    0  501    0  0.00000000000E+00 -0.00000000000E+00 -0.24733918849E+04  0.24733918849E+04  0.00000000000E+00 0. -1.
         24    2    1    2    0    0 -0.87956710259E+03  0.81881750351E+01 -0.88702233202E+03  0.12517630278E+04  0.79979535794E+02 0.  0.
        254    2    1    2    0    0  0.87956710259E+03 -0.81881750351E+01 -0.11280855720E+04  0.16799128379E+04  0.88080914563E+03 0.  0.
         23    2    4    4    0    0  0.11957336087E+03 -0.36939705418E+03 -0.34875008561E+03  0.52957745736E+03  0.89853708142E+02 0.  0.
         23    2    4    4    0    0  0.75999374172E+03  0.36120887914E+03 -0.77933548639E+03  0.11503353805E+04  0.88573955333E+02 0.  0.
          4    1    3    3  502    0 -0.55551858483E+02 -0.11805019801E+02 -0.80855387610E+02  0.98807697974E+02  0.00000000000E+00 0. -1.
         -3    1    3    3    0  502 -0.82401524411E+03  0.19993194836E+02 -0.80616694441E+03  0.11529553298E+04  0.00000000000E+00 0.  1.
         11    1    5    5    0    0 -0.45359489780E+01 -0.10916265650E+03 -0.79822187861E+02  0.13530943087E+03  0.00000000000E+00 0.  1.
        -11    1    5    5    0    0  0.12410930985E+03 -0.26023439768E+03 -0.26892789775E+03  0.39426802649E+03  0.00000000000E+00 0. -1.
          3    1    6    6  503    0  0.70352768409E+03  0.32747007487E+03 -0.74666062812E+03  0.10768890128E+04  0.00000000000E+00 0. -1.
         -3    1    6    6    0  503  0.56466057624E+02  0.33738804274E+02 -0.32674858266E+02  0.73446367781E+02  0.00000000000E+00 0.  1.
<mgrwt>
<rscale>  0 0.21293341E+04</rscale>
<asrwt>0</asrwt>
<pdfrwt beam="1">  1        2 0.38052184E+00 0.21293341E+04</pdfrwt>
<pdfrwt beam="2">  1       -1 0.70505226E-01 0.21293341E+04</pdfrwt>
<totfact> 0.76735697E+00</totfact>
</mgrwt>
</event>
<event>
12    6  0.1542110E-007  0.2176882E+04  0.7818608E-02  0.8528112E-01
         -1   -1    0    0    0  501 -0.00000000000E+00  0.00000000000E+00  0.52786203803E+03  0.52786203803E+03  0.00000000000E+00 0.  1.
          2   -1    0    0  501    0  0.00000000000E+00 -0.00000000000E+00 -0.22443434167E+04  0.22443434167E+04  0.00000000000E+00 0. -1.
         24    2    1    2    0    0  0.75975412244E+03  0.42593548590E+03 -0.43896290651E+03  0.97871771676E+03  0.80947952918E+02 0.  0.
        254    2    1    2    0    0 -0.75975412244E+03 -0.42593548590E+03 -0.12775184721E+04  0.17934877379E+04  0.90878900455E+03 0.  0.
         23    2    4    4    0    0 -0.91038076934E+02  0.26030265306E+03 -0.22482263725E+03  0.36708599161E+03  0.90341044775E+02 0.  0.
         23    2    4    4    0    0 -0.66871604551E+03 -0.68623813896E+03 -0.10526958349E+04  0.14264017463E+04  0.91375534370E+02 0.  0.
          2    1    3    3  502    0  0.67595660494E+03  0.35651395537E+03 -0.40395640188E+03  0.86440748883E+03  0.00000000000E+00 0. -1.
         -3    1    3    3    0  502  0.83797517502E+02  0.69421530532E+02 -0.35006504637E+02  0.11431022792E+03  0.00000000000E+00 0.  1.
         11    1    5    5    0    0 -0.80451168126E+02  0.23068640307E+03 -0.22960646741E+03  0.33527263069E+03  0.00000000000E+00 0.  1.
        -11    1    5    5    0    0 -0.10586908807E+02  0.29616249997E+02  0.47838301593E+01  0.31813360919E+02  0.00000000000E+00 0. -1.
          1    1    6    6  503    0 -0.16170519183E+03 -0.13081267591E+03 -0.18726008316E+03  0.27986936951E+03  0.00000000000E+00 0. -1.
         -1    1    6    6    0  503 -0.50701085368E+03 -0.55542546305E+03 -0.86543575171E+03  0.11465323768E+04  0.00000000000E+00 0.  1.
<mgrwt>
<rscale>  0 0.21768819E+04</rscale>
<asrwt>0</asrwt>
<pdfrwt beam="1">  1        2 0.34528361E+00 0.21768819E+04</pdfrwt>
<pdfrwt beam="2">  1       -1 0.81209543E-01 0.21768819E+04</pdfrwt>
<totfact> 0.76748562E+00</totfact>
</mgrwt>
</event>
<event>
12    6  0.1542110E-007  0.1687893E+04  0.7818608E-02  0.8768299E-01
         -1   -1    0    0    0  501 -0.00000000000E+00  0.00000000000E+00  0.74892332208E+03  0.74892332208E+03  0.00000000000E+00 0.  1.
          2   -1    0    0  501    0  0.00000000000E+00 -0.00000000000E+00 -0.95102659780E+03  0.95102659780E+03  0.00000000000E+00 0. -1.
         24    2    1    2    0    0  0.17672046873E+03  0.97893588272E+02  0.49545090522E+03  0.54107381107E+03  0.80473541285E+02 0.  0.
        254    2    1    2    0    0 -0.17672046873E+03 -0.97893588272E+02 -0.69755418095E+03  0.11588761088E+04  0.90310504457E+03 0.  0.
         23    2    4    4    0    0 -0.42787595233E+03  0.12109168877E+03 -0.93569307683E+02  0.46315857456E+03  0.89552343226E+02 0.  0.
         23    2    4    4    0    0  0.25115548360E+03 -0.21898527704E+03 -0.60398487326E+03  0.69571753425E+03  0.90507081659E+02 0.  0.
          2    1    3    3  502    0  0.24821845924E+02  0.25167747095E+01  0.14770737325E+03  0.14979962051E+03  0.00000000000E+00 0. -1.
         -3    1    3    3    0  502  0.15189862281E+03  0.95376813563E+02  0.34774353196E+03  0.39127419056E+03  0.00000000000E+00 0.  1.
         11    1    5    5    0    0 -0.10311253588E+03  0.36314696210E+02  0.15101832196E+02  0.11035858622E+03  0.00000000000E+00 0. -1.
        -11    1    5    5    0    0 -0.32476341645E+03  0.84776992557E+02 -0.10867113988E+03  0.35279998834E+03  0.00000000000E+00 0.  1.
          2    1    6    6  503    0  0.20796776559E+03 -0.13627183353E+03 -0.39340262250E+03  0.46538825461E+03  0.00000000000E+00 0.  1.
         -2    1    6    6    0  503  0.43187718012E+02 -0.82713443510E+02 -0.21058225076E+03  0.23032927964E+03  0.00000000000E+00 0. -1.
<mgrwt>
<rscale>  0 0.16878934E+04</rscale>
<asrwt>0</asrwt>
<pdfrwt beam="1">  1        2 0.14631178E+00 0.16878934E+04</pdfrwt>
<pdfrwt beam="2">  1       -1 0.11521897E+00 0.16878934E+04</pdfrwt>
<totfact> 0.20133789E+01</totfact>
</mgrwt>
</event>
<event>
12    6  0.1542110E-007  0.1569807E+04  0.7818608E-02  0.8839314E-01
          2   -1    0    0  501    0  0.00000000000E+00  0.00000000000E+00  0.24000654741E+04  0.24000654741E+04  0.00000000000E+00 0. -1.
         -1   -1    0    0    0  501 -0.00000000000E+00 -0.00000000000E+00 -0.25669032439E+03  0.25669032439E+03  0.00000000000E+00 0.  1.
         24    2    1    2    0    0 -0.18501114237E+03  0.35814299544E+03  0.12500748819E+04  0.13159047001E+04  0.80140136149E+02 0.  0.
        254    2    1    2    0    0  0.18501114237E+03 -0.35814299544E+03  0.89330026779E+03  0.13408510984E+04  0.91509604498E+03 0.  0.
         23    2    4    4    0    0  0.14585146089E+02 -0.39441756018E+03  0.10260995005E+04  0.11032704346E+04  0.92452845291E+02 0.  0.
         23    2    4    4    0    0  0.17042599628E+03  0.36274564739E+02 -0.13279923270E+03  0.23758066380E+03  0.91913390477E+02 0.  0.
          2    1    3    3  502    0 -0.56992419218E+02  0.17734200199E+03  0.65329873159E+03  0.67933611284E+03  0.00000000000E+00 0. -1.
         -1    1    3    3    0  502 -0.12801872315E+03  0.18080099345E+03  0.59677615032E+03  0.63656858727E+03  0.00000000000E+00 0.  1.
         11    1    5    5    0    0  0.19937262958E+02 -0.36443426069E+03  0.85750165230E+03  0.93194361875E+03  0.00000000000E+00 0.  1.
        -11    1    5    5    0    0 -0.53521168691E+01 -0.29983299487E+02  0.16859784819E+03  0.17132681581E+03  0.00000000000E+00 0. -1.
          3    1    6    6  503    0  0.11041346890E+03  0.11785580894E+02 -0.28263997017E+02  0.11458135782E+03  0.00000000000E+00 0. -1.
         -3    1    6    6    0  503  0.60012527380E+02  0.24488983845E+02 -0.10453523568E+03  0.12299930598E+03  0.00000000000E+00 0.  1.
<mgrwt>
<rscale>  0 0.15698071E+04</rscale>
<asrwt>0</asrwt>
<pdfrwt beam="1">  1        2 0.36924083E+00 0.15698071E+04</pdfrwt>
<pdfrwt beam="2">  1       -1 0.39490821E-01 0.15698071E+04</pdfrwt>
<totfact> 0.27179537E+01</totfact>
</mgrwt>
</event>
<event>
12    6  0.1542110E-007  0.1831631E+04  0.7818608E-02  0.8689657E-01
          2   -1    0    0  501    0  0.00000000000E+00  0.00000000000E+00  0.13345408118E+04  0.13345408118E+04  0.00000000000E+00 0. -1.
         -1   -1    0    0    0  501 -0.00000000000E+00 -0.00000000000E+00 -0.62846903634E+03  0.62846903634E+03  0.00000000000E+00 0.  1.
         24    2    1    2    0    0  0.56379273873E+03 -0.20914694868E+03  0.14588230880E+02  0.60717975828E+03  0.82763180222E+02 0.  0.
        254    2    1    2    0    0 -0.56379273873E+03  0.20914694868E+03  0.69148354462E+03  0.13558300899E+04  0.99926024729E+03 0.  0.
         23    2    4    4    0    0 -0.18456297647E+03  0.47687422130E+03  0.71343694639E+03  0.88266373666E+03  0.92900378469E+02 0.  0.
         23    2    4    4    0    0 -0.37922976226E+03 -0.26772727262E+03 -0.21953401765E+02  0.47316635324E+03  0.88945718824E+02 0.  0.
          2    1    3    3  502    0  0.28378992935E+02 -0.30045226809E+02  0.10278766722E+02  0.42587978812E+02  0.00000000000E+00 0. -1.
         -1    1    3    3    0  502  0.53541374580E+03 -0.17910172187E+03  0.43094641584E+01  0.56459177947E+03  0.00000000000E+00 0.  1.
         11    1    5    5    0    0 -0.11200521020E+03  0.18058760568E+03  0.25381521253E+03  0.33102751026E+03  0.00000000000E+00 0. -1.
        -11    1    5    5    0    0 -0.72557766265E+02  0.29628661562E+03  0.45962173386E+03  0.55163622640E+03  0.00000000000E+00 0.  1.
          3    1    6    6  503    0 -0.27769847959E+03 -0.23333566774E+03  0.45400035281E+01  0.36274314747E+03  0.00000000000E+00 0. -1.
         -3    1    6    6    0  503 -0.10153128267E+03 -0.34391604879E+02 -0.26493405293E+02  0.11042320577E+03  0.00000000000E+00 0.  1.
<mgrwt>
<rscale>  0 0.18316305E+04</rscale>
<asrwt>0</asrwt>
<pdfrwt beam="1">  1        2 0.20531397E+00 0.18316305E+04</pdfrwt>
<pdfrwt beam="2">  1       -1 0.96687544E-01 0.18316305E+04</pdfrwt>
<totfact> 0.17435737E+01</totfact>
</mgrwt>
</event>
<event>
12    6  0.1542110E-007  0.2141877E+04  0.7818608E-02  0.8543017E-01
          2   -1    0    0  501    0  0.00000000000E+00  0.00000000000E+00  0.88378039305E+03  0.88378039305E+03  0.00000000000E+00 0. -1.
         -1   -1    0    0    0  501 -0.00000000000E+00 -0.00000000000E+00 -0.12977308081E+04  0.12977308081E+04  0.00000000000E+00 0.  1.
         24    2    1    2    0    0 -0.50150401571E+03 -0.69495979512E+03  0.21260376215E+02  0.86108416481E+03  0.80861243466E+02 0.  0.
        254    2    1    2    0    0  0.50150401571E+03  0.69495979512E+03 -0.43521079129E+03  0.13204270364E+04  0.90534177574E+03 0.  0.
         23    2    4    4    0    0 -0.15961694902E+03 -0.56771747499E+02  0.58410829792E+02  0.20045173660E+03  0.89824673343E+02 0.  0.
         23    2    4    4    0    0  0.66112096473E+03  0.75173154262E+03 -0.49362162108E+03  0.11199752998E+04  0.92201546128E+02 0.  0.
          2    1    3    3  502    0 -0.27160570306E+03 -0.36843062468E+03  0.51428740656E+02  0.46060362407E+03  0.00000000000E+00 0. -1.
         -1    1    3    3    0  502 -0.22989831265E+03 -0.32652917043E+03 -0.30168364440E+02  0.40048054075E+03  0.00000000000E+00 0.  1.
         11    1    5    5    0    0 -0.56878324895E+02 -0.55485336722E+02 -0.51641218240E+01  0.79626845902E+02  0.00000000000E+00 0. -1.
        -11    1    5    5    0    0 -0.10273862412E+03 -0.12864107768E+01  0.63574951616E+02  0.12082489070E+03  0.00000000000E+00 0.  1.
          1    1    6    6  503    0  0.42014123567E+03  0.52038470218E+03 -0.29193040383E+03  0.72975492931E+03  0.00000000000E+00 0. -1.
         -1    1    6    6    0  503  0.24097972906E+03  0.23134684043E+03 -0.20169121726E+03  0.39022037045E+03  0.00000000000E+00 0.  1.
<mgrwt>
<rscale>  0 0.21418768E+04</rscale>
<asrwt>0</asrwt>
<pdfrwt beam="1">  1        2 0.13596621E+00 0.21418768E+04</pdfrwt>
<pdfrwt beam="2">  1       -1 0.19965089E+00 0.21418768E+04</pdfrwt>
<totfact> 0.47688807E+00</totfact>
</mgrwt>
</event>
<event>
12    6  0.1542110E-007  0.1456406E+04  0.7818608E-02  0.8913972E-01
         -1   -1    0    0    0  501 -0.00000000000E+00  0.00000000000E+00  0.67741595934E+03  0.67741595934E+03  0.00000000000E+00 0.  1.
          2   -1    0    0  501    0  0.00000000000E+00 -0.00000000000E+00 -0.78279732822E+03  0.78279732822E+03  0.00000000000E+00 0. -1.
         24    2    1    2    0    0  0.36746720315E+03  0.63748340913E+01 -0.29126678224E+03  0.47550160733E+03  0.78693431960E+02 0.  0.
        254    2    1    2    0    0 -0.36746720315E+03 -0.63748340913E+01  0.18588541337E+03  0.98471168023E+03  0.89444447697E+03 0.  0.
         23    2    4    4    0    0  0.21181465252E+03 -0.18054302724E+03 -0.99126387739E+02  0.30972923706E+03  0.92978104090E+02 0.  0.
         23    2    4    4    0    0 -0.57928185567E+03  0.17416819315E+03  0.28501180111E+03  0.67498244317E+03  0.92019258901E+02 0.  0.
          2    1    3    3  502    0  0.33693168973E+03  0.22759736126E+02 -0.28110947986E+03  0.43938992797E+03  0.00000000000E+00 0. -1.
         -3    1    3    3    0  502  0.30535513421E+02 -0.16384902035E+02 -0.10157302382E+02  0.36111679361E+02  0.00000000000E+00 0.  1.
         11    1    5    5    0    0  0.12633961721E+03 -0.70143590693E+02 -0.11663088959E+02  0.14497534217E+03  0.00000000000E+00 0. -1.
        -11    1    5    5    0    0  0.85475035308E+02 -0.11039943654E+03 -0.87463298779E+02  0.16475389490E+03  0.00000000000E+00 0.  1.
          1    1    6    6  503    0 -0.15683638070E+03  0.20598815198E+02  0.40483723821E+02  0.16328163826E+03  0.00000000000E+00 0. -1.
         -1    1    6    6    0  503 -0.42244547496E+03  0.15356937795E+03  0.24452807729E+03  0.51170080491E+03  0.00000000000E+00 0.  1.
<mgrwt>
<rscale>  0 0.14564057E+04</rscale>
<asrwt>0</asrwt>
<pdfrwt beam="1">  1        2 0.12043036E+00 0.14564057E+04</pdfrwt>
<pdfrwt beam="2">  1       -1 0.10421784E+00 0.14564057E+04</pdfrwt>
<totfact> 0.34007483E+01</totfact>
</mgrwt>
</event>
<event>
12    6  0.1542110E-007  0.2811626E+04  0.7818608E-02  0.8299668E-01
          2   -1    0    0  501    0  0.00000000000E+00  0.00000000000E+00  0.26234581825E+04  0.26234581825E+04  0.00000000000E+00 0. -1.
         -1   -1    0    0    0  501 -0.00000000000E+00 -0.00000000000E+00 -0.75332229570E+03  0.75332229570E+03  0.00000000000E+00 0.  1.
         24    2    1    2    0    0  0.31981857057E+03 -0.93509714557E+03 -0.10031971470E+03  0.99656951415E+03  0.79976006619E+02 0.  0.
        254    2    1    2    0    0 -0.31981857057E+03  0.93509714557E+03  0.19704556015E+04  0.23802109641E+04  0.89778525617E+03 0.  0.
         23    2    4    4    0    0  0.41252672933E+02 -0.96759098011E+02  0.64448039735E+03  0.65926706152E+03  0.90630953691E+02 0.  0.
         23    2    4    4    0    0 -0.36107124351E+03  0.10318562436E+04  0.13259752042E+04  0.17209439026E+04  0.91312230007E+02 0.  0.
          2    1    3    3  502    0  0.12025374769E+03 -0.41691914743E+03 -0.77795400610E+02  0.44083405459E+03  0.00000000000E+00 0. -1.
         -1    1    3    3    0  502  0.19956482288E+03 -0.51817799814E+03 -0.22524314090E+02  0.55573545956E+03  0.00000000000E+00 0.  1.
         11    1    5    5    0    0  0.35142802581E+02 -0.62217278622E+02  0.59103173541E+03  0.59533563525E+03  0.00000000000E+00 0. -1.
        -11    1    5    5    0    0  0.61098703517E+01 -0.34541819388E+02  0.53448661938E+02  0.63931426273E+02  0.00000000000E+00 0.  1.
          3    1    6    6  503    0 -0.23252193000E+03  0.72638646303E+03  0.86543585277E+03  0.11535523208E+04  0.00000000000E+00 0. -1.
         -3    1    6    6    0  503 -0.12854931350E+03  0.30546978055E+03  0.46053935142E+03  0.56739158175E+03  0.00000000000E+00 0.  1.
<mgrwt>
<rscale>  0 0.28116255E+04</rscale>
<asrwt>0</asrwt>
<pdfrwt beam="1">  1        2 0.40360895E+00 0.28116255E+04</pdfrwt>
<pdfrwt beam="2">  1       -1 0.11589574E+00 0.28116255E+04</pdfrwt>
<totfact> 0.19620413E+00</totfact>
</mgrwt>
</event>
<event>
12    6  0.1542110E-007  0.2504428E+04  0.7818608E-02  0.8401410E-01
          2   -1    0    0  501    0  0.00000000000E+00  0.00000000000E+00  0.12654513859E+04  0.12654513859E+04  0.00000000000E+00 0. -1.
         -1   -1    0    0    0  501 -0.00000000000E+00 -0.00000000000E+00 -0.12391147274E+04  0.12391147274E+04  0.00000000000E+00 0.  1.
         24    2    1    2    0    0 -0.11706066487E+03  0.10380299204E+04  0.33604599978E+03  0.11002552491E+04  0.80158494467E+02 0.  0.
        254    2    1    2    0    0  0.11706066487E+03 -0.10380299204E+04 -0.30970934133E+03  0.14043108642E+04  0.88597957778E+03 0.  0.
         23    2    4    4    0    0  0.23214574260E+03 -0.10422085870E+04 -0.13685434621E+02  0.10725888100E+04  0.10084185404E+03 0.  0.
         23    2    4    4    0    0 -0.11508507773E+03  0.41786665678E+01 -0.29602390671E+03  0.33172205424E+03  0.95641683140E+02 0.  0.
          2    1    3    3  502    0 -0.11355613966E+03  0.91391244789E+03  0.32051417268E+03  0.97512065620E+03  0.00000000000E+00 0. -1.
         -1    1    3    3    0  502 -0.35045252124E+01  0.12411747252E+03  0.15531827096E+02  0.12513459288E+03  0.00000000000E+00 0.  1.
         11    1    5    5    0    0  0.15811013471E+03 -0.77565825410E+03  0.31730210402E+02  0.79224450020E+03  0.00000000000E+00 0. -1.
        -11    1    5    5    0    0  0.74035607892E+02 -0.26655033289E+03 -0.45415645023E+02  0.28034430975E+03  0.00000000000E+00 0.  1.
          2    1    6    6  503    0 -0.10091057732E+03  0.41017519545E+02 -0.23539421390E+03  0.25937582281E+03  0.00000000000E+00 0. -1.
         -2    1    6    6    0  503 -0.14174500411E+02 -0.36838852977E+02 -0.60629692809E+02  0.72346231420E+02  0.00000000000E+00 0.  1.
<mgrwt>
<rscale>  0 0.25044276E+04</rscale>
<asrwt>0</asrwt>
<pdfrwt beam="1">  1        2 0.19468483E+00 0.25044276E+04</pdfrwt>
<pdfrwt beam="2">  1       -1 0.19063303E+00 0.25044276E+04</pdfrwt>
<totfact> 0.30777868E+00</totfact>
</mgrwt>
</event>
<event>
12    6  0.1542110E-007  0.1666342E+04  0.7818608E-02  0.8780797E-01
         -1   -1    0    0    0  501 -0.00000000000E+00  0.00000000000E+00  0.21456939733E+03  0.21456939733E+03  0.00000000000E+00 0.  1.
          2   -1    0    0  501    0  0.00000000000E+00 -0.00000000000E+00 -0.32351968398E+04  0.32351968398E+04  0.00000000000E+00 0. -1.
         24    2    1    2    0    0  0.24984722069E+02 -0.10043138874E+02 -0.20292243457E+04  0.20310860805E+04  0.82668738755E+02 0.  0.
        254    2    1    2    0    0 -0.24984722069E+02  0.10043138874E+02 -0.99140309682E+03  0.14186801566E+04  0.10144201228E+04 0.  0.
         23    2    4    4    0    0 -0.56314894491E+02  0.23373545353E+03 -0.11158779484E+04  0.11451598514E+04  0.91672569415E+02 0.  0.
         23    2    4    4    0    0  0.31330172422E+02 -0.22369231466E+03  0.12447485157E+03  0.27352030524E+03  0.91101796727E+02 0.  0.
          4    1    3    3  502    0  0.26016462277E+02  0.12617211482E+02 -0.18730295983E+04  0.18732527663E+04  0.00000000000E+00 0. -1.
         -3    1    3    3    0  502 -0.10317402081E+01 -0.22660350356E+02 -0.15619474735E+03  0.15783331418E+03  0.00000000000E+00 0.  1.
         11    1    5    5    0    0 -0.31596542117E+01  0.21298360486E+01 -0.16485473679E+03  0.16489876852E+03  0.00000000000E+00 0.  1.
        -11    1    5    5    0    0 -0.53155240279E+02  0.23160561748E+03 -0.95102321159E+03  0.98026108288E+03  0.00000000000E+00 0. -1.
          3    1    6    6  503    0 -0.11115407733E+02 -0.18723299465E+03  0.93816727228E+02  0.20971724985E+03  0.00000000000E+00 0. -1.
         -3    1    6    6    0  503  0.42445580155E+02 -0.36459320005E+02  0.30658124338E+02  0.63803055396E+02  0.00000000000E+00 0.  1.
<mgrwt>
<rscale>  0 0.16663424E+04</rscale>
<asrwt>0</asrwt>
<pdfrwt beam="1">  1        2 0.49772258E+00 0.16663424E+04</pdfrwt>
<pdfrwt beam="2">  1       -1 0.33010677E-01 0.16663424E+04</pdfrwt>
<totfact> 0.11594622E+01</totfact>
</mgrwt>
</event>
<event>
12    6  0.1542110E-007  0.1613584E+04  0.7818608E-02  0.8812246E-01
          2   -1    0    0  501    0  0.00000000000E+00  0.00000000000E+00  0.17450727447E+04  0.17450727447E+04  0.00000000000E+00 0. -1.
         -1   -1    0    0    0  501 -0.00000000000E+00 -0.00000000000E+00 -0.37300057251E+03  0.37300057251E+03  0.00000000000E+00 0.  1.
         24    2    1    2    0    0  0.17567608190E+03 -0.28400002874E+03  0.10249602934E+04  0.10810007176E+04  0.80627826469E+02 0.  0.
        254    2    1    2    0    0 -0.17567608190E+03  0.28400002874E+03  0.34711187879E+03  0.10370725996E+04  0.91843062794E+03 0.  0.
         23    2    4    4    0    0  0.46544274186E+02 -0.19906525079E+03 -0.17607773513E+03  0.28534247740E+03  0.92863432379E+02 0.  0.
         23    2    4    4    0    0 -0.22222035609E+03  0.48306527952E+03  0.52318961392E+03  0.75173012218E+03  0.92934673522E+02 0.  0.
          4    1    3    3  502    0  0.78869428979E+02 -0.19432016481E+03  0.68256655355E+03  0.71405728994E+03  0.00000000000E+00 0. -1.
         -1    1    3    3    0  502  0.96806652926E+02 -0.89679863930E+02  0.34239373981E+03  0.36694342767E+03  0.00000000000E+00 0.  1.
         11    1    5    5    0    0  0.12446084823E+02  0.76444931583E+01 -0.16137979880E+02  0.21766435116E+02  0.00000000000E+00 0. -1.
        -11    1    5    5    0    0  0.34098189363E+02 -0.20670974394E+03 -0.15993975525E+03  0.26357604229E+03  0.00000000000E+00 0.  1.
          3    1    6    6  503    0 -0.12395130751E+03  0.20600733740E+03  0.28865605463E+03  0.37566643125E+03  0.00000000000E+00 0. -1.
         -3    1    6    6    0  503 -0.98269048579E+02  0.27705794213E+03  0.23453355929E+03  0.37606369093E+03  0.00000000000E+00 0.  1.
<mgrwt>
<rscale>  0 0.16135838E+04</rscale>
<asrwt>0</asrwt>
<pdfrwt beam="1">  1        2 0.26847272E+00 0.16135838E+04</pdfrwt>
<pdfrwt beam="2">  1       -1 0.57384705E-01 0.16135838E+04</pdfrwt>
<totfact> 0.31064925E+01</totfact>
</mgrwt>
</event>
<event>
12    6  0.1542110E-007  0.3280920E+04  0.7818608E-02  0.8167767E-01
         -1   -1    0    0    0  501 -0.00000000000E+00  0.00000000000E+00  0.10486528247E+04  0.10486528247E+04  0.00000000000E+00 0.  1.
          2   -1    0    0  501    0  0.00000000000E+00 -0.00000000000E+00 -0.25662535249E+04  0.25662535249E+04  0.00000000000E+00 0. -1.
         24    2    1    2    0    0  0.13187333424E+04  0.67730903808E+03 -0.10551932830E+04  0.18213243915E+04  0.77359637040E+02 0.  0.
        254    2    1    2    0    0 -0.13187333424E+04 -0.67730903808E+03 -0.46240741727E+03  0.17935819581E+04  0.89739091786E+03 0.  0.
         23    2    4    4    0    0 -0.23992391244E+03 -0.13201875578E+03  0.25535817790E+03  0.38483146180E+03  0.88853921289E+02 0.  0.
         23    2    4    4    0    0 -0.10788094299E+04 -0.54529028230E+03 -0.71776559516E+03  0.14087504963E+04  0.90659986300E+02 0.  0.
          2    1    3    3  502    0  0.11343722979E+04  0.58904549126E+03 -0.94073405241E+03  0.15870588074E+04  0.00000000000E+00 0. -1.
         -1    1    3    3    0  502  0.18436104449E+03  0.88263546823E+02 -0.11445923055E+03  0.23426558408E+03  0.00000000000E+00 0.  1.
         11    1    5    5    0    0 -0.58524059876E+02  0.67468465238E+01  0.62717103694E+02  0.86046618865E+02  0.00000000000E+00 0. -1.
        -11    1    5    5    0    0 -0.18139985257E+03 -0.13876560231E+03  0.19264107420E+03  0.29878484293E+03  0.00000000000E+00 0.  1.
          4    1    6    6  503    0 -0.26940326365E+03 -0.13550248781E+03 -0.22569720800E+03  0.37666732320E+03  0.00000000000E+00 0. -1.
         -4    1    6    6    0  503 -0.80940616625E+03 -0.40978779449E+03 -0.49206838716E+03  0.10320831731E+04  0.00000000000E+00 0.  1.
<mgrwt>
<rscale>  0 0.32809200E+04</rscale>
<asrwt>0</asrwt>
<pdfrwt beam="1">  1        2 0.39480823E+00 0.32809200E+04</pdfrwt>
<pdfrwt beam="2">  1       -1 0.16133121E+00 0.32809200E+04</pdfrwt>
<totfact> 0.86427716E-01</totfact>
</mgrwt>
</event>
<event>
12    6  0.1542110E-007  0.1779355E+04  0.7818608E-02  0.8717356E-01
         -1   -1    0    0    0  501 -0.00000000000E+00  0.00000000000E+00  0.38358264611E+03  0.38358264611E+03  0.00000000000E+00 0.  1.
          2   -1    0    0  501    0  0.00000000000E+00 -0.00000000000E+00 -0.20635080228E+04  0.20635080228E+04  0.00000000000E+00 0. -1.
         24    2    1    2    0    0 -0.35647852002E+03  0.10162269534E+03  0.11897073223E+03  0.39733217758E+03  0.79465192220E+02 0.  0.
        254    2    1    2    0    0  0.35647852002E+03 -0.10162269534E+03 -0.17988961090E+04  0.20497584914E+04  0.90998821674E+03 0.  0.
         23    2    4    4    0    0  0.57583798878E+03 -0.10521797501E+03 -0.16842341582E+04  0.17851467969E+04  0.86279633721E+02 0.  0.
         23    2    4    4    0    0 -0.21935946876E+03  0.35952796651E+01 -0.11466195075E+03  0.26461169446E+03  0.93490552044E+02 0.  0.
          2    1    3    3  502    0 -0.14954902274E+03  0.11505878599E+02  0.73766588170E+02  0.16714905018E+03  0.00000000000E+00 0. -1.
         -1    1    3    3    0  502 -0.20692949727E+03  0.90116816742E+02  0.45204144065E+02  0.23018312741E+03  0.00000000000E+00 0.  1.
         11    1    5    5    0    0  0.13130395068E+03 -0.15931983749E+02 -0.28306293315E+03  0.31244068188E+03  0.00000000000E+00 0. -1.
        -11    1    5    5    0    0  0.44453403810E+03 -0.89285991258E+02 -0.14011712251E+04  0.14727061150E+04  0.00000000000E+00 0.  1.
          3    1    6    6  503    0 -0.11886330271E+03 -0.30436973619E+02 -0.98376972749E+02  0.15726704315E+03  0.00000000000E+00 0. -1.
         -3    1    6    6    0  503 -0.10049616606E+03  0.34032253284E+02 -0.16284977998E+02  0.10734465131E+03  0.00000000000E+00 0.  1.
<mgrwt>
<rscale>  0 0.17793548E+04</rscale>
<asrwt>0</asrwt>
<pdfrwt beam="1">  1        2 0.31746278E+00 0.17793548E+04</pdfrwt>
<pdfrwt beam="2">  1       -1 0.59012714E-01 0.17793548E+04</pdfrwt>
<totfact> 0.19304190E+01</totfact>
</mgrwt>
</event>
<event>
12    6  0.1542110E-007  0.1409069E+04  0.7818608E-02  0.8947280E-01
         -1   -1    0    0    0  501 -0.00000000000E+00  0.00000000000E+00  0.74821712877E+03  0.74821712877E+03  0.00000000000E+00 0.  1.
          2   -1    0    0  501    0  0.00000000000E+00 -0.00000000000E+00 -0.66340207346E+03  0.66340207346E+03  0.00000000000E+00 0. -1.
         24    2    1    2    0    0 -0.38667417861E+03  0.25337927069E+02 -0.11254871704E+03  0.41146268550E+03  0.80469850884E+02 0.  0.
        254    2    1    2    0    0  0.38667417861E+03 -0.25337927069E+02  0.19736377235E+03  0.10001565167E+04  0.90066734612E+03 0.  0.
         23    2    4    4    0    0  0.50503099560E+03 -0.17153844048E+03  0.42699840484E+03  0.68924249681E+03  0.90806599931E+02 0.  0.
         23    2    4    4    0    0 -0.11835681699E+03  0.14620051341E+03 -0.22963463249E+03  0.31091401992E+03  0.92479928069E+02 0.  0.
          4    1    3    3  502    0 -0.69616877126E+02  0.95193667313E+01 -0.54091313381E+02  0.88673547955E+02  0.00000000000E+00 0. -1.
         -3    1    3    3    0  502 -0.31705730149E+03  0.15818560338E+02 -0.58457403662E+02  0.32278913755E+03  0.00000000000E+00 0.  1.
         11    1    5    5    0    0  0.31132140702E+03 -0.12933925305E+03  0.31581947053E+03  0.46194328528E+03  0.00000000000E+00 0.  1.
        -11    1    5    5    0    0  0.19370958858E+03 -0.42199187430E+02  0.11117893431E+03  0.22729921153E+03  0.00000000000E+00 0. -1.
          4    1    6    6  503    0 -0.29529498632E+02  0.47207778237E+02 -0.13762878245E+02  0.57358368466E+02  0.00000000000E+00 0. -1.
         -4    1    6    6    0  503 -0.88827318354E+02  0.98992735171E+02 -0.21587175425E+03  0.25355565146E+03  0.00000000000E+00 0.  1.
<mgrwt>
<rscale>  0 0.14090689E+04</rscale>
<asrwt>0</asrwt>
<pdfrwt beam="1">  1        2 0.10206186E+00 0.14090689E+04</pdfrwt>
<pdfrwt beam="2">  1       -1 0.11511033E+00 0.14090689E+04</pdfrwt>
<totfact> 0.33370417E+01</totfact>
</mgrwt>
</event>
<event>
12    6  0.1542110E-007  0.1788155E+04  0.7818608E-02  0.8712624E-01
          2   -1    0    0  501    0  0.00000000000E+00  0.00000000000E+00  0.71205822384E+03  0.71205822384E+03  0.00000000000E+00 0. -1.
         -1   -1    0    0    0  501 -0.00000000000E+00 -0.00000000000E+00 -0.11226250777E+04  0.11226250777E+04  0.00000000000E+00 0.  1.
         24    2    1    2    0    0  0.22553479368E+02  0.16294778740E+03  0.50462043805E+03  0.53662432181E+03  0.79140605303E+02 0.  0.
        254    2    1    2    0    0 -0.22553479368E+02 -0.16294778740E+03 -0.91518729187E+03  0.12980589797E+04  0.90571998692E+03 0.  0.
         23    2    4    4    0    0  0.40207769299E+03 -0.22876570631E+03 -0.56080972975E+03  0.73314021721E+03  0.94798763256E+02 0.  0.
         23    2    4    4    0    0 -0.42463117236E+03  0.65817918906E+02 -0.35437756212E+03  0.56491876249E+03  0.94372245334E+02 0.  0.
          4    1    3    3  502    0  0.50337073002E+02  0.12259711459E+03  0.34183121159E+03  0.36662303616E+03  0.00000000000E+00 0. -1.
         -3    1    3    3    0  502 -0.27783593634E+02  0.40350672814E+02  0.16278922646E+03  0.17000128565E+03  0.00000000000E+00 0.  1.
         11    1    5    5    0    0  0.92842439214E+02 -0.75134109403E+02 -0.91327293957E+02  0.15035134697E+03  0.00000000000E+00 0. -1.
        -11    1    5    5    0    0  0.30923525378E+03 -0.15363159690E+03 -0.46948243580E+03  0.58278887023E+03  0.00000000000E+00 0.  1.
          3    1    6    6  503    0 -0.13894976752E+03  0.46668148088E+02 -0.16953881763E+03  0.22411685484E+03  0.00000000000E+00 0. -1.
         -3    1    6    6    0  503 -0.28568140484E+03  0.19149770819E+02 -0.18483874449E+03  0.34080190765E+03  0.00000000000E+00 0.  1.
<mgrwt>
<rscale>  0 0.17881548E+04</rscale>
<asrwt>0</asrwt>
<pdfrwt beam="1">  1        2 0.10954742E+00 0.17881548E+04</pdfrwt>
<pdfrwt beam="2">  1       -1 0.17271155E+00 0.17881548E+04</pdfrwt>
<totfact> 0.10167404E+01</totfact>
</mgrwt>
</event>
<event>
12    6  0.1542110E-007  0.1652666E+04  0.7818608E-02  0.8788831E-01
         -1   -1    0    0    0  501 -0.00000000000E+00  0.00000000000E+00  0.74459640295E+03  0.74459640295E+03  0.00000000000E+00 0.  1.
          2   -1    0    0  501    0  0.00000000000E+00 -0.00000000000E+00 -0.91704173127E+03  0.91704173127E+03  0.00000000000E+00 0. -1.
         24    2    1    2    0    0  0.42665768352E+03  0.37389653793E+03  0.43735521984E+02  0.57434064489E+03  0.78223912628E+02 0.  0.
        254    2    1    2    0    0 -0.42665768352E+03 -0.37389653793E+03 -0.21618085030E+03  0.10872974893E+04  0.90202343112E+03 0.  0.
         23    2    4    4    0    0 -0.63059070307E+03 -0.17783620939E+03 -0.36333296150E+03  0.75478982343E+03  0.91795884889E+02 0.  0.
         23    2    4    4    0    0  0.20393301955E+03 -0.19606032854E+03  0.14715211120E+03  0.33250766590E+03  0.94229905882E+02 0.  0.
          4    1    3    3  502    0  0.34003163004E+03  0.29368224293E+03  0.25670258478E+01  0.44930764389E+03  0.00000000000E+00 0. -1.
         -3    1    3    3    0  502  0.86626053479E+02  0.80214294993E+02  0.41168496137E+02  0.12503300099E+03  0.00000000000E+00 0.  1.
         11    1    5    5    0    0 -0.21398432303E+03 -0.61713184209E+02 -0.74979666571E+02  0.23498884656E+03  0.00000000000E+00 0. -1.
        -11    1    5    5    0    0 -0.41660638004E+03 -0.11612302518E+03 -0.28835329493E+03  0.51980097688E+03  0.00000000000E+00 0.  1.
          3    1    6    6  503    0  0.81394941509E+02 -0.50793648991E+02  0.66702324415E+01  0.96174961825E+02  0.00000000000E+00 0. -1.
         -3    1    6    6    0  503  0.12253807804E+03 -0.14526667955E+03  0.14048187875E+03  0.23633270407E+03  0.00000000000E+00 0.  1.
<mgrwt>
<rscale>  0 0.16526657E+04</rscale>
<asrwt>0</asrwt>
<pdfrwt beam="1">  1        2 0.14108334E+00 0.16526657E+04</pdfrwt>
<pdfrwt beam="2">  1       -1 0.11455329E+00 0.16526657E+04</pdfrwt>
<totfact> 0.21568500E+01</totfact>
</mgrwt>
</event>
<event>
12    6  0.1542110E-007  0.1448619E+04  0.7818608E-02  0.8919358E-01
         -1   -1    0    0    0  501 -0.00000000000E+00  0.00000000000E+00  0.20476847955E+03  0.20476847955E+03  0.00000000000E+00 0.  1.
          2   -1    0    0  501    0  0.00000000000E+00 -0.00000000000E+00 -0.25620365916E+04  0.25620365916E+04  0.00000000000E+00 0. -1.
         24    2    1    2    0    0  0.21199445919E+03  0.42210945248E+02 -0.14666650536E+04  0.14851314507E+04  0.88236226725E+02 0.  0.
        254    2    1    2    0    0 -0.21199445919E+03 -0.42210945248E+02 -0.89060305850E+03  0.12816736205E+04  0.89598551725E+03 0.  0.
         23    2    4    4    0    0 -0.48477214846E+03 -0.20489091705E+03 -0.32114616114E+03  0.62331637487E+03  0.91674001506E+02 0.  0.
         23    2    4    4    0    0  0.27277768927E+03  0.16267997181E+03 -0.56945689736E+03  0.65835724566E+03  0.90998153653E+02 0.  0.
          2    1    3    3  502    0  0.11364322898E+03 -0.14220890658E+02 -0.89778576591E+03  0.90506148890E+03  0.00000000000E+00 0. -1.
         -1    1    3    3    0  502  0.98351230217E+02  0.56431835906E+02 -0.56887928767E+03  0.58006996176E+03  0.00000000000E+00 0.  1.
         11    1    5    5    0    0 -0.20716465673E+02  0.97853908888E+01 -0.13957785026E+02  0.26828074617E+02  0.00000000000E+00 0. -1.
        -11    1    5    5    0    0 -0.46405568279E+03 -0.21467630794E+03 -0.30718837611E+03  0.59648830025E+03  0.00000000000E+00 0.  1.
          1    1    6    6  503    0  0.18958141809E+03  0.14884468863E+03 -0.36742281149E+03  0.43942619155E+03  0.00000000000E+00 0. -1.
         -1    1    6    6    0  503  0.83196271175E+02  0.13835283180E+02 -0.20203408587E+03  0.21893105411E+03  0.00000000000E+00 0.  1.
<mgrwt>
<rscale>  0 0.14486191E+04</rscale>
<asrwt>0</asrwt>
<pdfrwt beam="1">  1        2 0.39415948E+00 0.14486191E+04</pdfrwt>
<pdfrwt beam="2">  1       -1 0.31502843E-01 0.14486191E+04</pdfrwt>
<totfact> 0.33244627E+01</totfact>
</mgrwt>
</event>
<event>
12    6  0.1542110E-007  0.2016467E+04  0.7818608E-02  0.8598961E-01
         -1   -1    0    0    0  501 -0.00000000000E+00  0.00000000000E+00  0.52919118163E+03  0.52919118163E+03  0.00000000000E+00 0.  1.
          2   -1    0    0  501    0  0.00000000000E+00 -0.00000000000E+00 -0.19209206869E+04  0.19209206869E+04  0.00000000000E+00 0. -1.
         24    2    1    2    0    0 -0.85991935368E+02 -0.46863403100E+03  0.23016983292E+03  0.53455232296E+03  0.75865446951E+02 0.  0.
        254    2    1    2    0    0  0.85991935368E+02  0.46863403100E+03 -0.16218993381E+04  0.19155595455E+04  0.90099858015E+03 0.  0.
         23    2    4    4    0    0  0.89210140746E+02  0.30978974139E+03 -0.56784011170E+02  0.33996948757E+03  0.91797034109E+02 0.  0.
         23    2    4    4    0    0 -0.32182053779E+01  0.15884428961E+03 -0.15651153270E+04  0.15755900580E+04  0.87499593324E+02 0.  0.
          2    1    3    3  502    0 -0.74683527120E+00 -0.15281032376E+03  0.48270908854E+02  0.16025490149E+03  0.00000000000E+00 0. -1.
         -3    1    3    3    0  502 -0.85245100097E+02 -0.31582370724E+03  0.18189892406E+03  0.37429742147E+03  0.00000000000E+00 0.  1.
         11    1    5    5    0    0  0.62186288602E+02  0.10270039703E+03 -0.52613451748E+02  0.13108272711E+03  0.00000000000E+00 0.  1.
        -11    1    5    5    0    0  0.27023852144E+02  0.20708934435E+03 -0.41705594217E+01  0.20888676046E+03  0.00000000000E+00 0. -1.
          2    1    6    6  503    0  0.15838863197E+02  0.13175078378E+03 -0.90854733486E+03  0.91818701706E+03  0.00000000000E+00 0. -1.
         -2    1    6    6    0  503 -0.19057068575E+02  0.27093505836E+02 -0.65656799211E+03  0.65740304090E+03  0.00000000000E+00 0.  1.
<mgrwt>
<rscale>  0 0.20164665E+04</rscale>
<asrwt>0</asrwt>
<pdfrwt beam="1">  1        2 0.29552626E+00 0.20164665E+04</pdfrwt>
<pdfrwt beam="2">  1       -1 0.81414029E-01 0.20164665E+04</pdfrwt>
<totfact> 0.11734432E+01</totfact>
</mgrwt>
</event>
<event>
12    6  0.1542110E-007  0.2754453E+04  0.7818608E-02  0.8317550E-01
          2   -1    0    0  501    0  0.00000000000E+00  0.00000000000E+00  0.23866441407E+04  0.23866441407E+04  0.00000000000E+00 0. -1.
         -1   -1    0    0    0  501 -0.00000000000E+00 -0.00000000000E+00 -0.79473621214E+03  0.79473621214E+03  0.00000000000E+00 0.  1.
         24    2    1    2    0    0 -0.64499339446E+03 -0.54413579616E+03 -0.31582605359E+03  0.90410149625E+03  0.74519633946E+02 0.  0.
        254    2    1    2    0    0  0.64499339446E+03  0.54413579616E+03  0.19077339822E+04  0.22772788566E+04  0.91348223876E+03 0.  0.
         23    2    4    4    0    0  0.95939430114E+02  0.17952979658E+03  0.14567627707E+04  0.14737246379E+04  0.90946226573E+02 0.  0.
         23    2    4    4    0    0  0.54905396434E+03  0.36460599958E+03  0.45097121152E+03  0.80355421877E+03  0.89031220368E+02 0.  0.
          4    1    3    3  502    0 -0.29307668362E+03 -0.26443909768E+03 -0.11061408187E+03  0.40994811131E+03  0.00000000000E+00 0. -1.
         -3    1    3    3    0  502 -0.35191671084E+03 -0.27969669848E+03 -0.20521197172E+03  0.49415338494E+03  0.00000000000E+00 0.  1.
         11    1    5    5    0    0  0.12716328608E+02 -0.98373159177E+01  0.99528718024E+02  0.10081886485E+03  0.00000000000E+00 0. -1.
        -11    1    5    5    0    0  0.83223101506E+02  0.18936711250E+03  0.13572340526E+04  0.13729057730E+04  0.00000000000E+00 0.  1.
          3    1    6    6  503    0  0.21706110652E+03  0.19715802241E+03  0.20090308197E+03  0.35545584551E+03  0.00000000000E+00 0. -1.
         -3    1    6    6    0  503  0.33199285782E+03  0.16744797717E+03  0.25006812955E+03  0.44809837326E+03  0.00000000000E+00 0.  1.
<mgrwt>
<rscale>  0 0.27544528E+04</rscale>
<asrwt>0</asrwt>
<pdfrwt beam="1">  1        2 0.36717602E+00 0.27544528E+04</pdfrwt>
<pdfrwt beam="2">  1       -1 0.12226711E+00 0.27544528E+04</pdfrwt>
<totfact> 0.23750868E+00</totfact>
</mgrwt>
</event>
<event>
12    6  0.1542110E-007  0.1252794E+04  0.7818608E-02  0.9067861E-01
          2   -1    0    0  501    0  0.00000000000E+00  0.00000000000E+00  0.12931654625E+04  0.12931654625E+04  0.00000000000E+00 0. -1.
         -1   -1    0    0    0  501 -0.00000000000E+00 -0.00000000000E+00 -0.30342070004E+03  0.30342070004E+03  0.00000000000E+00 0.  1.
         24    2    1    2    0    0 -0.16204867419E+03 -0.42831611893E+02 -0.68593510223E+02  0.19789806642E+03  0.79776282596E+02 0.  0.
        254    2    1    2    0    0  0.16204867419E+03  0.42831611893E+02  0.10583382726E+04  0.13986880961E+04  0.89897395458E+03 0.  0.
         23    2    4    4    0    0 -0.16124147240E+03 -0.29280761857E+03  0.15691306215E+03  0.37969228888E+03  0.88370873310E+02 0.  0.
         23    2    4    4    0    0  0.32329014659E+03  0.33563923046E+03  0.90142521049E+03  0.10189958072E+04  0.92816125114E+02 0.  0.
          2    1    3    3  502    0 -0.27956401995E+02  0.18113434435E+02  0.42431089977E+01  0.33580662494E+02  0.00000000000E+00 0. -1.
         -1    1    3    3    0  502 -0.13409227219E+03 -0.60945046328E+02 -0.72836619220E+02  0.16431740393E+03  0.00000000000E+00 0.  1.
         11    1    5    5    0    0 -0.16229907909E+03 -0.23655027581E+03  0.14773822220E+03  0.32268189654E+03  0.00000000000E+00 0. -1.
        -11    1    5    5    0    0  0.10576066909E+01 -0.56257342763E+02  0.91748399520E+01  0.57010392340E+02  0.00000000000E+00 0.  1.
          3    1    6    6  503    0  0.24014379305E+03  0.18611923702E+03  0.59274541626E+03  0.66607547638E+03  0.00000000000E+00 0. -1.
         -3    1    6    6    0  503  0.83146353537E+02  0.14951999344E+03  0.30867979423E+03  0.35292033082E+03  0.00000000000E+00 0.  1.
<mgrwt>
<rscale>  0 0.12527939E+04</rscale>
<asrwt>0</asrwt>
<pdfrwt beam="1">  1        2 0.19894853E+00 0.12527939E+04</pdfrwt>
<pdfrwt beam="2">  1       -1 0.46680109E-01 0.12527939E+04</pdfrwt>
<totfact> 0.85462755E+01</totfact>
</mgrwt>
</event>
<event>
12    6  0.1542110E-007  0.1060090E+04  0.7818608E-02  0.9244988E-01
          2   -1    0    0  501    0  0.00000000000E+00  0.00000000000E+00  0.11633051132E+04  0.11633051132E+04  0.00000000000E+00 0. -1.
         -1   -1    0    0    0  501 -0.00000000000E+00 -0.00000000000E+00 -0.24150833206E+03  0.24150833206E+03  0.00000000000E+00 0.  1.
         24    2    1    2    0    0 -0.98190656530E+02  0.46425152179E+02  0.45924149698E+02  0.14320276903E+03  0.81248419969E+02 0.  0.
        254    2    1    2    0    0  0.98190656530E+02 -0.46425152179E+02  0.87587263140E+03  0.12616106762E+04  0.90150536996E+03 0.  0.
         23    2    4    4    0    0 -0.18500815934E+03  0.25421934136E+03  0.46367140560E+02  0.33052590245E+03  0.90785284715E+02 0.  0.
         23    2    4    4    0    0  0.28319881587E+03 -0.30064449354E+03  0.82950549084E+03  0.93108477374E+03  0.90834001098E+02 0.  0.
          2    1    3    3  502    0 -0.44863704359E+02  0.16859402846E+02  0.63675613885E+02  0.79696770554E+02  0.00000000000E+00 0. -1.
         -1    1    3    3    0  502 -0.53326952171E+02  0.29565749333E+02 -0.17751464187E+02  0.63505998475E+02  0.00000000000E+00 0.  1.
         11    1    5    5    0    0 -0.14461370114E+03  0.15334294762E+03  0.64355957931E+02  0.22038346459E+03  0.00000000000E+00 0.  1.
        -11    1    5    5    0    0 -0.40394458200E+02  0.10087639374E+03 -0.17988817371E+02  0.11014243786E+03  0.00000000000E+00 0. -1.
          1    1    6    6  503    0  0.70437916805E+02 -0.10596462654E+03  0.33887058709E+03  0.36197137593E+03  0.00000000000E+00 0. -1.
         -1    1    6    6    0  503  0.21276089906E+03 -0.19467986700E+03  0.49063490375E+03  0.56911339781E+03  0.00000000000E+00 0.  1.
<mgrwt>
<rscale>  0 0.10600903E+04</rscale>
<asrwt>0</asrwt>
<pdfrwt beam="1">  1        2 0.17897002E+00 0.10600903E+04</pdfrwt>
<pdfrwt beam="2">  1       -1 0.37155128E-01 0.10600903E+04</pdfrwt>
<totfact> 0.15734063E+02</totfact>
</mgrwt>
</event>
<event>
12    6  0.1542110E-007  0.2047634E+04  0.7818608E-02  0.8584668E-01
         -1   -1    0    0    0  501 -0.00000000000E+00  0.00000000000E+00  0.16714440971E+04  0.16714440971E+04  0.00000000000E+00 0.  1.
          2   -1    0    0  501    0  0.00000000000E+00 -0.00000000000E+00 -0.62712318379E+03  0.62712318379E+03  0.00000000000E+00 0. -1.
         24    2    1    2    0    0  0.66503392955E+03 -0.95130964897E+02  0.94968674596E+03  0.11659550787E+04  0.78906920911E+02 0.  0.
        254    2    1    2    0    0 -0.66503392955E+03  0.95130964897E+02  0.94634167378E+02  0.11326122022E+04  0.90693701383E+03 0.  0.
         23    2    4    4    0    0 -0.44431113357E+03  0.26578110085E+02 -0.38250416306E+03  0.59391308030E+03  0.91129209616E+02 0.  0.
         23    2    4    4    0    0 -0.22072279597E+03  0.68552854813E+02  0.47713833043E+03  0.53869912192E+03  0.95486705983E+02 0.  0.
          2    1    3    3  502    0  0.14846231697E+03 -0.25544992477E+02  0.27284728997E+03  0.31167170202E+03  0.00000000000E+00 0. -1.
         -1    1    3    3    0  502  0.51657161258E+03 -0.69585972420E+02  0.67683945600E+03  0.85428337668E+03  0.00000000000E+00 0.  1.
         11    1    5    5    0    0 -0.38742326509E+03  0.21544424080E+02 -0.36848047077E+03  0.53510635007E+03  0.00000000000E+00 0. -1.
        -11    1    5    5    0    0 -0.56887868486E+02  0.50336860046E+01 -0.14023692281E+02  0.58806730234E+02  0.00000000000E+00 0.  1.
          1    1    6    6  503    0 -0.12717814823E+03 -0.98156873055E+01  0.22712675682E+03  0.26049413193E+03  0.00000000000E+00 0.  1.
         -1    1    6    6    0  503 -0.93544647748E+02  0.78368542118E+02  0.25001157361E+03  0.27820498999E+03  0.00000000000E+00 0. -1.
<mgrwt>
<rscale>  0 0.20476341E+04</rscale>
<asrwt>0</asrwt>
<pdfrwt beam="1">  1        2 0.96480490E-01 0.20476341E+04</pdfrwt>
<pdfrwt beam="2">  1       -1 0.25714524E+00 0.20476341E+04</pdfrwt>
<totfact> 0.31098283E+00</totfact>
</mgrwt>
</event>
<event>
12    6  0.1542110E-007  0.1348624E+04  0.7818608E-02  0.8991870E-01
         -1   -1    0    0    0  501 -0.00000000000E+00  0.00000000000E+00  0.66766301309E+03  0.66766301309E+03  0.00000000000E+00 0.  1.
          2   -1    0    0  501    0  0.00000000000E+00 -0.00000000000E+00 -0.68102763604E+03  0.68102763604E+03  0.00000000000E+00 0. -1.
         24    2    1    2    0    0  0.82708044879E+02  0.36046405070E+03  0.10912701885E+02  0.37844406110E+03  0.79535324121E+02 0.  0.
        254    2    1    2    0    0 -0.82708044879E+02 -0.36046405070E+03 -0.24277324834E+02  0.97024658804E+03  0.89666833364E+03 0.  0.
         23    2    4    4    0    0  0.36390252147E+03 -0.32440230075E+03  0.76861852898E+02  0.50198285884E+03  0.91745017716E+02 0.  0.
         23    2    4    4    0    0 -0.44661056635E+03 -0.36061749956E+02 -0.10113917773E+03  0.46826372920E+03  0.90996368193E+02 0.  0.
          4    1    3    3  502    0 -0.15351881828E+02  0.40679403017E+02 -0.37496943788E+01  0.43641199724E+02  0.00000000000E+00 0. -1.
         -1    1    3    3    0  502  0.98059926706E+02  0.31978464769E+03  0.14662396263E+02  0.33480286138E+03  0.00000000000E+00 0.  1.
         11    1    5    5    0    0  0.64838094771E+02 -0.68587870435E+02 -0.20467592206E+02  0.96577413690E+02  0.00000000000E+00 0.  1.
        -11    1    5    5    0    0  0.29906442670E+03 -0.25581443031E+03  0.97329445104E+02  0.40540544515E+03  0.00000000000E+00 0. -1.
          3    1    6    6  503    0 -0.44133309808E+03 -0.35641757673E+02 -0.84445654334E+02  0.45075082572E+03  0.00000000000E+00 0. -1.
         -3    1    6    6    0  503 -0.52774682736E+01 -0.41999228343E+00 -0.16693523399E+02  0.17512903482E+02  0.00000000000E+00 0.  1.
<mgrwt>
<rscale>  0 0.13486244E+04</rscale>
<asrwt>0</asrwt>
<pdfrwt beam="1">  1        2 0.10477348E+00 0.13486244E+04</pdfrwt>
<pdfrwt beam="2">  1       -1 0.10271739E+00 0.13486244E+04</pdfrwt>
<totfact> 0.42433059E+01</totfact>
</mgrwt>
</event>
<event>
12    6  0.1542110E-007  0.4043577E+04  0.7818608E-02  0.7995813E-01
         -1   -1    0    0    0  501 -0.00000000000E+00  0.00000000000E+00  0.22412929803E+04  0.22412929803E+04  0.00000000000E+00 0.  1.
          2   -1    0    0  501    0  0.00000000000E+00 -0.00000000000E+00 -0.18237816899E+04  0.18237816899E+04  0.00000000000E+00 0. -1.
         24    2    1    2    0    0 -0.16881338556E+04 -0.46636571562E+03  0.10038016844E+04  0.20202398004E+04  0.80362519307E+02 0.  0.
        254    2    1    2    0    0  0.16881338556E+04  0.46636571562E+03 -0.58629039401E+03  0.20448348697E+04  0.87767894066E+03 0.  0.
         23    2    4    4    0    0  0.17086461434E+03  0.35159691136E+03  0.24809351530E+02  0.40263790813E+03  0.93202342385E+02 0.  0.
         23    2    4    4    0    0  0.15172692413E+04  0.11476880425E+03 -0.61109974554E+03  0.16421969615E+04  0.89945163852E+02 0.  0.
          2    1    3    3  502    0 -0.10370535602E+04 -0.31768743998E+03  0.59248696694E+03  0.12358989450E+04  0.00000000000E+00 0. -1.
         -1    1    3    3    0  502 -0.65108029540E+03 -0.14867827563E+03  0.41131471747E+03  0.78434085544E+03  0.00000000000E+00 0.  1.
         11    1    5    5    0    0  0.12707786189E+03  0.23949294523E+03 -0.25245194063E+02  0.27229207410E+03  0.00000000000E+00 0. -1.
        -11    1    5    5    0    0  0.43786752449E+02  0.11210396614E+03  0.50054545592E+02  0.13034583403E+03  0.00000000000E+00 0.  1.
          4    1    6    6  503    0  0.12515687667E+04  0.12807182983E+03 -0.49651288266E+03  0.13525353282E+04  0.00000000000E+00 0. -1.
         -4    1    6    6    0  503  0.26570047459E+03 -0.13303025573E+02 -0.11458686288E+03  0.28966163335E+03  0.00000000000E+00 0.  1.
<mgrwt>
<rscale>  0 0.40435772E+04</rscale>
<asrwt>0</asrwt>
<pdfrwt beam="1">  1        2 0.28058180E+00 0.40435772E+04</pdfrwt>
<pdfrwt beam="2">  1       -1 0.34481430E+00 0.40435772E+04</pdfrwt>
<totfact> 0.12591177E-01</totfact>
</mgrwt>
</event>
<event>
12    6  0.1542110E-007  0.1340703E+04  0.7818608E-02  0.8997896E-01
          2   -1    0    0  501    0  0.00000000000E+00  0.00000000000E+00  0.16274257778E+04  0.16274257778E+04  0.00000000000E+00 0. -1.
         -1   -1    0    0    0  501 -0.00000000000E+00 -0.00000000000E+00 -0.27612390219E+03  0.27612390219E+03  0.00000000000E+00 0.  1.
         24    2    1    2    0    0  0.35239835516E+03  0.26686587446E+02  0.28443378242E+03  0.46058446557E+03  0.79615944838E+02 0.  0.
        254    2    1    2    0    0 -0.35239835516E+03 -0.26686587446E+02  0.10668680932E+04  0.14429652144E+04  0.90501066681E+03 0.  0.
         23    2    4    4    0    0  0.79276297061E+01  0.27820841195E+03  0.88050189809E+03  0.92804576485E+03  0.92317827849E+02 0.  0.
         23    2    4    4    0    0 -0.36032598486E+03 -0.30489499939E+03  0.18636619507E+03  0.51491944953E+03  0.87257691994E+02 0.  0.
          4    1    3    3  502    0  0.27760754496E+03  0.22347207878E+02  0.17836161643E+03  0.33072377135E+03  0.00000000000E+00 0. -1.
         -1    1    3    3    0  502  0.74790810196E+02  0.43393795688E+01  0.10607216599E+03  0.12986069422E+03  0.00000000000E+00 0.  1.
         11    1    5    5    0    0 -0.22084500532E+02  0.74821345137E+02  0.36119842412E+03  0.36952707673E+03  0.00000000000E+00 0. -1.
        -11    1    5    5    0    0  0.30012130238E+02  0.20338706681E+03  0.51930347397E+03  0.55851868812E+03  0.00000000000E+00 0.  1.
          1    1    6    6  503    0 -0.28563816851E+03 -0.23332730247E+03  0.18225192772E+03  0.41139586598E+03  0.00000000000E+00 0.  1.
         -1    1    6    6    0  503 -0.74687816351E+02 -0.71567696921E+02  0.41142673518E+01  0.10352358354E+03  0.00000000000E+00 0. -1.
<mgrwt>
<rscale>  0 0.13407030E+04</rscale>
<asrwt>0</asrwt>
<pdfrwt beam="1">  1        2 0.25037319E+00 0.13407030E+04</pdfrwt>
<pdfrwt beam="2">  1       -1 0.42480601E-01 0.13407030E+04</pdfrwt>
<totfact> 0.65343479E+01</totfact>
</mgrwt>
</event>
<event>
12    6  0.1542110E-007  0.1330766E+04  0.7818608E-02  0.9005517E-01
         -1   -1    0    0    0  501 -0.00000000000E+00  0.00000000000E+00  0.34046215007E+03  0.34046215007E+03  0.00000000000E+00 0.  1.
          2   -1    0    0  501    0  0.00000000000E+00 -0.00000000000E+00 -0.13003922508E+04  0.13003922508E+04  0.00000000000E+00 0. -1.
         24    2    1    2    0    0  0.25522712214E+03 -0.22669013013E+03 -0.11483751531E+03  0.36912045663E+03  0.80826713457E+02 0.  0.
        254    2    1    2    0    0 -0.25522712214E+03  0.22669013013E+03 -0.84509258546E+03  0.12717339443E+04  0.88690272750E+03 0.  0.
         23    2    4    4    0    0  0.20101335398E+03 -0.33428751606E+02 -0.67757383992E+03  0.71341683659E+03  0.91287590951E+02 0.  0.
         23    2    4    4    0    0 -0.45624047612E+03  0.26011888173E+03 -0.16751874554E+03  0.55831710769E+03  0.88533936705E+02 0.  0.
          2    1    3    3  502    0  0.70223221101E+02 -0.27856706804E+02 -0.35984953658E+01  0.75632308339E+02  0.00000000000E+00 0. -1.
         -1    1    3    3    0  502  0.18500390104E+03 -0.19883342332E+03 -0.11123901994E+03  0.29348814829E+03  0.00000000000E+00 0.  1.
         11    1    5    5    0    0  0.97829269687E+02  0.49589228053E+01 -0.45095476260E+03  0.46147086022E+03  0.00000000000E+00 0.  1.
        -11    1    5    5    0    0  0.10318408430E+03 -0.38387674411E+02 -0.22661907733E+03  0.25194597637E+03  0.00000000000E+00 0. -1.
          4    1    6    6  503    0 -0.33295771997E+03  0.18300263207E+03 -0.16133416642E+03  0.41277054145E+03  0.00000000000E+00 0. -1.
         -4    1    6    6    0  503 -0.12328275615E+03  0.77116249666E+02 -0.61845791183E+01  0.14554656625E+03  0.00000000000E+00 0.  1.
<mgrwt>
<rscale>  0 0.13307657E+04</rscale>
<asrwt>0</asrwt>
<pdfrwt beam="1">  1        2 0.20006035E+00 0.13307657E+04</pdfrwt>
<pdfrwt beam="2">  1       -1 0.52378791E-01 0.13307657E+04</pdfrwt>
<totfact> 0.67630186E+01</totfact>
</mgrwt>
</event>
<event>
12    6  0.1542110E-007  0.2122141E+04  0.7818608E-02  0.8551552E-01
         -1   -1    0    0    0  501 -0.00000000000E+00  0.00000000000E+00  0.11101598653E+04  0.11101598653E+04  0.00000000000E+00 0.  1.
          2   -1    0    0  501    0  0.00000000000E+00 -0.00000000000E+00 -0.10141519284E+04  0.10141519284E+04  0.00000000000E+00 0. -1.
         24    2    1    2    0    0 -0.73366356880E+03  0.35350505501E+03 -0.23827566437E+03  0.85224621904E+03  0.79500122825E+02 0.  0.
        254    2    1    2    0    0  0.73366356880E+03 -0.35350505501E+03  0.33428360130E+03  0.12720655747E+04  0.91824683180E+03 0.  0.
         23    2    4    4    0    0  0.88199040207E+03 -0.40199497083E+03  0.10389487961E+03  0.97908835684E+03  0.91174769368E+02 0.  0.
         23    2    4    4    0    0 -0.14832683327E+03  0.48489915829E+02  0.23038872169E+03  0.29297721785E+03  0.91676418391E+02 0.  0.
          4    1    3    3  502    0 -0.70474953833E+03  0.35248448380E+03 -0.23859206142E+03  0.82331245276E+03  0.00000000000E+00 0. -1.
         -3    1    3    3    0  502 -0.28914030471E+02  0.10205712024E+01  0.31639705588E+00  0.28933766273E+02  0.00000000000E+00 0.  1.
         11    1    5    5    0    0  0.64401331690E+03 -0.32257031249E+03  0.10701697733E+03  0.72818774522E+03  0.00000000000E+00 0. -1.
        -11    1    5    5    0    0  0.23797708517E+03 -0.79424658341E+02 -0.31220977193E+01  0.25090061162E+03  0.00000000000E+00 0.  1.
          3    1    6    6  503    0 -0.15034127189E+03  0.53788626971E+02  0.17344386530E+03  0.23575090421E+03  0.00000000000E+00 0. -1.
         -3    1    6    6    0  503  0.20144386220E+01 -0.52987111419E+01  0.56944856399E+02  0.57226313641E+02  0.00000000000E+00 0.  1.
<mgrwt>
<rscale>  0 0.21221412E+04</rscale>
<asrwt>0</asrwt>
<pdfrwt beam="1">  1        2 0.15602337E+00 0.21221412E+04</pdfrwt>
<pdfrwt beam="2">  1       -1 0.17079383E+00 0.21221412E+04</pdfrwt>
<totfact> 0.62831804E+00</totfact>
</mgrwt>
</event>
<event>
12    6  0.1542110E-007  0.1489927E+04  0.7818608E-02  0.8891179E-01
         -1   -1    0    0    0  501 -0.00000000000E+00  0.00000000000E+00  0.47622357406E+03  0.47622357406E+03  0.00000000000E+00 0.  1.
          2   -1    0    0  501    0  0.00000000000E+00 -0.00000000000E+00 -0.11653568194E+04  0.11653568194E+04  0.00000000000E+00 0. -1.
         24    2    1    2    0    0 -0.74676392714E+02  0.35047509770E+03  0.16991502252E+03  0.40437099492E+03  0.78964732089E+02 0.  0.
        254    2    1    2    0    0  0.74676392714E+02 -0.35047509770E+03 -0.85904826791E+03  0.12372093986E+04  0.81505448382E+03 0.  0.
         23    2    4    4    0    0  0.30937364241E+03  0.82973781275E+02 -0.56533063338E+03  0.65605103699E+03  0.90595469586E+02 0.  0.
         23    2    4    4    0    0 -0.23469724970E+03 -0.43344887898E+03 -0.29371763454E+03  0.58115836159E+03  0.92272762520E+02 0.  0.
          2    1    3    3  502    0 -0.26937127807E+02  0.77379715209E+02  0.56610419417E+01  0.82129632754E+02  0.00000000000E+00 0. -1.
         -1    1    3    3    0  502 -0.47739264907E+02  0.27309538249E+03  0.16425398058E+03  0.32224136216E+03  0.00000000000E+00 0.  1.
         11    1    5    5    0    0  0.28423314789E+03  0.53029022912E+02 -0.45601948407E+03  0.53995771083E+03  0.00000000000E+00 0.  1.
        -11    1    5    5    0    0  0.25140494527E+02  0.29944758363E+02 -0.10931114930E+03  0.11609332617E+03  0.00000000000E+00 0. -1.
          4    1    6    6  503    0 -0.21413188988E+03 -0.33323800485E+03 -0.25838114897E+03  0.47292795676E+03  0.00000000000E+00 0. -1.
         -4    1    6    6    0  503 -0.20565359819E+02 -0.10021087412E+03 -0.35336485570E+02  0.10823040483E+03  0.00000000000E+00 0.  1.
<mgrwt>
<rscale>  0 0.14899267E+04</rscale>
<asrwt>0</asrwt>
<pdfrwt beam="1">  1        2 0.17928566E+00 0.14899267E+04</pdfrwt>
<pdfrwt beam="2">  1       -1 0.73265166E-01 0.14899267E+04</pdfrwt>
<totfact> 0.41142238E+01</totfact>
</mgrwt>
</event>
<event>
12    6  0.1542110E-007  0.2279542E+04  0.7818608E-02  0.8486032E-01
          2   -1    0    0  501    0  0.00000000000E+00  0.00000000000E+00  0.77548090711E+03  0.77548090711E+03  0.00000000000E+00 0. -1.
         -1   -1    0    0    0  501 -0.00000000000E+00 -0.00000000000E+00 -0.16751893851E+04  0.16751893851E+04  0.00000000000E+00 0.  1.
         24    2    1    2    0    0  0.21408138831E+03 -0.62369898175E+03 -0.11264130517E+04  0.13077371764E+04  0.80863456847E+02 0.  0.
        254    2    1    2    0    0 -0.21408138831E+03  0.62369898175E+03  0.22670457377E+03  0.11429331158E+04  0.90557709934E+03 0.  0.
         23    2    4    4    0    0  0.27806834589E+03  0.25200036158E+03 -0.15178524875E+03  0.41332173190E+03  0.83485957492E+02 0.  0.
         23    2    4    4    0    0 -0.49214973420E+03  0.37169862017E+03  0.37848982253E+03  0.72961138394E+03  0.93311310742E+02 0.  0.
          2    1    3    3  502    0  0.56458271477E+02 -0.15478040287E+03 -0.21676119049E+03  0.27226810910E+03  0.00000000000E+00 0. -1.
         -1    1    3    3    0  502  0.15762311683E+03 -0.46891857888E+03 -0.90965186125E+03  0.10354690673E+04  0.00000000000E+00 0.  1.
         11    1    5    5    0    0  0.20776456097E+03  0.14214120752E+03 -0.78374572251E+02  0.26365281953E+03  0.00000000000E+00 0.  1.
        -11    1    5    5    0    0  0.70303784917E+02  0.10985915406E+03 -0.73410676503E+02  0.14966891237E+03  0.00000000000E+00 0. -1.
          4    1    6    6  503    0 -0.12093012783E+03  0.48293996661E+02  0.61110134491E+02  0.14384315927E+03  0.00000000000E+00 0. -1.
         -4    1    6    6    0  503 -0.37121960636E+03  0.32340462351E+03  0.31737968803E+03  0.58576822467E+03  0.00000000000E+00 0.  1.
<mgrwt>
<rscale>  0 0.22795415E+04</rscale>
<asrwt>0</asrwt>
<pdfrwt beam="1">  1        2 0.11930476E+00 0.22795415E+04</pdfrwt>
<pdfrwt beam="2">  1       -1 0.25772144E+00 0.22795415E+04</pdfrwt>
<totfact> 0.23090442E+00</totfact>
</mgrwt>
</event>
<event>
12    6  0.1542110E-007  0.1918466E+04  0.7818608E-02  0.8645719E-01
         -1   -1    0    0    0  501 -0.00000000000E+00  0.00000000000E+00  0.23764058523E+03  0.23764058523E+03  0.00000000000E+00 0.  1.
          2   -1    0    0  501    0  0.00000000000E+00 -0.00000000000E+00 -0.38719300435E+04  0.38719300435E+04  0.00000000000E+00 0. -1.
         24    2    1    2    0    0  0.49140072107E+01 -0.40673905599E+03 -0.27492427495E+04  0.27803341033E+04  0.80381735127E+02 0.  0.
        254    2    1    2    0    0 -0.49140072107E+01  0.40673905599E+03 -0.88504670873E+03  0.13292365254E+04  0.90448950053E+03 0.  0.
         23    2    4    4    0    0  0.96959073893E+02  0.66694012979E+03 -0.72613200078E+03  0.99483029473E+03  0.90605927093E+02 0.  0.
         23    2    4    4    0    0 -0.10187308110E+03 -0.26020107380E+03 -0.15891470795E+03  0.33440623062E+03  0.92146183957E+02 0.  0.
          4    1    3    3  502    0 -0.82732991656E+01 -0.34417144029E+03 -0.24691658540E+04  0.24930508303E+04  0.00000000000E+00 0. -1.
         -3    1    3    3    0  502  0.13187306376E+02 -0.62567615699E+02 -0.28007689547E+03  0.28728327302E+03  0.00000000000E+00 0.  1.
         11    1    5    5    0    0  0.42231779057E+02  0.53498964668E+03 -0.55744738474E+03  0.77378616683E+03  0.00000000000E+00 0.  1.
        -11    1    5    5    0    0  0.54727294836E+02  0.13195048311E+03 -0.16868461604E+03  0.22104412790E+03  0.00000000000E+00 0. -1.
          3    1    6    6  503    0 -0.78665149696E+02 -0.11344384345E+03 -0.38945816906E+02  0.14343809831E+03  0.00000000000E+00 0. -1.
         -3    1    6    6    0  503 -0.23207931408E+02 -0.14675723035E+03 -0.11996889104E+03  0.19096813231E+03  0.00000000000E+00 0.  1.
<mgrwt>
<rscale>  0 0.19184658E+04</rscale>
<asrwt>0</asrwt>
<pdfrwt beam="1">  1        2 0.59568151E+00 0.19184658E+04</pdfrwt>
<pdfrwt beam="2">  1       -1 0.36560092E-01 0.19184658E+04</pdfrwt>
<totfact> 0.33365713E+00</totfact>
</mgrwt>
</event>
<event>
12    6  0.1542110E-007  0.1292812E+04  0.7818608E-02  0.9035285E-01
         -1   -1    0    0    0  501 -0.00000000000E+00  0.00000000000E+00  0.19071449084E+03  0.19071449084E+03  0.00000000000E+00 0.  1.
          2   -1    0    0  501    0  0.00000000000E+00 -0.00000000000E+00 -0.21909219687E+04  0.21909219687E+04  0.00000000000E+00 0. -1.
         24    2    1    2    0    0 -0.31846795700E+03  0.97397466235E+02 -0.58917241909E+03  0.68145240964E+03  0.79656394115E+02 0.  0.
        254    2    1    2    0    0  0.31846795700E+03 -0.97397466235E+02 -0.14110350587E+04  0.17001840499E+04  0.88808657258E+03 0.  0.
         23    2    4    4    0    0  0.36995845830E+03  0.19246589681E+03 -0.24090337651E+03  0.49023702513E+03  0.91572494183E+02 0.  0.
         23    2    4    4    0    0 -0.51490501307E+02 -0.28986336304E+03 -0.11701316822E+04  0.12099470247E+04  0.89953365558E+02 0.  0.
          4    1    3    3  502    0 -0.24701585766E+03  0.10867915088E+03 -0.47435871413E+03  0.54575102514E+03  0.00000000000E+00 0. -1.
         -3    1    3    3    0  502 -0.71452099339E+02 -0.11281684643E+02 -0.11481370496E+03  0.13570138450E+03  0.00000000000E+00 0.  1.
         11    1    5    5    0    0  0.37233785510E+03  0.18289417130E+03 -0.24208585446E+03  0.48030335952E+03  0.00000000000E+00 0.  1.
        -11    1    5    5    0    0 -0.23793968018E+01  0.95717255053E+01  0.11824779490E+01  0.99336656069E+01  0.00000000000E+00 0. -1.
          1    1    6    6  503    0  0.19660517232E+02 -0.28557669130E+02 -0.18749941071E+03  0.19067801504E+03  0.00000000000E+00 0. -1.
         -1    1    6    6    0  503 -0.71151018539E+02 -0.26130569391E+03 -0.98263227152E+03  0.10192690097E+04  0.00000000000E+00 0.  1.
<mgrwt>
<rscale>  0 0.12928118E+04</rscale>
<asrwt>0</asrwt>
<pdfrwt beam="1">  1        2 0.33706491E+00 0.12928118E+04</pdfrwt>
<pdfrwt beam="2">  1       -1 0.29340691E-01 0.12928118E+04</pdfrwt>
<totfact> 0.62051901E+01</totfact>
</mgrwt>
</event>
<event>
12    6  0.1542110E-007  0.2310594E+04  0.7818608E-02  0.8473756E-01
         -1   -1    0    0    0  501 -0.00000000000E+00  0.00000000000E+00  0.10875138814E+04  0.10875138814E+04  0.00000000000E+00 0.  1.
          2   -1    0    0  501    0  0.00000000000E+00 -0.00000000000E+00 -0.12273048091E+04  0.12273048091E+04  0.00000000000E+00 0. -1.
         24    2    1    2    0    0 -0.98225507092E+02 -0.53886829838E+03  0.75376828062E+03  0.93491419073E+03  0.76620035975E+02 0.  0.
        254    2    1    2    0    0  0.98225507092E+02  0.53886829838E+03 -0.89355920834E+03  0.13799044998E+04  0.89758625014E+03 0.  0.
         23    2    4    4    0    0 -0.25230640770E+03  0.54373882425E+03 -0.28114531357E+03  0.66894586006E+03  0.95579516562E+02 0.  0.
         23    2    4    4    0    0  0.35053191479E+03 -0.48705258673E+01 -0.61241389477E+03  0.71095863971E+03  0.86689466311E+02 0.  0.
          2    1    3    3  502    0 -0.25459256828E+02 -0.31822703752E+02  0.51330337972E+02  0.65541298650E+02  0.00000000000E+00 0. -1.
         -1    1    3    3    0  502 -0.72766250264E+02 -0.50704559463E+03  0.70243794265E+03  0.86937289208E+03  0.00000000000E+00 0.  1.
         11    1    5    5    0    0 -0.16205942619E+03  0.42321016225E+03 -0.18032049360E+03  0.48773515299E+03  0.00000000000E+00 0.  1.
        -11    1    5    5    0    0 -0.90246981511E+02  0.12052866200E+03 -0.10082481997E+03  0.18121070707E+03  0.00000000000E+00 0. -1.
          3    1    6    6  503    0  0.83413076034E+02  0.61478813323E+01 -0.82796899540E+02  0.11768969484E+03  0.00000000000E+00 0. -1.
         -3    1    6    6    0  503  0.26711883876E+03 -0.11018407200E+02 -0.52961699522E+03  0.59326894487E+03  0.00000000000E+00 0.  1.
<mgrwt>
<rscale>  0 0.23105939E+04</rscale>
<asrwt>0</asrwt>
<pdfrwt beam="1">  1        2 0.18881612E+00 0.23105939E+04</pdfrwt>
<pdfrwt beam="2">  1       -1 0.16730983E+00 0.23105939E+04</pdfrwt>
<totfact> 0.48521933E+00</totfact>
</mgrwt>
</event>
<event>
12    6  0.1542110E-007  0.2413505E+04  0.7818608E-02  0.8434465E-01
         -1   -1    0    0    0  501 -0.00000000000E+00  0.00000000000E+00  0.29868934215E+03  0.29868934215E+03  0.00000000000E+00 0.  1.
          2   -1    0    0  501    0  0.00000000000E+00 -0.00000000000E+00 -0.48754713391E+04  0.48754713391E+04  0.00000000000E+00 0. -1.
         24    2    1    2    0    0 -0.41726885888E+03 -0.61321796242E+03 -0.35102037076E+04  0.35885895688E+04  0.79343899707E+02 0.  0.
        254    2    1    2    0    0  0.41726885888E+03  0.61321796242E+03 -0.10665782894E+04  0.15855711125E+04  0.90900876526E+03 0.  0.
         23    2    4    4    0    0  0.30448888615E+03  0.71480539740E+03 -0.36740787904E+03  0.86405589671E+03  0.89128026479E+02 0.  0.
         23    2    4    4    0    0  0.11277997273E+03 -0.10158743498E+03 -0.69917041031E+03  0.72151521576E+03  0.93303883716E+02 0.  0.
          2    1    3    3  502    0 -0.38901243157E+03 -0.54346710781E+03 -0.32324427776E+04  0.33008140632E+04  0.00000000000E+00 0. -1.
         -1    1    3    3    0  502 -0.28256427305E+02 -0.69750854610E+02 -0.27776092996E+03  0.28777550558E+03  0.00000000000E+00 0.  1.
         11    1    5    5    0    0  0.94216500441E+02  0.17295150294E+03 -0.13131642774E+03  0.23671285457E+03  0.00000000000E+00 0. -1.
        -11    1    5    5    0    0  0.21027238570E+03  0.54185389446E+03 -0.23609145130E+03  0.62734304213E+03  0.00000000000E+00 0.  1.
          2    1    6    6  503    0  0.89596886484E+02 -0.11908280783E+03 -0.59391630191E+03  0.61232743762E+03  0.00000000000E+00 0.  1.
         -2    1    6    6    0  503  0.23183086250E+02  0.17495372844E+02 -0.10525410841E+03  0.10918777814E+03  0.00000000000E+00 0. -1.
<mgrwt>
<rscale>  0 0.24135048E+04</rscale>
<asrwt>0</asrwt>
<pdfrwt beam="1">  1        2 0.75007259E+00 0.24135048E+04</pdfrwt>
<pdfrwt beam="2">  1       -1 0.45952202E-01 0.24135048E+04</pdfrwt>
<totfact> 0.23688079E-01</totfact>
</mgrwt>
</event>
<event>
12    6  0.1542110E-007  0.1682047E+04  0.7818608E-02  0.8771670E-01
         -1   -1    0    0    0  501 -0.00000000000E+00  0.00000000000E+00  0.85962708427E+03  0.85962708427E+03  0.00000000000E+00 0.  1.
          2   -1    0    0  501    0  0.00000000000E+00 -0.00000000000E+00 -0.82282299803E+03  0.82282299803E+03  0.00000000000E+00 0. -1.
         24    2    1    2    0    0 -0.40668184030E+03  0.39763782784E+03  0.19333702760E+03  0.60514067800E+03  0.72870244691E+02 0.  0.
        254    2    1    2    0    0  0.40668184030E+03 -0.39763782784E+03 -0.15653294135E+03  0.10773094043E+04  0.90143609286E+03 0.  0.
         23    2    4    4    0    0 -0.11766908249E+03  0.19813216221E+03 -0.12078391428E+03  0.27771719798E+03  0.97137641665E+02 0.  0.
         23    2    4    4    0    0  0.52435092279E+03 -0.59576999006E+03 -0.35749027073E+02  0.79959220633E+03  0.90465088274E+02 0.  0.
          4    1    3    3  502    0 -0.74942028172E+02  0.53535435876E+02  0.78312083907E+01  0.92432019916E+02  0.00000000000E+00 0. -1.
         -3    1    3    3    0  502 -0.33173981213E+03  0.34410239197E+03  0.18550581921E+03  0.51270865808E+03  0.00000000000E+00 0.  1.
         11    1    5    5    0    0 -0.52215020376E+02  0.13253597128E+03 -0.25337110223E+02  0.14468642366E+03  0.00000000000E+00 0. -1.
        -11    1    5    5    0    0 -0.65454062116E+02  0.65596190926E+02 -0.95446804055E+02  0.13303077432E+03  0.00000000000E+00 0.  1.
          3    1    6    6  503    0  0.27653875792E+03 -0.38103859905E+03 -0.26547325586E+02  0.47156002703E+03  0.00000000000E+00 0. -1.
         -3    1    6    6    0  503  0.24781216488E+03 -0.21473139100E+03 -0.92017014872E+01  0.32803217930E+03  0.00000000000E+00 0.  1.
<mgrwt>
<rscale>  0 0.16820475E+04</rscale>
<asrwt>0</asrwt>
<pdfrwt beam="1">  1        2 0.12658815E+00 0.16820475E+04</pdfrwt>
<pdfrwt beam="2">  1       -1 0.13225032E+00 0.16820475E+04</pdfrwt>
<totfact> 0.17521450E+01</totfact>
</mgrwt>
</event>
<event>
12    6  0.1542110E-007  0.1862835E+04  0.7818608E-02  0.8673580E-01
          2   -1    0    0  501    0  0.00000000000E+00  0.00000000000E+00  0.16223394909E+04  0.16223394909E+04  0.00000000000E+00 0. -1.
         -1   -1    0    0    0  501 -0.00000000000E+00 -0.00000000000E+00 -0.53474563033E+03  0.53474563033E+03  0.00000000000E+00 0.  1.
         24    2    1    2    0    0 -0.10958572711E+03 -0.29148339189E+03  0.11586565718E+04  0.12027322973E+04  0.84310901984E+02 0.  0.
        254    2    1    2    0    0  0.10958572711E+03  0.29148339189E+03 -0.71062711233E+02  0.95435282395E+03  0.89931518631E+03 0.  0.
         23    2    4    4    0    0 -0.32882918434E+03  0.11563584561E+03  0.19039813635E+03  0.40704963013E+03  0.89093601344E+02 0.  0.
         23    2    4    4    0    0  0.43841491145E+03  0.17584754628E+03 -0.26146084759E+03  0.54730319381E+03  0.89716314136E+02 0.  0.
          4    1    3    3  502    0 -0.36449448412E+02 -0.20834015114E+03  0.78768664701E+03  0.81558839787E+03  0.00000000000E+00 0. -1.
         -3    1    3    3    0  502 -0.73136278696E+02 -0.83143240751E+02  0.37096992481E+03  0.38714389942E+03  0.00000000000E+00 0.  1.
         11    1    5    5    0    0 -0.22103534303E+03  0.68506781583E+02  0.77621762626E+02  0.24407978209E+03  0.00000000000E+00 0.  1.
        -11    1    5    5    0    0 -0.10779384131E+03  0.47129064024E+02  0.11277637373E+03  0.16296984805E+03  0.00000000000E+00 0. -1.
          1    1    6    6  503    0  0.14082174307E+03  0.75255272783E+02 -0.45261627037E+02  0.16596003821E+03  0.00000000000E+00 0.  1.
         -1    1    6    6    0  503  0.29759316839E+03  0.10059227350E+03 -0.21619922055E+03  0.38134315560E+03  0.00000000000E+00 0. -1.
<mgrwt>
<rscale>  0 0.18628354E+04</rscale>
<asrwt>0</asrwt>
<pdfrwt beam="1">  1        2 0.24959069E+00 0.18628354E+04</pdfrwt>
<pdfrwt beam="2">  1       -1 0.82268560E-01 0.18628354E+04</pdfrwt>
<totfact> 0.17035150E+01</totfact>
</mgrwt>
</event>
<event>
12    6  0.1542110E-007  0.1241465E+04  0.7818608E-02  0.9077317E-01
          2   -1    0    0  501    0  0.00000000000E+00  0.00000000000E+00  0.10594664883E+04  0.10594664883E+04  0.00000000000E+00 0. -1.
         -1   -1    0    0    0  501 -0.00000000000E+00 -0.00000000000E+00 -0.36368168764E+03  0.36368168764E+03  0.00000000000E+00 0.  1.
         24    2    1    2    0    0  0.35547115594E+03  0.19065321060E+03  0.24628689627E+03  0.47963948473E+03  0.81782703679E+02 0.  0.
        254    2    1    2    0    0 -0.35547115594E+03 -0.19065321060E+03  0.44949790437E+03  0.94350869118E+03  0.72488060733E+03 0.  0.
         23    2    4    4    0    0 -0.34452993959E+03  0.76840879484E+02  0.53580677455E+03  0.64806468675E+03  0.91068866936E+02 0.  0.
         23    2    4    4    0    0 -0.10941216350E+02 -0.26749409008E+03 -0.86308870179E+02  0.29544400443E+03  0.90361165548E+02 0.  0.
          4    1    3    3  502    0  0.95440219364E+02  0.12511080581E+02  0.62603831433E+02  0.11482422357E+03  0.00000000000E+00 0. -1.
         -3    1    3    3    0  502  0.26003093658E+03  0.17814213002E+03  0.18368306484E+03  0.36481526116E+03  0.00000000000E+00 0.  1.
         11    1    5    5    0    0 -0.32690401329E+03  0.50409656169E+02  0.46694780927E+03  0.57223039409E+03  0.00000000000E+00 0. -1.
        -11    1    5    5    0    0 -0.17625926304E+02  0.26431223315E+02  0.68858965275E+02  0.75834292656E+02  0.00000000000E+00 0.  1.
          4    1    6    6  503    0 -0.29898037144E+02 -0.18578240290E+03 -0.95572234164E+02  0.21105223476E+03  0.00000000000E+00 0. -1.
         -4    1    6    6    0  503  0.18956820794E+02 -0.81711687180E+02  0.92633639850E+01  0.84391769674E+02  0.00000000000E+00 0.  1.
<mgrwt>
<rscale>  0 0.12414646E+04</rscale>
<asrwt>0</asrwt>
<pdfrwt beam="1">  1        2 0.16299484E+00 0.12414646E+04</pdfrwt>
<pdfrwt beam="2">  1       -1 0.55951029E-01 0.12414646E+04</pdfrwt>
<totfact> 0.83731296E+01</totfact>
</mgrwt>
</event>
<event>
12    6  0.1542110E-007  0.1156500E+04  0.7818608E-02  0.9151808E-01
         -1   -1    0    0    0  501 -0.00000000000E+00  0.00000000000E+00  0.16204383250E+04  0.16204383250E+04  0.00000000000E+00 0.  1.
          2   -1    0    0  501    0  0.00000000000E+00 -0.00000000000E+00 -0.20634720161E+03  0.20634720161E+03  0.00000000000E+00 0. -1.
         24    2    1    2    0    0  0.10986636280E+03  0.32013523509E+01  0.47065786297E+03  0.49015450813E+03  0.81558270787E+02 0.  0.
        254    2    1    2    0    0 -0.10986636280E+03 -0.32013523509E+01  0.94343326042E+03  0.13366310185E+04  0.94044420161E+03 0.  0.
         23    2    4    4    0    0  0.13171669580E+03  0.23243362885E+03 -0.47348953073E+02  0.28571021824E+03  0.89519415071E+02 0.  0.
         23    2    4    4    0    0 -0.24158305860E+03 -0.23563498120E+03  0.99078221349E+03  0.10509208002E+04  0.94334061823E+02 0.  0.
          2    1    3    3  502    0  0.44484368496E+02  0.38081097650E+02  0.14952641941E+03  0.16058386949E+03  0.00000000000E+00 0. -1.
         -1    1    3    3    0  502  0.65381994305E+02 -0.34879745300E+02  0.32113144356E+03  0.32957063864E+03  0.00000000000E+00 0.  1.
         11    1    5    5    0    0  0.62533709818E+02  0.10481497372E+03  0.23316887059E+02  0.12425908740E+03  0.00000000000E+00 0. -1.
        -11    1    5    5    0    0  0.69182985984E+02  0.12761865513E+03 -0.70665840131E+02  0.16145113083E+03  0.00000000000E+00 0.  1.
          3    1    6    6  503    0 -0.52103893300E+02 -0.19316314796E+02  0.94410708245E+02  0.10955052508E+03  0.00000000000E+00 0. -1.
         -3    1    6    6    0  503 -0.18947916530E+03 -0.21631866641E+03  0.89637150525E+03  0.94137027515E+03  0.00000000000E+00 0.  1.
<mgrwt>
<rscale>  0 0.11564997E+04</rscale>
<asrwt>0</asrwt>
<pdfrwt beam="1">  1        2 0.31745724E-01 0.11564997E+04</pdfrwt>
<pdfrwt beam="2">  1       -1 0.24929820E+00 0.11564997E+04</pdfrwt>
<totfact> 0.13401666E+01</totfact>
</mgrwt>
</event>
<event>
12    6  0.1542110E-007  0.1565534E+04  0.7818608E-02  0.8842006E-01
          2   -1    0    0  501    0  0.00000000000E+00  0.00000000000E+00  0.14979050459E+04  0.14979050459E+04  0.00000000000E+00 0. -1.
         -1   -1    0    0    0  501 -0.00000000000E+00 -0.00000000000E+00 -0.40905385014E+03  0.40905385014E+03  0.00000000000E+00 0.  1.
         24    2    1    2    0    0  0.34099370127E+03  0.34662647234E+03  0.14558680097E+03  0.51383621213E+03  0.80034496570E+02 0.  0.
        254    2    1    2    0    0 -0.34099370127E+03 -0.34662647234E+03  0.94326439481E+03  0.13931226839E+04  0.90256106627E+03 0.  0.
         23    2    4    4    0    0 -0.37362022739E+03 -0.60969784889E+03  0.80591734412E+03  0.10812461868E+04  0.90923097509E+02 0.  0.
         23    2    4    4    0    0  0.32626526117E+02  0.26307137654E+03  0.13734705069E+03  0.31187649713E+03  0.90175926773E+02 0.  0.
          2    1    3    3  502    0  0.22765942292E+02  0.57865708539E+02  0.28856933167E+02  0.68552541491E+02  0.00000000000E+00 0. -1.
         -1    1    3    3    0  502  0.31822775898E+03  0.28876076381E+03  0.11672986780E+03  0.44528367064E+03  0.00000000000E+00 0.  1.
         11    1    5    5    0    0 -0.26561675581E+03 -0.45548569149E+03  0.64871933288E+03  0.83597622512E+03  0.00000000000E+00 0. -1.
        -11    1    5    5    0    0 -0.10800347158E+03 -0.15421215740E+03  0.15719801124E+03  0.24526996168E+03  0.00000000000E+00 0.  1.
          4    1    6    6  503    0  0.45101711888E+02  0.14898349672E+03  0.11835950005E+03  0.19554850539E+03  0.00000000000E+00 0.  1.
         -4    1    6    6    0  503 -0.12475185771E+02  0.11408787983E+03  0.18987550635E+02  0.11632799174E+03  0.00000000000E+00 0. -1.
<mgrwt>
<rscale>  0 0.15655336E+04</rscale>
<asrwt>0</asrwt>
<pdfrwt beam="1">  1        2 0.23044693E+00 0.15655336E+04</pdfrwt>
<pdfrwt beam="2">  1       -1 0.62931362E-01 0.15655336E+04</pdfrwt>
<totfact> 0.35712734E+01</totfact>
</mgrwt>
</event>
<event>
12    6  0.1542110E-007  0.1910621E+04  0.7818608E-02  0.8649588E-01
          2   -1    0    0  501    0  0.00000000000E+00  0.00000000000E+00  0.24211922908E+04  0.24211922908E+04  0.00000000000E+00 0. -1.
         -1   -1    0    0    0  501 -0.00000000000E+00 -0.00000000000E+00 -0.37692908151E+03  0.37692908151E+03  0.00000000000E+00 0.  1.
         24    2    1    2    0    0 -0.33842639011E+03 -0.65939753071E+03  0.77674411183E+03  0.10766715077E+04  0.80948102544E+02 0.  0.
        254    2    1    2    0    0  0.33842639011E+03  0.65939753071E+03  0.12675190974E+04  0.17214498645E+04  0.89858079700E+03 0.  0.
         23    2    4    4    0    0 -0.40511302348E+02  0.70230712023E+03  0.52691310865E+03  0.88367370254E+03  0.91462187493E+02 0.  0.
         23    2    4    4    0    0  0.37893769246E+03 -0.42909589522E+02  0.74060598879E+03  0.83777616201E+03  0.89087930513E+02 0.  0.
          4    1    3    3  502    0 -0.20365991359E+03 -0.47122274313E+03  0.55777042499E+03  0.75804754537E+03  0.00000000000E+00 0. -1.
         -3    1    3    3    0  502 -0.13476647652E+03 -0.18817478758E+03  0.21897368685E+03  0.31862396238E+03  0.00000000000E+00 0.  1.
         11    1    5    5    0    0  0.15972634822E+02  0.23319540403E+03  0.13599284440E+03  0.27042425048E+03  0.00000000000E+00 0.  1.
        -11    1    5    5    0    0 -0.56483937170E+02  0.46911171620E+03  0.39092026426E+03  0.61324945205E+03  0.00000000000E+00 0. -1.
          1    1    6    6  503    0  0.61575712863E+02  0.13971646035E+02  0.73895330816E+02  0.97197197613E+02  0.00000000000E+00 0. -1.
         -1    1    6    6    0  503  0.31736197959E+03 -0.56881235558E+02  0.66671065798E+03  0.74057896440E+03  0.00000000000E+00 0.  1.
<mgrwt>
<rscale>  0 0.19106206E+04</rscale>
<asrwt>0</asrwt>
<pdfrwt beam="1">  1        2 0.37249111E+00 0.19106206E+04</pdfrwt>
<pdfrwt beam="2">  1       -1 0.57989091E-01 0.19106206E+04</pdfrwt>
<totfact> 0.12414348E+01</totfact>
</mgrwt>
</event>
<event>
12    6  0.1542110E-007  0.1368961E+04  0.7818608E-02  0.8976597E-01
          2   -1    0    0  501    0  0.00000000000E+00  0.00000000000E+00  0.66548017271E+03  0.66548017271E+03  0.00000000000E+00 0. -1.
         -1   -1    0    0    0  501 -0.00000000000E+00 -0.00000000000E+00 -0.70402378570E+03  0.70402378570E+03  0.00000000000E+00 0.  1.
         24    2    1    2    0    0  0.25732781394E+03  0.25051707470E+03 -0.21562785596E+03  0.42803318860E+03  0.87980848654E+02 0.  0.
        254    2    1    2    0    0 -0.25732781394E+03 -0.25051707470E+03  0.17708424297E+03  0.94147076980E+03  0.85207509806E+03 0.  0.
         23    2    4    4    0    0  0.13802372392E+03  0.23664981505E+03  0.21627991325E+02  0.28868483562E+03  0.88416519818E+02 0.  0.
         23    2    4    4    0    0 -0.39535153786E+03 -0.48716688976E+03  0.15545625164E+03  0.65278593419E+03  0.91260137704E+02 0.  0.
          2    1    3    3  502    0  0.67389227892E+02  0.85435850504E+02 -0.11117516973E+03  0.15556513412E+03  0.00000000000E+00 0. -1.
         -1    1    3    3    0  502  0.18993858605E+03  0.16508122420E+03 -0.10445268623E+03  0.27246805449E+03  0.00000000000E+00 0.  1.
         11    1    5    5    0    0  0.10179019867E+03  0.22914837521E+03  0.15908483086E+02  0.25124351184E+03  0.00000000000E+00 0. -1.
        -11    1    5    5    0    0  0.36233525244E+02  0.75014398380E+01  0.57195082394E+01  0.37441323771E+02  0.00000000000E+00 0.  1.
          3    1    6    6  503    0 -0.20558225906E+03 -0.24497606132E+03  0.32539732069E+02  0.32145943760E+03  0.00000000000E+00 0. -1.
         -3    1    6    6    0  503 -0.18976927880E+03 -0.24219082843E+03  0.12291651957E+03  0.33132649658E+03  0.00000000000E+00 0.  1.
<mgrwt>
<rscale>  0 0.13689615E+04</rscale>
<asrwt>0</asrwt>
<pdfrwt beam="1">  1        2 0.10238157E+00 0.13689615E+04</pdfrwt>
<pdfrwt beam="2">  1       -1 0.10831135E+00 0.13689615E+04</pdfrwt>
<totfact> 0.38535566E+01</totfact>
</mgrwt>
</event>
<event>
12    6  0.1542110E-007  0.1528196E+04  0.7818608E-02  0.8865916E-01
         -1   -1    0    0    0  501 -0.00000000000E+00  0.00000000000E+00  0.40324221527E+03  0.40324221527E+03  0.00000000000E+00 0.  1.
          2   -1    0    0  501    0  0.00000000000E+00 -0.00000000000E+00 -0.14478791732E+04  0.14478791732E+04  0.00000000000E+00 0. -1.
         24    2    1    2    0    0  0.21131543873E+03  0.28456147747E+03 -0.80792526850E+03  0.88572528840E+03  0.78336440571E+02 0.  0.
        254    2    1    2    0    0 -0.21131543873E+03 -0.28456147747E+03 -0.23671168939E+03  0.96539610004E+03  0.86621461369E+03 0.  0.
         23    2    4    4    0    0 -0.13045850555E+03 -0.31374263766E+02  0.31003112611E+03  0.35065219837E+03  0.93988823622E+02 0.  0.
         23    2    4    4    0    0 -0.80856933179E+02 -0.25318721371E+03 -0.54674281550E+03  0.61474390168E+03  0.91327703975E+02 0.  0.
          2    1    3    3  502    0  0.14113431820E+03  0.12445553549E+03 -0.41502471809E+03  0.45569023768E+03  0.00000000000E+00 0. -1.
         -1    1    3    3    0  502  0.70181120525E+02  0.16010594198E+03 -0.39290055040E+03  0.43003505072E+03  0.00000000000E+00 0.  1.
         11    1    5    5    0    0 -0.27237949131E+02 -0.14235728180E+02  0.18536311353E+03  0.18789370848E+03  0.00000000000E+00 0.  1.
        -11    1    5    5    0    0 -0.10322055642E+03 -0.17138535586E+02  0.12466801258E+03  0.16275848989E+03  0.00000000000E+00 0. -1.
          1    1    6    6  503    0 -0.18588575049E+02 -0.18279212141E+03 -0.31500330505E+03  0.36467187575E+03  0.00000000000E+00 0. -1.
         -1    1    6    6    0  503 -0.62268358131E+02 -0.70395092298E+02 -0.23173951046E+03  0.25007202592E+03  0.00000000000E+00 0.  1.
<mgrwt>
<rscale>  0 0.15281963E+04</rscale>
<asrwt>0</asrwt>
<pdfrwt beam="1">  1        2 0.22275064E+00 0.15281963E+04</pdfrwt>
<pdfrwt beam="2">  1       -1 0.62037264E-01 0.15281963E+04</pdfrwt>
<totfact> 0.39344733E+01</totfact>
</mgrwt>
</event>
<event>
12    6  0.1542110E-007  0.1373046E+04  0.7818608E-02  0.8973564E-01
          2   -1    0    0  501    0  0.00000000000E+00  0.00000000000E+00  0.16480795245E+04  0.16480795245E+04  0.00000000000E+00 0. -1.
         -1   -1    0    0    0  501 -0.00000000000E+00 -0.00000000000E+00 -0.28597765362E+03  0.28597765362E+03  0.00000000000E+00 0.  1.
         24    2    1    2    0    0  0.16219255825E+03  0.31675917956E+03  0.50184685413E+03  0.62020903825E+03  0.78525042708E+02 0.  0.
        254    2    1    2    0    0 -0.16219255825E+03 -0.31675917956E+03  0.86025501673E+03  0.13138481399E+04  0.92710055389E+03 0.  0.
         23    2    4    4    0    0 -0.14929357155E+03 -0.52176797078E+03  0.92844414771E+03  0.10789906863E+04  0.87646904121E+02 0.  0.
         23    2    4    4    0    0 -0.12898986703E+02  0.20500879122E+03 -0.68189130987E+02  0.23485745359E+03  0.91177176885E+02 0.  0.
          4    1    3    3  502    0  0.15274543514E+03  0.30140695553E+03  0.49793851833E+03  0.60176414718E+03  0.00000000000E+00 0. -1.
         -3    1    3    3    0  502  0.94471231139E+01  0.15352224024E+02  0.39083358066E+01  0.18444891065E+02  0.00000000000E+00 0.  1.
         11    1    5    5    0    0 -0.22838684652E+02 -0.21876594955E+02  0.33096217600E+02  0.45777183649E+02  0.00000000000E+00 0. -1.
        -11    1    5    5    0    0 -0.12645488690E+03 -0.49989137582E+03  0.89534793011E+03  0.10332135026E+04  0.00000000000E+00 0.  1.
          3    1    6    6  503    0 -0.34617529422E+02  0.59422748018E+02 -0.53107303677E+02  0.86889711872E+02  0.00000000000E+00 0. -1.
         -3    1    6    6    0  503  0.21718542719E+02  0.14558604320E+03 -0.15081827310E+02  0.14796774171E+03  0.00000000000E+00 0.  1.
<mgrwt>
<rscale>  0 0.13730461E+04</rscale>
<asrwt>0</asrwt>
<pdfrwt beam="1">  1        2 0.25355069E+00 0.13730461E+04</pdfrwt>
<pdfrwt beam="2">  1       -1 0.43996563E-01 0.13730461E+04</pdfrwt>
<totfact> 0.59484578E+01</totfact>
</mgrwt>
</event>
<event>
12    6  0.1542110E-007  0.2304556E+04  0.7818608E-02  0.8476127E-01
         -1   -1    0    0    0  501 -0.00000000000E+00  0.00000000000E+00  0.11094740935E+04  0.11094740935E+04  0.00000000000E+00 0.  1.
          2   -1    0    0  501    0  0.00000000000E+00 -0.00000000000E+00 -0.11967327901E+04  0.11967327901E+04  0.00000000000E+00 0. -1.
         24    2    1    2    0    0  0.18755954607E+03 -0.13268239706E+03  0.91112740661E+03  0.94308123206E+03  0.80410555232E+02 0.  0.
        254    2    1    2    0    0 -0.18755954607E+03  0.13268239706E+03 -0.99838610318E+03  0.13631256515E+04  0.89919604593E+03 0.  0.
         23    2    4    4    0    0  0.34280242293E+02 -0.16604560086E+03 -0.95862893745E+03  0.97755933513E+03  0.88918712343E+02 0.  0.
         23    2    4    4    0    0 -0.22183978836E+03  0.29872799792E+03 -0.39757165731E+02  0.38556631640E+03  0.92894798956E+02 0.  0.
          2    1    3    3  502    0  0.34088149200E+02  0.82229598576E+01  0.13115165203E+03  0.13575851655E+03  0.00000000000E+00 0. -1.
         -1    1    3    3    0  502  0.15347139687E+03 -0.14090535692E+03  0.77997575457E+03  0.80732271552E+03  0.00000000000E+00 0.  1.
         11    1    5    5    0    0 -0.91304744612E+00 -0.79383930108E+02 -0.65650685958E+03  0.66128957250E+03  0.00000000000E+00 0.  1.
        -11    1    5    5    0    0  0.35193289739E+02 -0.86661670750E+02 -0.30212207787E+03  0.31626976264E+03  0.00000000000E+00 0. -1.
          1    1    6    6  503    0 -0.47541531196E+02  0.87345534548E+02  0.28047962014E+02  0.10332534910E+03  0.00000000000E+00 0. -1.
         -1    1    6    6    0  503 -0.17429825717E+03  0.21138246337E+03 -0.67805127745E+02  0.28224096730E+03  0.00000000000E+00 0.  1.
<mgrwt>
<rscale>  0 0.23045555E+04</rscale>
<asrwt>0</asrwt>
<pdfrwt beam="1">  1        2 0.18411274E+00 0.23045555E+04</pdfrwt>
<pdfrwt beam="2">  1       -1 0.17068832E+00 0.23045555E+04</pdfrwt>
<totfact> 0.47806052E+00</totfact>
</mgrwt>
</event>
<event>
12    6  0.1542110E-007  0.1594201E+04  0.7818608E-02  0.8824118E-01
         -1   -1    0    0    0  501 -0.00000000000E+00  0.00000000000E+00  0.55795912588E+03  0.55795912588E+03  0.00000000000E+00 0.  1.
          2   -1    0    0  501    0  0.00000000000E+00 -0.00000000000E+00 -0.11387384231E+04  0.11387384231E+04  0.00000000000E+00 0. -1.
         24    2    1    2    0    0 -0.41698744999E+03 -0.32947232037E+03 -0.24983878332E+03  0.59305229642E+03  0.82831547703E+02 0.  0.
        254    2    1    2    0    0  0.41698744999E+03  0.32947232037E+03 -0.33094051385E+03  0.11036452525E+04  0.90888980430E+03 0.  0.
         23    2    4    4    0    0 -0.23276015031E+03 -0.85225888626E+02 -0.14515405012E+02  0.26448694669E+03  0.91114808471E+02 0.  0.
         23    2    4    4    0    0  0.64974760030E+03  0.41469820900E+03 -0.31642510883E+03  0.83915830582E+03  0.99575419079E+02 0.  0.
          4    1    3    3  502    0 -0.36222901787E+03 -0.28816463985E+03 -0.18438983078E+03  0.49824525160E+03  0.00000000000E+00 0. -1.
         -3    1    3    3    0  502 -0.54758432115E+02 -0.41307680522E+02 -0.65448952540E+02  0.94807044814E+02  0.00000000000E+00 0.  1.
         11    1    5    5    0    0 -0.36690691239E+02 -0.54233869911E+02 -0.68311763841E+01  0.65834523162E+02  0.00000000000E+00 0. -1.
        -11    1    5    5    0    0 -0.19606945907E+03 -0.30992018715E+02 -0.76842286283E+01  0.19865242353E+03  0.00000000000E+00 0.  1.
          1    1    6    6  503    0  0.19744435929E+03  0.17542650277E+03 -0.84020623195E+02  0.27716096048E+03  0.00000000000E+00 0.  1.
         -1    1    6    6    0  503  0.45230324101E+03  0.23927170623E+03 -0.23240448564E+03  0.56199734534E+03  0.00000000000E+00 0. -1.
<mgrwt>
<rscale>  0 0.15942014E+04</rscale>
<asrwt>0</asrwt>
<pdfrwt beam="1">  1        2 0.17519053E+00 0.15942014E+04</pdfrwt>
<pdfrwt beam="2">  1       -1 0.85839866E-01 0.15942014E+04</pdfrwt>
<totfact> 0.30246441E+01</totfact>
</mgrwt>
</event>
<event>
12    6  0.1542110E-007  0.1528650E+04  0.7818608E-02  0.8865622E-01
         -1   -1    0    0    0  501 -0.00000000000E+00  0.00000000000E+00  0.28756609048E+03  0.28756609048E+03  0.00000000000E+00 0.  1.
          2   -1    0    0  501    0  0.00000000000E+00 -0.00000000000E+00 -0.20315063199E+04  0.20315063199E+04  0.00000000000E+00 0. -1.
         24    2    1    2    0    0 -0.44551239046E+03  0.21155117589E+03 -0.58332311310E+03  0.76803257611E+03  0.79831031597E+02 0.  0.
        254    2    1    2    0    0  0.44551239046E+03 -0.21155117589E+03 -0.11606171164E+04  0.15510398343E+04  0.90302673646E+03 0.  0.
         23    2    4    4    0    0 -0.24294638968E+03 -0.15025000694E+03 -0.18741115354E+03  0.35385375835E+03  0.92149492548E+02 0.  0.
         23    2    4    4    0    0  0.68845878015E+03 -0.61301168949E+02 -0.97320596281E+03  0.11971860760E+04  0.91604198303E+02 0.  0.
          4    1    3    3  502    0 -0.41957571118E+03  0.17507832741E+03 -0.53727934233E+03  0.70382191628E+03  0.00000000000E+00 0. -1.
         -3    1    3    3    0  502 -0.25936679285E+02  0.36472848483E+02 -0.46043770772E+02  0.64210659829E+02  0.00000000000E+00 0.  1.
         11    1    5    5    0    0  0.73814209858E+01  0.60275954453E+00 -0.80490966453E+01  0.10937854069E+02  0.00000000000E+00 0. -1.
        -11    1    5    5    0    0 -0.25032781067E+03 -0.15085276648E+03 -0.17936205690E+03  0.34291590428E+03  0.00000000000E+00 0.  1.
          3    1    6    6  503    0  0.36277676590E+03 -0.41299319325E+02 -0.59047389705E+03  0.69424206063E+03  0.00000000000E+00 0. -1.
         -3    1    6    6    0  503  0.32568201425E+03 -0.20001849624E+02 -0.38273206576E+03  0.50294401533E+03  0.00000000000E+00 0.  1.
<mgrwt>
<rscale>  0 0.15286495E+04</rscale>
<asrwt>0</asrwt>
<pdfrwt beam="1">  1        2 0.31253944E+00 0.15286495E+04</pdfrwt>
<pdfrwt beam="2">  1       -1 0.44240937E-01 0.15286495E+04</pdfrwt>
<totfact> 0.35638746E+01</totfact>
</mgrwt>
</event>
<event>
12    6  0.1542110E-007  0.1354869E+04  0.7818608E-02  0.8987151E-01
         -1   -1    0    0    0  501 -0.00000000000E+00  0.00000000000E+00  0.21318371382E+03  0.21318371382E+03  0.00000000000E+00 0.  1.
          2   -1    0    0  501    0  0.00000000000E+00 -0.00000000000E+00 -0.21526849509E+04  0.21526849509E+04  0.00000000000E+00 0. -1.
         24    2    1    2    0    0 -0.32219174268E+02  0.25935555982E+03 -0.62159737766E+02  0.28071146535E+03  0.81435325137E+02 0.  0.
        254    2    1    2    0    0  0.32219174268E+02 -0.25935555982E+03 -0.18773414993E+04  0.20851571994E+04  0.86900291107E+03 0.  0.
         23    2    4    4    0    0 -0.22399747972E+03  0.23293137304E+03 -0.56199437714E+03  0.65459156970E+03  0.90667236248E+02 0.  0.
         23    2    4    4    0    0  0.25621665398E+03 -0.49228693286E+03 -0.13153471222E+04  0.14305656297E+04  0.91578222981E+02 0.  0.
          2    1    3    3  502    0 -0.22620918169E+02  0.15126044777E+03 -0.76912677377E+02  0.17119284138E+03  0.00000000000E+00 0. -1.
         -1    1    3    3    0  502 -0.95982560988E+01  0.10809511205E+03  0.14752939611E+02  0.10951862397E+03  0.00000000000E+00 0.  1.
         11    1    5    5    0    0 -0.29835747695E+01 -0.77381237588E+01 -0.87276515957E+01  0.12039608801E+02  0.00000000000E+00 0. -1.
        -11    1    5    5    0    0 -0.22101390495E+03  0.24066949680E+03 -0.55326672554E+03  0.64255196090E+03  0.00000000000E+00 0.  1.
          2    1    6    6  503    0  0.59440719560E+02 -0.82840690911E+02 -0.16747106321E+03  0.19606717274E+03  0.00000000000E+00 0. -1.
         -2    1    6    6    0  503  0.19677593442E+03 -0.40944624195E+03 -0.11478760590E+04  0.12344984569E+04  0.00000000000E+00 0.  1.
<mgrwt>
<rscale>  0 0.13548688E+04</rscale>
<asrwt>0</asrwt>
<pdfrwt beam="1">  1        2 0.33118231E+00 0.13548688E+04</pdfrwt>
<pdfrwt beam="2">  1       -1 0.32797493E-01 0.13548688E+04</pdfrwt>
<totfact> 0.53296112E+01</totfact>
</mgrwt>
</event>
<event>
12    6  0.1542110E-007  0.1925730E+04  0.7818608E-02  0.8642154E-01
         -1   -1    0    0    0  501 -0.00000000000E+00  0.00000000000E+00  0.91892860911E+03  0.91892860911E+03  0.00000000000E+00 0.  1.
          2   -1    0    0  501    0  0.00000000000E+00 -0.00000000000E+00 -0.10089015975E+04  0.10089015975E+04  0.00000000000E+00 0. -1.
         24    2    1    2    0    0  0.37621849529E+03 -0.50287962326E+03  0.36980257216E+03  0.73370247963E+03  0.84481445052E+02 0.  0.
        254    2    1    2    0    0 -0.37621849529E+03  0.50287962326E+03 -0.45977556052E+03  0.11941277270E+04  0.90560432340E+03 0.  0.
         23    2    4    4    0    0  0.24615556301E+03  0.32597805148E+03 -0.31744378794E+03  0.52527488352E+03  0.91043360550E+02 0.  0.
         23    2    4    4    0    0 -0.62237405830E+03  0.17690157177E+03 -0.14233177258E+03  0.66885284344E+03  0.91989989405E+02 0.  0.
          2    1    3    3  502    0  0.14017637128E+03 -0.19857838583E+03  0.96790392525E+02  0.26163174591E+03  0.00000000000E+00 0. -1.
         -1    1    3    3    0  502  0.23604212401E+03 -0.30430123742E+03  0.27301217963E+03  0.47207073372E+03  0.00000000000E+00 0.  1.
         11    1    5    5    0    0  0.17068001381E+02  0.10789960198E+02 -0.46472074419E+02  0.50669454438E+02  0.00000000000E+00 0. -1.
        -11    1    5    5    0    0  0.22908756163E+03  0.31518809128E+03 -0.27097171352E+03  0.47460542908E+03  0.00000000000E+00 0.  1.
          4    1    6    6  503    0 -0.87983600353E+02  0.48886798717E+02 -0.47195176743E+02  0.11116842055E+03  0.00000000000E+00 0. -1.
         -4    1    6    6    0  503 -0.53439045795E+03  0.12801477306E+03 -0.95136595835E+02  0.55768442289E+03  0.00000000000E+00 0.  1.
<mgrwt>
<rscale>  0 0.19257295E+04</rscale>
<asrwt>0</asrwt>
<pdfrwt beam="1">  1        2 0.15521563E+00 0.19257295E+04</pdfrwt>
<pdfrwt beam="2">  1       -1 0.14137363E+00 0.19257295E+04</pdfrwt>
<totfact> 0.10829253E+01</totfact>
</mgrwt>
</event>
<event>
12    6  0.1542110E-007  0.1567900E+04  0.7818608E-02  0.8840514E-01
          2   -1    0    0  501    0  0.00000000000E+00  0.00000000000E+00  0.62895596403E+03  0.62895596403E+03  0.00000000000E+00 0. -1.
         -1   -1    0    0    0  501 -0.00000000000E+00 -0.00000000000E+00 -0.97713967959E+03  0.97713967959E+03  0.00000000000E+00 0.  1.
         24    2    1    2    0    0  0.41612845717E+03 -0.54590732431E+02  0.16284607132E+03  0.45704158417E+03  0.78899466327E+02 0.  0.
        254    2    1    2    0    0 -0.41612845717E+03  0.54590732431E+02 -0.51102978688E+03  0.11490540595E+04  0.93969715735E+03 0.  0.
         23    2    4    4    0    0 -0.11418501260E+03  0.42761926955E+02 -0.74144262434E+03  0.75695938070E+03  0.91561669648E+02 0.  0.
         23    2    4    4    0    0 -0.30194344457E+03  0.11828805476E+02  0.23041283746E+03  0.39209467875E+03  0.96635382137E+02 0.  0.
          4    1    3    3  502    0  0.36748415794E+03 -0.61587109999E+02  0.16574782570E+03  0.40781113298E+03  0.00000000000E+00 0. -1.
         -3    1    3    3    0  502  0.48644299225E+02  0.69963775681E+01 -0.29017543832E+01  0.49230451193E+02  0.00000000000E+00 0.  1.
         11    1    5    5    0    0 -0.76986376349E+02  0.71613232780E+02 -0.49122076119E+03  0.50234768187E+03  0.00000000000E+00 0. -1.
        -11    1    5    5    0    0 -0.37198636251E+02 -0.28851305826E+02 -0.25022186314E+03  0.25461169883E+03  0.00000000000E+00 0.  1.
          1    1    6    6  503    0 -0.65431113283E+02 -0.36995764538E+01  0.10543250831E+03  0.12414077195E+03  0.00000000000E+00 0. -1.
         -1    1    6    6    0  503 -0.23651233129E+03  0.15528381930E+02  0.12498032915E+03  0.26795390680E+03  0.00000000000E+00 0.  1.
<mgrwt>
<rscale>  0 0.15679003E+04</rscale>
<asrwt>0</asrwt>
<pdfrwt beam="1">  1        2 0.96762456E-01 0.15679003E+04</pdfrwt>
<pdfrwt beam="2">  1       -1 0.15032918E+00 0.15679003E+04</pdfrwt>
<totfact> 0.17837072E+01</totfact>
</mgrwt>
</event>
<event>
12    6  0.1542110E-007  0.1508204E+04  0.7818608E-02  0.8879016E-01
          2   -1    0    0  501    0  0.00000000000E+00  0.00000000000E+00  0.15609980219E+04  0.15609980219E+04  0.00000000000E+00 0. -1.
         -1   -1    0    0    0  501 -0.00000000000E+00 -0.00000000000E+00 -0.36429889817E+03  0.36429889817E+03  0.00000000000E+00 0.  1.
         24    2    1    2    0    0 -0.31708040489E+03  0.34972334149E+02  0.87084923939E+03  0.93096348404E+03  0.80941729339E+02 0.  0.
        254    2    1    2    0    0  0.31708040489E+03 -0.34972334149E+02  0.32584988435E+03  0.99433343605E+03  0.88360499523E+03 0.  0.
         23    2    4    4    0    0  0.31391805682E+03 -0.13194275801E+03 -0.23127876525E+03  0.42153023250E+03  0.90798853859E+02 0.  0.
         23    2    4    4    0    0  0.31623480629E+01  0.96970423861E+02  0.55712864960E+03  0.57280320355E+03  0.91092888017E+02 0.  0.
          4    1    3    3  502    0 -0.30362311530E+03  0.34773137285E+02  0.86269762250E+03  0.91522858079E+03  0.00000000000E+00 0. -1.
         -3    1    3    3    0  502 -0.13457289583E+02  0.19919686371E+00  0.81516168836E+01  0.15734903245E+02  0.00000000000E+00 0.  1.
         11    1    5    5    0    0  0.71336038961E+02  0.31503252302E+00 -0.21136639433E+02  0.74402199072E+02  0.00000000000E+00 0.  1.
        -11    1    5    5    0    0  0.24258201786E+03 -0.13225779053E+03 -0.21014212582E+03  0.34712803342E+03  0.00000000000E+00 0. -1.
          4    1    6    6  503    0  0.10447752477E+01  0.35425423834E+02  0.43089088886E+03  0.43234593824E+03  0.00000000000E+00 0. -1.
         -4    1    6    6    0  503  0.21175728152E+01  0.61545000027E+02  0.12623776074E+03  0.14045726531E+03  0.00000000000E+00 0.  1.
<mgrwt>
<rscale>  0 0.15082040E+04</rscale>
<asrwt>0</asrwt>
<pdfrwt beam="1">  1        2 0.24015354E+00 0.15082040E+04</pdfrwt>
<pdfrwt beam="2">  1       -1 0.56045985E-01 0.15082040E+04</pdfrwt>
<totfact> 0.41554935E+01</totfact>
</mgrwt>
</event>
<event>
12    6  0.1542110E-007  0.3002793E+04  0.7818608E-02  0.8242934E-01
          2   -1    0    0  501    0  0.00000000000E+00  0.00000000000E+00  0.19961536515E+04  0.19961536515E+04  0.00000000000E+00 0. -1.
         -1   -1    0    0    0  501 -0.00000000000E+00 -0.00000000000E+00 -0.11292677931E+04  0.11292677931E+04  0.00000000000E+00 0.  1.
         24    2    1    2    0    0 -0.20575773467E+03  0.74960602866E+03  0.15603906849E+04  0.17451506097E+04  0.80536434505E+02 0.  0.
        254    2    1    2    0    0  0.20575773467E+03 -0.74960602866E+03 -0.69350482649E+03  0.13802708350E+04  0.90551266689E+03 0.  0.
         23    2    4    4    0    0  0.25179783134E+03 -0.83218034370E+03 -0.23709120584E+03  0.90581142855E+03  0.91410239496E+02 0.  0.
         23    2    4    4    0    0 -0.46040096673E+02  0.82574315046E+02 -0.45641362065E+03  0.47445940641E+03  0.88657358465E+02 0.  0.
          4    1    3    3  502    0 -0.16485249704E+03  0.68225020464E+03  0.14254986839E+04  0.15889267401E+04  0.00000000000E+00 0. -1.
         -3    1    3    3    0  502 -0.40905237622E+02  0.67355824014E+02  0.13489200100E+03  0.15622386958E+03  0.00000000000E+00 0.  1.
         11    1    5    5    0    0  0.23115159460E+03 -0.80843904419E+03 -0.23943331948E+03  0.87426143820E+03  0.00000000000E+00 0. -1.
        -11    1    5    5    0    0  0.20646236740E+02 -0.23741299517E+02  0.23421136447E+01  0.31549990342E+02  0.00000000000E+00 0.  1.
          3    1    6    6  503    0 -0.89965587328E+01  0.17477607520E+01 -0.24421347758E+03  0.24438538288E+03  0.00000000000E+00 0. -1.
         -3    1    6    6    0  503 -0.37043537940E+02  0.80826554294E+02 -0.21220014308E+03  0.23007402353E+03  0.00000000000E+00 0.  1.
<mgrwt>
<rscale>  0 0.30027934E+04</rscale>
<asrwt>0</asrwt>
<pdfrwt beam="1">  1        2 0.30710056E+00 0.30027934E+04</pdfrwt>
<pdfrwt beam="2">  1       -1 0.17373351E+00 0.30027934E+04</pdfrwt>
<totfact> 0.15102656E+00</totfact>
</mgrwt>
</event>
<event>
12    6  0.1542110E-007  0.1533055E+04  0.7818608E-02  0.8862765E-01
         -1   -1    0    0    0  501 -0.00000000000E+00  0.00000000000E+00  0.24214206171E+03  0.24214206171E+03  0.00000000000E+00 0.  1.
          2   -1    0    0  501    0  0.00000000000E+00 -0.00000000000E+00 -0.24265273785E+04  0.24265273785E+04  0.00000000000E+00 0. -1.
         24    2    1    2    0    0 -0.35190921509E+02 -0.22819944343E+03  0.48348079206E+02  0.24924061103E+03  0.80436052166E+02 0.  0.
        254    2    1    2    0    0  0.35190921509E+02  0.22819944343E+03 -0.22327333960E+04  0.24194288292E+04  0.90289758827E+03 0.  0.
         23    2    4    4    0    0  0.37605070232E+03  0.16251618220E+03 -0.18402773244E+04  0.18875051692E+04  0.90716552599E+02 0.  0.
         23    2    4    4    0    0 -0.34085978081E+03  0.65683261222E+02 -0.39245607167E+03  0.53192366003E+03  0.91767809889E+02 0.  0.
          4    1    3    3  502    0 -0.17019446340E+02 -0.97421101724E+02 -0.19488948647E+02  0.10079857010E+03  0.00000000000E+00 0. -1.
         -3    1    3    3    0  502 -0.18171475170E+02 -0.13077834170E+03  0.67837027853E+02  0.14844204093E+03  0.00000000000E+00 0.  1.
         11    1    5    5    0    0  0.57506156581E+02 -0.28177563010E+01 -0.18434349279E+03  0.19312540260E+03  0.00000000000E+00 0.  1.
        -11    1    5    5    0    0  0.31854454574E+03  0.16533393850E+03 -0.16559338316E+04  0.16943797666E+04  0.00000000000E+00 0. -1.
          2    1    6    6  503    0 -0.19893638015E+03 -0.80614797035E+01 -0.21506356700E+03  0.29307509047E+03  0.00000000000E+00 0. -1.
         -2    1    6    6    0  503 -0.14192340066E+03  0.73744740926E+02 -0.17739250467E+03  0.23884856956E+03  0.00000000000E+00 0.  1.
<mgrwt>
<rscale>  0 0.15330549E+04</rscale>
<asrwt>0</asrwt>
<pdfrwt beam="1">  1        2 0.37331192E+00 0.15330549E+04</pdfrwt>
<pdfrwt beam="2">  1       -1 0.37252623E-01 0.15330549E+04</pdfrwt>
<totfact> 0.29276331E+01</totfact>
</mgrwt>
</event>
<event>
12    6  0.1542110E-007  0.2276167E+04  0.7818608E-02  0.8487378E-01
         -1   -1    0    0    0  501 -0.00000000000E+00  0.00000000000E+00  0.83819906004E+03  0.83819906004E+03  0.00000000000E+00 0.  1.
          2   -1    0    0  501    0  0.00000000000E+00 -0.00000000000E+00 -0.15452586596E+04  0.15452586596E+04  0.00000000000E+00 0. -1.
         24    2    1    2    0    0 -0.48216443637E+03  0.79478324592E+03 -0.61823665327E+02  0.93307837133E+03  0.51479410891E+02 0.  0.
        254    2    1    2    0    0  0.48216443637E+03 -0.79478324592E+03 -0.64523593422E+03  0.14503793483E+04  0.90725293686E+03 0.  0.
         23    2    4    4    0    0  0.38695428474E+03 -0.72387830162E+03 -0.39846889540E+02  0.82698480504E+03  0.92642749960E+02 0.  0.
         23    2    4    4    0    0  0.95210151634E+02 -0.70904944299E+02 -0.60538904468E+03  0.62339454326E+03  0.89623529493E+02 0.  0.
          4    1    3    3  502    0 -0.28633632505E+02  0.74922880442E+02 -0.60155186829E+01  0.80433260465E+02  0.00000000000E+00 0. -1.
         -3    1    3    3    0  502 -0.45353080387E+03  0.71986036548E+03 -0.55808146645E+02  0.85264511086E+03  0.00000000000E+00 0.  1.
         11    1    5    5    0    0  0.26254489293E+01  0.98898851899E+00  0.45358385914E+01  0.53333771757E+01  0.00000000000E+00 0. -1.
        -11    1    5    5    0    0  0.38432883581E+03 -0.72486729014E+03 -0.44382728131E+02  0.82165142786E+03  0.00000000000E+00 0.  1.
          1    1    6    6  503    0  0.43170493661E+02  0.17050032837E+02 -0.17711279446E+03  0.18309379319E+03  0.00000000000E+00 0. -1.
         -1    1    6    6    0  503  0.52039657974E+02 -0.87954977136E+02 -0.42827625022E+03  0.44030075007E+03  0.00000000000E+00 0.  1.
<mgrwt>
<rscale>  0 0.22761673E+04</rscale>
<asrwt>0</asrwt>
<pdfrwt beam="1">  1        2 0.23773210E+00 0.22761673E+04</pdfrwt>
<pdfrwt beam="2">  1       -1 0.12895370E+00 0.22761673E+04</pdfrwt>
<totfact> 0.64104670E+00</totfact>
</mgrwt>
</event>
<event>
12    6  0.1542110E-007  0.2785681E+04  0.7818608E-02  0.8307728E-01
          2   -1    0    0  501    0  0.00000000000E+00  0.00000000000E+00  0.24480276352E+04  0.24480276352E+04  0.00000000000E+00 0. -1.
         -1   -1    0    0    0  501 -0.00000000000E+00 -0.00000000000E+00 -0.79247688159E+03  0.79247688159E+03  0.00000000000E+00 0.  1.
         24    2    1    2    0    0  0.84992686842E+03 -0.62833913613E+01 -0.31906056547E+03  0.91156177095E+03  0.82036913278E+02 0.  0.
        254    2    1    2    0    0 -0.84992686842E+03  0.62833913613E+01  0.19746113190E+04  0.23289427458E+04  0.89580650216E+03 0.  0.
         23    2    4    4    0    0  0.39313677607E+01  0.28425051309E+03  0.75514202633E+03  0.81188098070E+03  0.89985760256E+02 0.  0.
         23    2    4    4    0    0 -0.85385823618E+03 -0.27796712172E+03  0.12194692927E+04  0.15170617651E+04  0.89618274056E+02 0.  0.
          2    1    3    3  502    0  0.13751514782E+03 -0.29375586527E+02 -0.64231559604E+02  0.15459312473E+03  0.00000000000E+00 0. -1.
         -1    1    3    3    0  502  0.71241172060E+03  0.23092195165E+02 -0.25482900587E+03  0.75696864621E+03  0.00000000000E+00 0.  1.
         11    1    5    5    0    0 -0.41736202193E+02  0.12351535837E+03  0.30345960086E+03  0.33028121909E+03  0.00000000000E+00 0. -1.
        -11    1    5    5    0    0  0.45667569954E+02  0.16073515471E+03  0.45168242547E+03  0.48159976161E+03  0.00000000000E+00 0.  1.
          2    1    6    6  503    0 -0.38549423300E+03 -0.16718195859E+03  0.53374377783E+03  0.67929230183E+03  0.00000000000E+00 0.  1.
         -2    1    6    6    0  503 -0.46836400318E+03 -0.11078516313E+03  0.68572551488E+03  0.83776946328E+03  0.00000000000E+00 0. -1.
<mgrwt>
<rscale>  0 0.27856815E+04</rscale>
<asrwt>0</asrwt>
<pdfrwt beam="1">  1        2 0.37661963E+00 0.27856815E+04</pdfrwt>
<pdfrwt beam="2">  1       -1 0.12191952E+00 0.27856815E+04</pdfrwt>
<totfact> 0.21993941E+00</totfact>
</mgrwt>
</event>
<event>
12    6  0.1542110E-007  0.2114143E+04  0.7818608E-02  0.8555039E-01
         -1   -1    0    0    0  501 -0.00000000000E+00  0.00000000000E+00  0.10930108622E+04  0.10930108622E+04  0.00000000000E+00 0.  1.
          2   -1    0    0  501    0  0.00000000000E+00 -0.00000000000E+00 -0.10223139837E+04  0.10223139837E+04  0.00000000000E+00 0. -1.
         24    2    1    2    0    0  0.46008501497E+03 -0.25481817520E+03 -0.66085022777E+03  0.84850334198E+03  0.81390259836E+02 0.  0.
        254    2    1    2    0    0 -0.46008501497E+03  0.25481817520E+03  0.73154710632E+03  0.12668215039E+04  0.89054198696E+03 0.  0.
         23    2    4    4    0    0 -0.39893152460E+03 -0.19898240522E+03  0.74993974193E+02  0.46117413149E+03  0.91198270153E+02 0.  0.
         23    2    4    4    0    0 -0.61153490368E+02  0.45380058042E+03  0.65655313213E+03  0.80564737240E+03  0.91274077214E+02 0.  0.
          4    1    3    3  502    0  0.20070574572E+03 -0.67869716025E+02 -0.24385100761E+03  0.32303623424E+03  0.00000000000E+00 0. -1.
         -3    1    3    3    0  502  0.25937926925E+03 -0.18694845918E+03 -0.41699922016E+03  0.52546710775E+03  0.00000000000E+00 0.  1.
         11    1    5    5    0    0 -0.19183372773E+03 -0.90114414195E+02 -0.10164359578E+02  0.21218883323E+03  0.00000000000E+00 0. -1.
        -11    1    5    5    0    0 -0.20709779687E+03 -0.10886799103E+03  0.85158333771E+02  0.24898529826E+03  0.00000000000E+00 0.  1.
          3    1    6    6  503    0 -0.49293919948E+02  0.23374664385E+03  0.41364214776E+03  0.47766851525E+03  0.00000000000E+00 0. -1.
         -3    1    6    6    0  503 -0.11859570420E+02  0.22005393658E+03  0.24291098437E+03  0.32797885715E+03  0.00000000000E+00 0.  1.
<mgrwt>
<rscale>  0 0.21141431E+04</rscale>
<asrwt>0</asrwt>
<pdfrwt beam="1">  1        2 0.15727907E+00 0.21141431E+04</pdfrwt>
<pdfrwt beam="2">  1       -1 0.16815552E+00 0.21141431E+04</pdfrwt>
<totfact> 0.64967687E+00</totfact>
</mgrwt>
</event>
<event>
12    6  0.1542110E-007  0.3274362E+04  0.7818608E-02  0.8169450E-01
         -1   -1    0    0    0  501 -0.00000000000E+00  0.00000000000E+00  0.11770592402E+04  0.11770592402E+04  0.00000000000E+00 0.  1.
          2   -1    0    0  501    0  0.00000000000E+00 -0.00000000000E+00 -0.22771682535E+04  0.22771682535E+04  0.00000000000E+00 0. -1.
         24    2    1    2    0    0 -0.24289937413E+03  0.82149553881E+03  0.80616088018E+03  0.11797193220E+04  0.89371626657E+02 0.  0.
        254    2    1    2    0    0  0.24289937413E+03 -0.82149553881E+03 -0.19062698935E+04  0.22745081717E+04  0.89758982288E+03 0.  0.
         23    2    4    4    0    0 -0.19876339425E+03 -0.36241968446E+03 -0.13806994989E+04  0.14439971201E+04  0.89116004058E+02 0.  0.
         23    2    4    4    0    0  0.44166276839E+03 -0.45907585434E+03 -0.52557039460E+03  0.83051105158E+03  0.87793656298E+02 0.  0.
          2    1    3    3  502    0 -0.53176187453E+02  0.32969573625E+03  0.32569427952E+03  0.46648017013E+03  0.00000000000E+00 0. -1.
         -1    1    3    3    0  502 -0.18972318668E+03  0.49179980255E+03  0.48046660066E+03  0.71323915183E+03  0.00000000000E+00 0.  1.
         11    1    5    5    0    0 -0.11158977840E+02 -0.87664359284E+02 -0.34709901958E+03  0.35817215424E+03  0.00000000000E+00 0.  1.
        -11    1    5    5    0    0 -0.18760441641E+03 -0.27475532518E+03 -0.10336004793E+04  0.10858249659E+04  0.00000000000E+00 0. -1.
          2    1    6    6  503    0  0.38930262313E+03 -0.35995546985E+03 -0.44864797110E+03  0.69455703482E+03  0.00000000000E+00 0. -1.
         -2    1    6    6    0  503  0.52360145260E+02 -0.99120384497E+02 -0.76922423504E+02  0.13595401676E+03  0.00000000000E+00 0.  1.
<mgrwt>
<rscale>  0 0.32743622E+04</rscale>
<asrwt>0</asrwt>
<pdfrwt beam="1">  1        2 0.35033358E+00 0.32743622E+04</pdfrwt>
<pdfrwt beam="2">  1       -1 0.18108604E+00 0.32743622E+04</pdfrwt>
<totfact> 0.90837676E-01</totfact>
</mgrwt>
</event>
<event>
12    6  0.1542110E-007  0.1644952E+04  0.7818608E-02  0.8793398E-01
          2   -1    0    0  501    0  0.00000000000E+00  0.00000000000E+00  0.23698042022E+04  0.23698042022E+04  0.00000000000E+00 0. -1.
         -1   -1    0    0    0  501 -0.00000000000E+00 -0.00000000000E+00 -0.28545276462E+03  0.28545276462E+03  0.00000000000E+00 0.  1.
         24    2    1    2    0    0  0.18972943908E+03 -0.43952617668E+03  0.12480674201E+04  0.13391114245E+04  0.79790989755E+02 0.  0.
        254    2    1    2    0    0 -0.18972943908E+03  0.43952617668E+03  0.83628401748E+03  0.13161455423E+04  0.89648625794E+03 0.  0.
         23    2    4    4    0    0  0.31638950781E+03  0.21390616288E+02  0.41513952275E+03  0.53026892394E+03  0.91018839941E+02 0.  0.
         23    2    4    4    0    0 -0.50611894689E+03  0.41813556040E+03  0.42114449473E+03  0.78587661840E+03  0.96154244004E+02 0.  0.
          4    1    3    3  502    0  0.16608671537E+03 -0.42721751367E+03  0.11897150810E+04  0.12749594405E+04  0.00000000000E+00 0. -1.
         -3    1    3    3    0  502  0.23642723706E+02 -0.12308663014E+02  0.58352339170E+02  0.64151984038E+02  0.00000000000E+00 0.  1.
         11    1    5    5    0    0  0.16137858189E+02 -0.10160538515E+02  0.28817886429E+01  0.19286568270E+02  0.00000000000E+00 0. -1.
        -11    1    5    5    0    0  0.30025164962E+03  0.31551154803E+02  0.41225773411E+03  0.51098235567E+03  0.00000000000E+00 0.  1.
          1    1    6    6  503    0 -0.14001582777E+03  0.16328929683E+03  0.16841317748E+03  0.27318642871E+03  0.00000000000E+00 0. -1.
         -1    1    6    6    0  503 -0.36610311911E+03  0.25484626357E+03  0.25273131725E+03  0.51269018968E+03  0.00000000000E+00 0.  1.
<mgrwt>
<rscale>  0 0.16449525E+04</rscale>
<asrwt>0</asrwt>
<pdfrwt beam="1">  1        2 0.36458525E+00 0.16449525E+04</pdfrwt>
<pdfrwt beam="2">  1       -1 0.43915811E-01 0.16449525E+04</pdfrwt>
<totfact> 0.23105333E+01</totfact>
</mgrwt>
</event>
<event>
12    6  0.1542110E-007  0.2823617E+04  0.7818608E-02  0.8295974E-01
         -3   -1    0    0    0  501 -0.00000000000E+00  0.00000000000E+00  0.13123411782E+04  0.13123411782E+04  0.00000000000E+00 0.  1.
          2   -1    0    0  501    0  0.00000000000E+00 -0.00000000000E+00 -0.15188143164E+04  0.15188143164E+04  0.00000000000E+00 0. -1.
         24    2    1    2    0    0 -0.19209057849E+03  0.11513992001E+03 -0.13484111557E+04  0.13691822972E+04  0.79319144361E+02 0.  0.
        254    2    1    2    0    0  0.19209057849E+03 -0.11513992001E+03  0.11419380175E+04  0.14619731974E+04  0.88497864514E+03 0.  0.
         23    2    4    4    0    0  0.27804245305E+03  0.89654458279E+02  0.11797540944E+04  0.12187492427E+04  0.90468037210E+02 0.  0.
         23    2    4    4    0    0 -0.85951874563E+02 -0.20479437829E+03 -0.37816076846E+02  0.24322395466E+03  0.91648100529E+02 0.  0.
          2    1    3    3  502    0 -0.66323782822E+02  0.79846807669E+02 -0.70970670350E+03  0.71725724943E+03  0.00000000000E+00 0. -1.
         -1    1    3    3    0  502 -0.12576679567E+03  0.35293112344E+02 -0.63870445219E+03  0.65192504778E+03  0.00000000000E+00 0.  1.
         11    1    5    5    0    0  0.65429383810E+02 -0.16847118560E+02  0.23406078978E+03  0.24361708269E+03  0.00000000000E+00 0. -1.
        -11    1    5    5    0    0  0.21261306924E+03  0.10650157684E+03  0.94569330461E+03  0.97513216000E+03  0.00000000000E+00 0.  1.
          3    1    6    6  503    0 -0.16537685888E+02  0.38860585948E+01  0.76823458766E+01  0.18644434668E+02  0.00000000000E+00 0. -1.
         -3    1    6    6    0  503 -0.69414188675E+02 -0.20868043689E+03 -0.45498422723E+02  0.22457951999E+03  0.00000000000E+00 0.  1.
<mgrwt>
<rscale>  0 0.28236165E+04</rscale>
<asrwt>0</asrwt>
<pdfrwt beam="1">  1        2 0.23366374E+00 0.28236165E+04</pdfrwt>
<pdfrwt beam="2">  1       -3 0.20189864E+00 0.28236165E+04</pdfrwt>
<totfact> 0.96740101E-01</totfact>
</mgrwt>
</event>
<event>
12    6  0.1542110E-007  0.1760904E+04  0.7818608E-02  0.8727371E-01
         -1   -1    0    0    0  501 -0.00000000000E+00  0.00000000000E+00  0.15669596111E+04  0.15669596111E+04  0.00000000000E+00 0.  1.
          2   -1    0    0  501    0  0.00000000000E+00 -0.00000000000E+00 -0.49471347921E+03  0.49471347921E+03  0.00000000000E+00 0. -1.
         24    2    1    2    0    0 -0.51966397473E+03  0.10938910239E+03  0.82475768349E+03  0.98601012242E+03  0.99870429452E+02 0.  0.
        254    2    1    2    0    0  0.51966397473E+03 -0.10938910239E+03  0.24748844841E+03  0.10756629679E+04  0.90209958766E+03 0.  0.
         23    2    4    4    0    0  0.59871527503E+02  0.36416832254E+03  0.72575397820E+02  0.38695529981E+03  0.90906813466E+02 0.  0.
         23    2    4    4    0    0  0.45979244723E+03 -0.47355742493E+03  0.17491305059E+03  0.68870766810E+03  0.89766071485E+02 0.  0.
          4    1    3    3  502    0 -0.15519496607E+03  0.77538304596E+01  0.17431957083E+03  0.23352283005E+03  0.00000000000E+00 0. -1.
         -3    1    3    3    0  502 -0.36446900867E+03  0.10163527194E+03  0.65043811266E+03  0.75248729237E+03  0.00000000000E+00 0.  1.
         11    1    5    5    0    0  0.68939924803E+02  0.16750843002E+03  0.54987136104E+02  0.18930233093E+03  0.00000000000E+00 0. -1.
        -11    1    5    5    0    0 -0.90683972999E+01  0.19665989252E+03  0.17588261716E+02  0.19765296888E+03  0.00000000000E+00 0.  1.
          1    1    6    6  503    0  0.18686010192E+03 -0.22981724524E+03  0.11584707513E+03  0.31804592234E+03  0.00000000000E+00 0. -1.
         -1    1    6    6    0  503  0.27293234531E+03 -0.24374017969E+03  0.59065975467E+02  0.37066174576E+03  0.00000000000E+00 0.  1.
<mgrwt>
<rscale>  0 0.17609044E+04</rscale>
<asrwt>0</asrwt>
<pdfrwt beam="1">  1        2 0.76109767E-01 0.17609044E+04</pdfrwt>
<pdfrwt beam="2">  1       -1 0.24107071E+00 0.17609044E+04</pdfrwt>
<totfact> 0.53829433E+00</totfact>
</mgrwt>
</event>
<event>
12    6  0.1542110E-007  0.1980655E+04  0.7818608E-02  0.8615719E-01
          2   -1    0    0  501    0  0.00000000000E+00  0.00000000000E+00  0.25524447989E+04  0.25524447989E+04  0.00000000000E+00 0. -1.
         -1   -1    0    0    0  501 -0.00000000000E+00 -0.00000000000E+00 -0.38423871386E+03  0.38423871386E+03  0.00000000000E+00 0.  1.
         24    2    1    2    0    0  0.45319845873E+03  0.20040756688E+02  0.18040166298E+04  0.18618824269E+04  0.79622208092E+02 0.  0.
        254    2    1    2    0    0 -0.45319845873E+03 -0.20040756688E+02  0.36418945520E+03  0.10748010858E+04  0.90375491141E+03 0.  0.
         23    2    4    4    0    0  0.17233699014E+03 -0.21580595348E+03 -0.51096034906E+02  0.29339993675E+03  0.84855585396E+02 0.  0.
         23    2    4    4    0    0 -0.62553544886E+03  0.19576519679E+03  0.41528549011E+03  0.78140114909E+03  0.92233982009E+02 0.  0.
          4    1    3    3  502    0  0.41387684547E+03 -0.50926528681E+01  0.16212500251E+04  0.16732518107E+04  0.00000000000E+00 0. -1.
         -3    1    3    3    0  502  0.39321613257E+02  0.25133409556E+02  0.18276660475E+03  0.18863061617E+03  0.00000000000E+00 0.  1.
         11    1    5    5    0    0  0.17818516755E+03 -0.19738458736E+03 -0.34922405800E+02  0.26819806802E+03  0.00000000000E+00 0. -1.
        -11    1    5    5    0    0 -0.58481774163E+01 -0.18421366116E+02 -0.16173629105E+02  0.25201868723E+02  0.00000000000E+00 0.  1.
          4    1    6    6  503    0 -0.45657481661E+03  0.16309135743E+03  0.34721420568E+03  0.59633636369E+03  0.00000000000E+00 0. -1.
         -4    1    6    6    0  503 -0.16896063225E+03  0.32673839358E+02  0.68071284427E+02  0.18506478539E+03  0.00000000000E+00 0.  1.
<mgrwt>
<rscale>  0 0.19806545E+04</rscale>
<asrwt>0</asrwt>
<pdfrwt beam="1">  1        2 0.39268380E+00 0.19806545E+04</pdfrwt>
<pdfrwt beam="2">  1       -1 0.59113650E-01 0.19806545E+04</pdfrwt>
<totfact> 0.99774228E+00</totfact>
</mgrwt>
</event>
<event>
12    6  0.1611246E-007  0.1697246E+04  0.7818608E-02  0.8762936E-01
         -1   -1    0    0    0  501 -0.00000000000E+00  0.00000000000E+00  0.50175565415E+03  0.50175565415E+03  0.00000000000E+00 0.  1.
          2   -1    0    0  501    0  0.00000000000E+00 -0.00000000000E+00 -0.14352827997E+04  0.14352827997E+04  0.00000000000E+00 0. -1.
         24    2    1    2    0    0  0.36965660978E+03 -0.32168188569E+03 -0.74649783268E+03  0.89653579960E+03  0.79951116519E+02 0.  0.
        254    2    1    2    0    0 -0.36965660978E+03  0.32168188569E+03 -0.18702931291E+03  0.10405026543E+04  0.89863260844E+03 0.  0.
         23    2    4    4    0    0  0.20991453646E+03  0.73935614619E+02 -0.30906610455E+03  0.39211603844E+03  0.93287420845E+02 0.  0.
         23    2    4    4    0    0 -0.57957114625E+03  0.24774627107E+03  0.12203679165E+03  0.64838661585E+03  0.90726493980E+02 0.  0.
          2    1    3    3  502    0  0.35756367489E+03 -0.30234966979E+03 -0.73368502039E+03  0.87037969506E+03  0.00000000000E+00 0. -1.
         -1    1    3    3    0  502  0.12092934888E+02 -0.19332215903E+02 -0.12812812281E+02  0.26156104535E+02  0.00000000000E+00 0.  1.
         11    1    5    5    0    0  0.24905487384E+01 -0.14471163070E+02 -0.29509171542E+02  0.32960712958E+02  0.00000000000E+00 0. -1.
        -11    1    5    5    0    0  0.20742398772E+03  0.88406777689E+02 -0.27955693301E+03  0.35915532548E+03  0.00000000000E+00 0.  1.
          1    1    6    6  503    0 -0.28030508962E+02  0.14344401989E+01  0.22983922412E+02  0.36277096642E+02  0.00000000000E+00 0. -1.
         -1    1    6    6    0  503 -0.55154063728E+03  0.24631183087E+03  0.99052869236E+02  0.61210951921E+03  0.00000000000E+00 0.  1.
<mgrwt>
<rscale>  0 0.16972463E+04</rscale>
<asrwt>0</asrwt>
<pdfrwt beam="1">  1        2 0.22081274E+00 0.16972463E+04</pdfrwt>
<pdfrwt beam="2">  1       -1 0.77193178E-01 0.16972463E+04</pdfrwt>
<totfact> 0.25213812E+01</totfact>
</mgrwt>
</event>
<event>
12    6  0.1542110E-007  0.2340311E+04  0.7818608E-02  0.8462195E-01
         -1   -1    0    0    0  501 -0.00000000000E+00  0.00000000000E+00  0.10819812691E+04  0.10819812691E+04  0.00000000000E+00 0.  1.
          2   -1    0    0  501    0  0.00000000000E+00 -0.00000000000E+00 -0.12655149755E+04  0.12655149755E+04  0.00000000000E+00 0. -1.
         24    2    1    2    0    0  0.56801326380E+03  0.23691368373E+02  0.74456464592E+03  0.94037248345E+03  0.81997237020E+02 0.  0.
        254    2    1    2    0    0 -0.56801326380E+03 -0.23691368373E+02 -0.92809835231E+03  0.14071237611E+04  0.89186903682E+03 0.  0.
         23    2    4    4    0    0 -0.40861588240E+03  0.40504458300E+03 -0.42376524196E+03  0.72014421545E+03  0.89457571958E+02 0.  0.
         23    2    4    4    0    0 -0.15939738140E+03 -0.42873595138E+03 -0.50433311034E+03  0.68697954570E+03  0.91471136531E+02 0.  0.
          2    1    3    3  502    0  0.30244521679E+03  0.14813220757E+02  0.32919214048E+03  0.44728067924E+03  0.00000000000E+00 0. -1.
         -1    1    3    3    0  502  0.26556804701E+03  0.88781476162E+01  0.41537250544E+03  0.49309180420E+03  0.00000000000E+00 0.  1.
         11    1    5    5    0    0 -0.33901967052E+03  0.28302122257E+03 -0.31421668782E+03  0.54200320694E+03  0.00000000000E+00 0. -1.
        -11    1    5    5    0    0 -0.69596211877E+02  0.12202336043E+03 -0.10954855415E+03  0.17814100851E+03  0.00000000000E+00 0.  1.
          1    1    6    6  503    0 -0.14026517625E+03 -0.34001244307E+03 -0.34877792675E+03  0.50688146869E+03  0.00000000000E+00 0. -1.
         -1    1    6    6    0  503 -0.19132205151E+02 -0.88723508304E+02 -0.15555518359E+03  0.18009807701E+03  0.00000000000E+00 0.  1.
<mgrwt>
<rscale>  0 0.23403107E+04</rscale>
<asrwt>0</asrwt>
<pdfrwt beam="1">  1        2 0.19469461E+00 0.23403107E+04</pdfrwt>
<pdfrwt beam="2">  1       -1 0.16645866E+00 0.23403107E+04</pdfrwt>
<totfact> 0.46619547E+00</totfact>
</mgrwt>
</event>
<event>
12    6  0.1542110E-007  0.3228055E+04  0.7818608E-02  0.8181447E-01
         -1   -1    0    0    0  501 -0.00000000000E+00  0.00000000000E+00  0.15910442727E+04  0.15910442727E+04  0.00000000000E+00 0.  1.
          2   -1    0    0  501    0  0.00000000000E+00 -0.00000000000E+00 -0.16373426132E+04  0.16373426132E+04  0.00000000000E+00 0. -1.
         24    2    1    2    0    0 -0.47315276300E+02 -0.20979408936E+03 -0.14816485058E+04  0.14993831751E+04  0.81334592449E+02 0.  0.
        254    2    1    2    0    0  0.47315276300E+02  0.20979408936E+03  0.14353501652E+04  0.17290037108E+04  0.93966560005E+03 0.  0.
         23    2    4    4    0    0 -0.23011970295E+03  0.48645862579E+03  0.66366061128E+03  0.85959675790E+03  0.94149386278E+02 0.  0.
         23    2    4    4    0    0  0.27743497925E+03 -0.27666453643E+03  0.77168955396E+03  0.86940695293E+03  0.82766229149E+02 0.  0.
          4    1    3    3  502    0 -0.29946445636E+02 -0.28113510647E+02 -0.43561269632E+03  0.43754494658E+03  0.00000000000E+00 0. -1.
         -3    1    3    3    0  502 -0.17368830664E+02 -0.18168057871E+03 -0.10460358094E+04  0.10618382285E+04  0.00000000000E+00 0.  1.
         11    1    5    5    0    0 -0.16488766688E+03  0.27378127605E+03  0.33766189879E+03  0.46492976641E+03  0.00000000000E+00 0.  1.
        -11    1    5    5    0    0 -0.65232036070E+02  0.21267734974E+03  0.32599871250E+03  0.39466699149E+03  0.00000000000E+00 0. -1.
          4    1    6    6  503    0  0.78792604566E+02 -0.13364463753E+03  0.27761369077E+03  0.31802283719E+03  0.00000000000E+00 0. -1.
         -4    1    6    6    0  503  0.19864237468E+03 -0.14301989890E+03  0.49407586319E+03  0.55138411574E+03  0.00000000000E+00 0.  1.
<mgrwt>
<rscale>  0 0.32280549E+04</rscale>
<asrwt>0</asrwt>
<pdfrwt beam="1">  1        2 0.25189886E+00 0.32280549E+04</pdfrwt>
<pdfrwt beam="2">  1       -1 0.24477604E+00 0.32280549E+04</pdfrwt>
<totfact> 0.76662790E-01</totfact>
</mgrwt>
</event>
<event>
12    6  0.1542110E-007  0.1783484E+04  0.7818608E-02  0.8715132E-01
         -1   -1    0    0    0  501 -0.00000000000E+00  0.00000000000E+00  0.22528177145E+04  0.22528177145E+04  0.00000000000E+00 0.  1.
          2   -1    0    0  501    0  0.00000000000E+00 -0.00000000000E+00 -0.35298191111E+03  0.35298191111E+03  0.00000000000E+00 0. -1.
         24    2    1    2    0    0  0.28455564191E+03  0.59216952542E+02 -0.15768432382E+03  0.33926050819E+03  0.75860303358E+02 0.  0.
        254    2    1    2    0    0 -0.28455564191E+03 -0.59216952542E+02  0.20575201272E+04  0.22665391174E+04  0.90516956209E+03 0.  0.
         23    2    4    4    0    0 -0.48201380680E+03 -0.16954715875E+03  0.19157476642E+04  0.19846904778E+04  0.88451291327E+02 0.  0.
         23    2    4    4    0    0  0.19745816488E+03  0.11033020621E+03  0.14177246303E+03  0.28184863961E+03  0.90425345429E+02 0.  0.
          4    1    3    3  502    0  0.24152553852E+03  0.76706469497E+02 -0.12579314526E+03  0.28291762690E+03  0.00000000000E+00 0. -1.
         -3    1    3    3    0  502  0.43030103399E+02 -0.17489516955E+02 -0.31891178559E+02  0.56342881287E+02  0.00000000000E+00 0.  1.
         11    1    5    5    0    0 -0.30736546403E+02 -0.15446737631E+02  0.65544510419E+02  0.74023103382E+02  0.00000000000E+00 0. -1.
        -11    1    5    5    0    0 -0.45127726039E+03 -0.15410042112E+03  0.18502031538E+04  0.19106673744E+04  0.00000000000E+00 0.  1.
          1    1    6    6  503    0  0.49464067902E+02  0.35410878001E+02 -0.40785317909E+01  0.60969326024E+02  0.00000000000E+00 0. -1.
         -1    1    6    6    0  503  0.14799409698E+03  0.74919328210E+02  0.14585099482E+03  0.22087931359E+03  0.00000000000E+00 0.  1.
<mgrwt>
<rscale>  0 0.17834841E+04</rscale>
<asrwt>0</asrwt>
<pdfrwt beam="1">  1        2 0.54304911E-01 0.17834841E+04</pdfrwt>
<pdfrwt beam="2">  1       -1 0.34658733E+00 0.17834841E+04</pdfrwt>
<totfact> 0.16240320E+00</totfact>
</mgrwt>
</event>
<event>
12    6  0.1542110E-007  0.2065300E+04  0.7818608E-02  0.8576685E-01
          2   -1    0    0  501    0  0.00000000000E+00  0.00000000000E+00  0.26622623452E+04  0.26622623452E+04  0.00000000000E+00 0. -1.
         -1   -1    0    0    0  501 -0.00000000000E+00 -0.00000000000E+00 -0.40054896234E+03  0.40054896234E+03  0.00000000000E+00 0.  1.
         24    2    1    2    0    0 -0.44468224100E+03 -0.66458965966E+03  0.75987887905E+03  0.11059596328E+04  0.79429763324E+02 0.  0.
        254    2    1    2    0    0  0.44468224100E+03  0.66458965966E+03  0.15018345038E+04  0.19568516748E+04  0.96661258476E+03 0.  0.
         23    2    4    4    0    0  0.27824211602E+02 -0.10816116015E+03 -0.62427542795E+02  0.16016078170E+03  0.96339268108E+02 0.  0.
         23    2    4    4    0    0  0.41685802940E+03  0.77275081981E+03  0.15642620466E+04  0.17966908931E+04  0.10133098533E+03 0.  0.
          4    1    3    3  502    0 -0.41668418845E+02 -0.68294732436E+02  0.11167949270E+03  0.13737807939E+03  0.00000000000E+00 0. -1.
         -3    1    3    3    0  502 -0.40301382216E+03 -0.59629492722E+03  0.64819938635E+03  0.96858155338E+03  0.00000000000E+00 0.  1.
         11    1    5    5    0    0 -0.19965085800E+02 -0.92344537283E+02 -0.54875989174E+02  0.10925883216E+03  0.00000000000E+00 0. -1.
        -11    1    5    5    0    0  0.47789297403E+02 -0.15816622869E+02 -0.75515536208E+01  0.50901949543E+02  0.00000000000E+00 0.  1.
          3    1    6    6  503    0  0.30971325111E+03  0.60075097163E+03  0.11153123690E+04  0.13041264158E+04  0.00000000000E+00 0. -1.
         -3    1    6    6    0  503  0.10714477829E+03  0.17199984818E+03  0.44894967757E+03  0.49256447728E+03  0.00000000000E+00 0.  1.
<mgrwt>
<rscale>  0 0.20653004E+04</rscale>
<asrwt>0</asrwt>
<pdfrwt beam="1">  1        2 0.40957881E+00 0.20653004E+04</pdfrwt>
<pdfrwt beam="2">  1       -1 0.61622919E-01 0.20653004E+04</pdfrwt>
<totfact> 0.78621059E+00</totfact>
</mgrwt>
</event>
<event>
12    6  0.1542110E-007  0.2128388E+04  0.7818608E-02  0.8548840E-01
          2   -1    0    0  501    0  0.00000000000E+00  0.00000000000E+00  0.20097157610E+04  0.20097157610E+04  0.00000000000E+00 0. -1.
         -1   -1    0    0    0  501 -0.00000000000E+00 -0.00000000000E+00 -0.56351691271E+03  0.56351691271E+03  0.00000000000E+00 0.  1.
         24    2    1    2    0    0 -0.34305672967E+03 -0.76757075155E+03  0.88018665041E+03  0.12197693325E+04  0.79094288675E+02 0.  0.
        254    2    1    2    0    0  0.34305672967E+03  0.76757075155E+03  0.56601219792E+03  0.13534633413E+04  0.89701751908E+03 0.  0.
         23    2    4    4    0    0  0.12387128053E+03 -0.18775965404E+03  0.84166913138E+02  0.25709234162E+03  0.91731243475E+02 0.  0.
         23    2    4    4    0    0  0.21918544914E+03  0.95533040559E+03  0.48184528479E+03  0.10963709996E+04  0.95687227117E+02 0.  0.
          2    1    3    3  502    0 -0.10109106093E+03 -0.25781095548E+03  0.24054559504E+03  0.36680795337E+03  0.00000000000E+00 0. -1.
         -1    1    3    3    0  502 -0.24196566874E+03 -0.50975979608E+03  0.63964105537E+03  0.85296137911E+03  0.00000000000E+00 0.  1.
         11    1    5    5    0    0  0.13337074584E+03 -0.15159536403E+03  0.86427550418E+02  0.21963294770E+03  0.00000000000E+00 0.  1.
        -11    1    5    5    0    0 -0.94994653072E+01 -0.36164290002E+02 -0.22606372794E+01  0.37459393927E+02  0.00000000000E+00 0. -1.
          1    1    6    6  503    0  0.53579617332E+02  0.40524527604E+03  0.16997710125E+03  0.44270387856E+03  0.00000000000E+00 0. -1.
         -1    1    6    6    0  503  0.16560583181E+03  0.55008512955E+03  0.31186818354E+03  0.65366712108E+03  0.00000000000E+00 0.  1.
<mgrwt>
<rscale>  0 0.21283880E+04</rscale>
<asrwt>0</asrwt>
<pdfrwt beam="1">  1        2 0.30918704E+00 0.21283880E+04</pdfrwt>
<pdfrwt beam="2">  1       -1 0.86694911E-01 0.21283880E+04</pdfrwt>
<totfact> 0.90564949E+00</totfact>
</mgrwt>
</event>
<event>
12    6  0.1542110E-007  0.2100597E+04  0.7818608E-02  0.8560980E-01
         -1   -1    0    0    0  501 -0.00000000000E+00  0.00000000000E+00  0.91244904481E+03  0.91244904481E+03  0.00000000000E+00 0.  1.
          2   -1    0    0  501    0  0.00000000000E+00 -0.00000000000E+00 -0.12089740110E+04  0.12089740110E+04  0.00000000000E+00 0. -1.
         24    2    1    2    0    0  0.61480872183E+03  0.56977611632E+03 -0.26351476489E+03  0.88219856894E+03  0.78738151852E+02 0.  0.
        254    2    1    2    0    0 -0.61480872183E+03 -0.56977611632E+03 -0.33010201282E+02  0.12392244869E+04  0.91211461355E+03 0.  0.
         23    2    4    4    0    0 -0.48521666415E+03 -0.55090694460E+03 -0.39880878062E+03  0.84039221700E+03  0.90977811144E+02 0.  0.
         23    2    4    4    0    0 -0.12959205769E+03 -0.18869171721E+02  0.36579857934E+03  0.39883226985E+03  0.90046831016E+02 0.  0.
          4    1    3    3  502    0  0.49060705424E+03  0.42781157045E+03 -0.17632029769E+03  0.67439370464E+03  0.00000000000E+00 0. -1.
         -3    1    3    3    0  502  0.12420166759E+03  0.14196454587E+03 -0.87194467200E+02  0.20780486430E+03  0.00000000000E+00 0.  1.
         11    1    5    5    0    0 -0.48257852033E+03 -0.54547891256E+03 -0.40362410807E+03  0.83267141956E+03  0.00000000000E+00 0.  1.
        -11    1    5    5    0    0 -0.26381438186E+01 -0.54280320408E+01  0.48153274553E+01  0.77207974423E+01  0.00000000000E+00 0. -1.
          1    1    6    6  503    0 -0.34040746461E+02 -0.39889088673E+02  0.71299162917E+02  0.88506962706E+02  0.00000000000E+00 0. -1.
         -1    1    6    6    0  503 -0.95551311224E+02  0.21019916951E+02  0.29449941642E+03  0.31032530715E+03  0.00000000000E+00 0.  1.
<mgrwt>
<rscale>  0 0.21005972E+04</rscale>
<asrwt>0</asrwt>
<pdfrwt beam="1">  1        2 0.18599600E+00 0.21005972E+04</pdfrwt>
<pdfrwt beam="2">  1       -1 0.14037678E+00 0.21005972E+04</pdfrwt>
<totfact> 0.81810709E+00</totfact>
</mgrwt>
</event>
<event>
12    6  0.1542110E-007  0.1752950E+04  0.7818608E-02  0.8731728E-01
          2   -1    0    0  501    0  0.00000000000E+00  0.00000000000E+00  0.10472097716E+04  0.10472097716E+04  0.00000000000E+00 0. -1.
         -1   -1    0    0    0  501 -0.00000000000E+00 -0.00000000000E+00 -0.73357625054E+03  0.73357625054E+03  0.00000000000E+00 0.  1.
         24    2    1    2    0    0 -0.21150940224E+03  0.62288340277E+02 -0.49470558098E+03  0.54744717779E+03  0.79678956112E+02 0.  0.
        254    2    1    2    0    0  0.21150940224E+03 -0.62288340277E+02  0.80833910204E+03  0.12333388444E+04  0.90503952208E+03 0.  0.
         23    2    4    4    0    0 -0.10771518598E+03 -0.40811031997E+02 -0.15448405127E+03  0.21463663514E+03  0.94527569645E+02 0.  0.
         23    2    4    4    0    0  0.31922458822E+03 -0.21477308280E+02  0.96282315331E+03  0.10187022092E+04  0.91433877802E+02 0.  0.
          2    1    3    3  502    0 -0.10214448762E+03 -0.55971995185E+01 -0.26621467952E+03  0.28519305844E+03  0.00000000000E+00 0. -1.
         -1    1    3    3    0  502 -0.10936491462E+03  0.67885539796E+02 -0.22849090147E+03  0.26225411935E+03  0.00000000000E+00 0.  1.
         11    1    5    5    0    0  0.14072594595E+02 -0.16551478325E+02 -0.41057379458E+02  0.46451025407E+02  0.00000000000E+00 0. -1.
        -11    1    5    5    0    0 -0.12178778058E+03 -0.24259553672E+02 -0.11342667181E+03  0.16818560973E+03  0.00000000000E+00 0.  1.
          4    1    6    6  503    0  0.20645848468E+03 -0.44101840200E+02  0.71450433299E+03  0.74504128749E+03  0.00000000000E+00 0. -1.
         -4    1    6    6    0  503  0.11276610354E+03  0.22624531920E+02  0.24831882032E+03  0.27366092173E+03  0.00000000000E+00 0.  1.
<mgrwt>
<rscale>  0 0.17529498E+04</rscale>
<asrwt>0</asrwt>
<pdfrwt beam="1">  1        2 0.16110920E+00 0.17529498E+04</pdfrwt>
<pdfrwt beam="2">  1       -1 0.11285788E+00 0.17529498E+04</pdfrwt>
<totfact> 0.18245076E+01</totfact>
</mgrwt>
</event>
<event>
12    6  0.1542110E-007  0.1263207E+04  0.7818608E-02  0.9059262E-01
         -1   -1    0    0    0  501 -0.00000000000E+00  0.00000000000E+00  0.32509776238E+03  0.32509776238E+03  0.00000000000E+00 0.  1.
          2   -1    0    0  501    0  0.00000000000E+00 -0.00000000000E+00 -0.12270855540E+04  0.12270855540E+04  0.00000000000E+00 0. -1.
         24    2    1    2    0    0  0.22190591468E+03 -0.15320143568E+03 -0.15948491310E+03  0.32340509348E+03  0.80265198645E+02 0.  0.
        254    2    1    2    0    0 -0.22190591468E+03  0.15320143568E+03 -0.74250287853E+03  0.12287782229E+04  0.94120799064E+03 0.  0.
         23    2    4    4    0    0 -0.42594696508E+03  0.57978018370E+02 -0.85619422141E+03  0.96238871029E+03  0.91275501853E+02 0.  0.
         23    2    4    4    0    0  0.20404105040E+03  0.95223417312E+02  0.11369134287E+03  0.26638951264E+03  0.85658633813E+02 0.  0.
          2    1    3    3  502    0  0.15876600147E+00 -0.27934414826E+01 -0.22129455193E+02  0.22305634021E+02  0.00000000000E+00 0. -1.
         -1    1    3    3    0  502  0.22174714868E+03 -0.15040799420E+03 -0.13735545791E+03  0.30109945946E+03  0.00000000000E+00 0.  1.
         11    1    5    5    0    0 -0.23336172445E+03  0.10731935096E+02 -0.55045387638E+03  0.59797352691E+03  0.00000000000E+00 0. -1.
        -11    1    5    5    0    0 -0.19258524063E+03  0.47246083275E+02 -0.30574034503E+03  0.36441518337E+03  0.00000000000E+00 0.  1.
          2    1    6    6  503    0  0.11263286642E+03  0.11504303211E+02  0.77701863548E+02  0.13731748319E+03  0.00000000000E+00 0.  1.
         -2    1    6    6    0  503  0.91408183980E+02  0.83719114101E+02  0.35989479326E+02  0.12907202945E+03  0.00000000000E+00 0. -1.
<mgrwt>
<rscale>  0 0.12632067E+04</rscale>
<asrwt>0</asrwt>
<pdfrwt beam="1">  1        2 0.18878239E+00 0.12632067E+04</pdfrwt>
<pdfrwt beam="2">  1       -1 0.50015040E-01 0.12632067E+04</pdfrwt>
<totfact> 0.81986058E+01</totfact>
</mgrwt>
</event>
<event>
12    6  0.1542110E-007  0.1686206E+04  0.7818608E-02  0.8769271E-01
          2   -1    0    0  501    0  0.00000000000E+00  0.00000000000E+00  0.26061575677E+04  0.26061575677E+04  0.00000000000E+00 0. -1.
         -1   -1    0    0    0  501 -0.00000000000E+00 -0.00000000000E+00 -0.27274732798E+03  0.27274732798E+03  0.00000000000E+00 0.  1.
         24    2    1    2    0    0 -0.30006396623E+03 -0.14838207912E+03 -0.36977632332E+01  0.35104337416E+03  0.10565108542E+03 0.  0.
        254    2    1    2    0    0  0.30006396623E+03  0.14838207912E+03  0.23371080029E+04  0.25278615215E+04  0.90330195911E+03 0.  0.
         23    2    4    4    0    0  0.32432206338E+03  0.42327877098E+03  0.81912076013E+03  0.98232556597E+03  0.98259753311E+02 0.  0.
         23    2    4    4    0    0 -0.24258097146E+02 -0.27489669187E+03  0.15179872428E+04  0.15455359555E+04  0.90771548915E+02 0.  0.
          2    1    3    3  502    0 -0.31546009317E+02  0.11353814243E+02  0.17627375156E+02  0.37878544805E+02  0.00000000000E+00 0. -1.
         -1    1    3    3    0  502 -0.26851795692E+03 -0.15973589336E+03 -0.21325138389E+02  0.31316482935E+03  0.00000000000E+00 0.  1.
         11    1    5    5    0    0  0.31362705772E+03  0.38231336285E+03  0.70957497367E+03  0.86488269841E+03  0.00000000000E+00 0.  1.
        -11    1    5    5    0    0  0.10695005659E+02  0.40965408130E+02  0.10954578646E+03  0.11744286756E+03  0.00000000000E+00 0. -1.
          3    1    6    6  503    0 -0.46709018570E+02 -0.95477575787E+02  0.68051675840E+03  0.68876756482E+03  0.00000000000E+00 0. -1.
         -3    1    6    6    0  503  0.22450921424E+02 -0.17941911608E+03  0.83747048441E+03  0.85676839072E+03  0.00000000000E+00 0.  1.
<mgrwt>
<rscale>  0 0.16862058E+04</rscale>
<asrwt>0</asrwt>
<pdfrwt beam="1">  1        2 0.40094730E+00 0.16862058E+04</pdfrwt>
<pdfrwt beam="2">  1       -1 0.41961129E-01 0.16862058E+04</pdfrwt>
<totfact> 0.18298596E+01</totfact>
</mgrwt>
</event>
<event>
12    6  0.1542110E-007  0.1661178E+04  0.7818608E-02  0.8783821E-01
          2   -1    0    0  501    0  0.00000000000E+00  0.00000000000E+00  0.22804080802E+04  0.22804080802E+04  0.00000000000E+00 0. -1.
         -1   -1    0    0    0  501 -0.00000000000E+00 -0.00000000000E+00 -0.30252383740E+03  0.30252383740E+03  0.00000000000E+00 0.  1.
         24    2    1    2    0    0 -0.12500482604E+03 -0.32895495826E+03 -0.25332757598E+02  0.36223660396E+03  0.82073366858E+02 0.  0.
        254    2    1    2    0    0  0.12500482604E+03  0.32895495826E+03  0.20032170004E+04  0.22206953137E+04  0.89149972197E+03 0.  0.
         23    2    4    4    0    0  0.25246213393E+03 -0.24403890584E+03  0.73332532422E+03  0.81874877615E+03  0.96391963765E+02 0.  0.
         23    2    4    4    0    0 -0.12745730789E+03  0.57299386409E+03  0.12698916762E+04  0.14019465375E+04  0.90894945613E+02 0.  0.
          2    1    3    3  502    0 -0.11142234958E+03 -0.18592623276E+03 -0.25675785324E+01  0.21677199191E+03  0.00000000000E+00 0. -1.
         -1    1    3    3    0  502 -0.13582476464E+02 -0.14302872549E+03 -0.22765179065E+02  0.14546461206E+03  0.00000000000E+00 0.  1.
         11    1    5    5    0    0  0.89835807120E+02 -0.33057244416E+02  0.15780631011E+03  0.18457000070E+03  0.00000000000E+00 0. -1.
        -11    1    5    5    0    0  0.16262632681E+03 -0.21098166142E+03  0.57551901411E+03  0.63417877545E+03  0.00000000000E+00 0.  1.
          1    1    6    6  503    0 -0.46399724229E+02  0.74700399775E+02  0.22210273205E+03  0.23887801849E+03  0.00000000000E+00 0. -1.
         -1    1    6    6    0  503 -0.81057583662E+02  0.49829346432E+03  0.10477889442E+04  0.11630685190E+04  0.00000000000E+00 0.  1.
<mgrwt>
<rscale>  0 0.16611777E+04</rscale>
<asrwt>0</asrwt>
<pdfrwt beam="1">  1        2 0.35083200E+00 0.16611777E+04</pdfrwt>
<pdfrwt beam="2">  1       -1 0.46542130E-01 0.16611777E+04</pdfrwt>
<totfact> 0.23262466E+01</totfact>
</mgrwt>
</event>
<event>
12    6  0.1542110E-007  0.2809024E+04  0.7818608E-02  0.8300472E-01
          2   -1    0    0  501    0  0.00000000000E+00  0.00000000000E+00  0.18581365072E+04  0.18581365072E+04  0.00000000000E+00 0. -1.
         -1   -1    0    0    0  501 -0.00000000000E+00 -0.00000000000E+00 -0.10616302493E+04  0.10616302493E+04  0.00000000000E+00 0.  1.
         24    2    1    2    0    0 -0.12119682207E+04  0.27038902186E+03  0.37842970521E+03  0.13009254201E+04  0.84974794038E+02 0.  0.
        254    2    1    2    0    0  0.12119682207E+04 -0.27038902186E+03  0.41807655267E+03  0.16188413364E+04  0.95072713080E+03 0.  0.
         23    2    4    4    0    0  0.24927012185E+03  0.96805878795E+02  0.50676878636E+03  0.58001393002E+03  0.89969908099E+02 0.  0.
         23    2    4    4    0    0  0.96269809888E+03 -0.36719490065E+03 -0.88692233698E+02  0.10388274063E+04  0.98368405566E+02 0.  0.
          4    1    3    3  502    0 -0.24033011655E+03  0.88494239453E+02  0.82374790907E+02  0.26902676728E+03  0.00000000000E+00 0. -1.
         -3    1    3    3    0  502 -0.97163810418E+03  0.18189478240E+03  0.29605491430E+03  0.10318986528E+04  0.00000000000E+00 0.  1.
         11    1    5    5    0    0  0.16806206359E+03  0.10277072305E+03  0.31300661667E+03  0.36983756004E+03  0.00000000000E+00 0.  1.
        -11    1    5    5    0    0  0.81208058259E+02 -0.59648442560E+01  0.19376216969E+03  0.21017636998E+03  0.00000000000E+00 0. -1.
          3    1    6    6  503    0  0.41648217098E+03 -0.14335371584E+03  0.86777857938E+01  0.44054851101E+03  0.00000000000E+00 0. -1.
         -3    1    6    6    0  503  0.54621592790E+03 -0.22384118482E+03 -0.97370019492E+02  0.59827889533E+03  0.00000000000E+00 0.  1.
<mgrwt>
<rscale>  0 0.28090240E+04</rscale>
<asrwt>0</asrwt>
<pdfrwt beam="1">  1        2 0.28586715E+00 0.28090240E+04</pdfrwt>
<pdfrwt beam="2">  1       -1 0.16332773E+00 0.28090240E+04</pdfrwt>
<totfact> 0.21863339E+00</totfact>
</mgrwt>
</event>
<event>
12    6  0.1542110E-007  0.2043564E+04  0.7818608E-02  0.8586519E-01
          2   -1    0    0  501    0  0.00000000000E+00  0.00000000000E+00  0.33863155456E+04  0.33863155456E+04  0.00000000000E+00 0. -1.
         -1   -1    0    0    0  501 -0.00000000000E+00 -0.00000000000E+00 -0.30831118461E+03  0.30831118461E+03  0.00000000000E+00 0.  1.
         24    2    1    2    0    0 -0.57234411959E+03  0.52908253991E+03  0.17339414993E+04  0.19027725840E+04  0.80524891765E+02 0.  0.
        254    2    1    2    0    0  0.57234411959E+03 -0.52908253991E+03  0.13440628616E+04  0.17918541461E+04  0.89259743433E+03 0.  0.
         23    2    4    4    0    0 -0.10338664824E+03  0.14986248705E+03  0.12726303329E+03  0.24061307667E+03  0.92472747118E+02 0.  0.
         23    2    4    4    0    0  0.67573076783E+03 -0.67894502696E+03  0.12167998283E+04  0.15512410695E+04  0.90380380379E+02 0.  0.
          4    1    3    3  502    0 -0.64860419814E+02  0.29025540724E+02  0.15069131406E+03  0.16660500654E+03  0.00000000000E+00 0. -1.
         -3    1    3    3    0  502 -0.50748369978E+03  0.50005699919E+03  0.15832501853E+04  0.17361675775E+04  0.00000000000E+00 0.  1.
         11    1    5    5    0    0 -0.74850257989E+02  0.61124067556E+02  0.10892265957E+03  0.14561201366E+03  0.00000000000E+00 0. -1.
        -11    1    5    5    0    0 -0.28536390254E+02  0.88738419497E+02  0.18340373725E+02  0.95001063004E+02  0.00000000000E+00 0.  1.
          1    1    6    6  503    0  0.26218902138E+03 -0.24169453819E+03  0.38796161184E+03  0.52694738351E+03  0.00000000000E+00 0. -1.
         -1    1    6    6    0  503  0.41354174645E+03 -0.43725048877E+03  0.82883821650E+03  0.10242936860E+04  0.00000000000E+00 0.  1.
<mgrwt>
<rscale>  0 0.20435645E+04</rscale>
<asrwt>0</asrwt>
<pdfrwt beam="1">  1        2 0.52097160E+00 0.20435645E+04</pdfrwt>
<pdfrwt beam="2">  1       -1 0.47432492E-01 0.20435645E+04</pdfrwt>
<totfact> 0.45729939E+00</totfact>
</mgrwt>
</event>
<event>
12    6  0.1542110E-007  0.2229296E+04  0.7818608E-02  0.8506333E-01
          2   -1    0    0  501    0  0.00000000000E+00  0.00000000000E+00  0.26075137181E+04  0.26075137181E+04  0.00000000000E+00 0. -1.
         -1   -1    0    0    0  501 -0.00000000000E+00 -0.00000000000E+00 -0.47648455719E+03  0.47648455719E+03  0.00000000000E+00 0.  1.
         24    2    1    2    0    0 -0.53711051373E+03 -0.70651947034E+03  0.12809600033E+04  0.15604001602E+04  0.79578037356E+02 0.  0.
        254    2    1    2    0    0  0.53711051373E+03  0.70651947034E+03  0.85006915758E+03  0.15235981150E+04  0.90059767797E+03 0.  0.
         23    2    4    4    0    0  0.72103417298E+03  0.34975521853E+03  0.35966573702E+03  0.88323256875E+03  0.92311086145E+02 0.  0.
         23    2    4    4    0    0 -0.18392365924E+03  0.35676425181E+03  0.49040342056E+03  0.64036554630E+03  0.91999316245E+02 0.  0.
          2    1    3    3  502    0 -0.40354748433E+03 -0.53486324387E+03  0.10243246610E+04  0.12239976605E+04  0.00000000000E+00 0. -1.
         -1    1    3    3    0  502 -0.13356302941E+03 -0.17165622647E+03  0.25663534234E+03  0.33640249977E+03  0.00000000000E+00 0.  1.
         11    1    5    5    0    0  0.30385548565E+03  0.12023066001E+03  0.18852087652E+03  0.37725811939E+03  0.00000000000E+00 0. -1.
        -11    1    5    5    0    0  0.41717868733E+03  0.22952455853E+03  0.17114486050E+03  0.50597444936E+03  0.00000000000E+00 0.  1.
          1    1    6    6  503    0 -0.54013609382E+02  0.48048855180E+02  0.53929986717E+02  0.90192050370E+02  0.00000000000E+00 0. -1.
         -1    1    6    6    0  503 -0.12991004986E+03  0.30871539663E+03  0.43647343384E+03  0.55017349593E+03  0.00000000000E+00 0.  1.
<mgrwt>
<rscale>  0 0.22292959E+04</rscale>
<asrwt>0</asrwt>
<pdfrwt beam="1">  1        2 0.40115595E+00 0.22292959E+04</pdfrwt>
<pdfrwt beam="2">  1       -1 0.73305318E-01 0.22292959E+04</pdfrwt>
<totfact> 0.58626613E+00</totfact>
</mgrwt>
</event>
<event>
12    6  0.1542110E-007  0.1942998E+04  0.7818608E-02  0.8633745E-01
          2   -1    0    0  501    0  0.00000000000E+00  0.00000000000E+00  0.17179667863E+04  0.17179667863E+04  0.00000000000E+00 0. -1.
         -1   -1    0    0    0  501 -0.00000000000E+00 -0.00000000000E+00 -0.54937635625E+03  0.54937635625E+03  0.00000000000E+00 0.  1.
         24    2    1    2    0    0  0.17792425993E+02 -0.74624320750E+03  0.65390056818E+03  0.99560811525E+03  0.80337232476E+02 0.  0.
        254    2    1    2    0    0 -0.17792425993E+02  0.74624320750E+03  0.51468986184E+03  0.12717350273E+04  0.89174482368E+03 0.  0.
         23    2    4    4    0    0 -0.32650579891E+03  0.49639751277E+03  0.60698134947E+03  0.85407415935E+03  0.89441509674E+02 0.  0.
         23    2    4    4    0    0  0.30871337291E+03  0.24984569474E+03 -0.92291487632E+02  0.41766086793E+03  0.90532116494E+02 0.  0.
          2    1    3    3  502    0  0.60038983152E+01 -0.27324161176E+02  0.47009107248E+02  0.54703864062E+02  0.00000000000E+00 0. -1.
         -1    1    3    3    0  502  0.11788527678E+02 -0.71891904633E+03  0.60689146093E+03  0.94090425119E+03  0.00000000000E+00 0.  1.
         11    1    5    5    0    0 -0.22633748478E+03  0.26471349082E+03  0.36136748832E+03  0.50188479839E+03  0.00000000000E+00 0.  1.
        -11    1    5    5    0    0 -0.10016831412E+03  0.23168402195E+03  0.24561386115E+03  0.35218936095E+03  0.00000000000E+00 0. -1.
          2    1    6    6  503    0  0.18339506375E+03  0.12712055865E+03 -0.94287278712E+02  0.24224672705E+03  0.00000000000E+00 0. -1.
         -2    1    6    6    0  503  0.12531830917E+03  0.12272513608E+03  0.19957910806E+01  0.17541414088E+03  0.00000000000E+00 0.  1.
<mgrwt>
<rscale>  0 0.19429980E+04</rscale>
<asrwt>0</asrwt>
<pdfrwt beam="1">  1        2 0.26430258E+00 0.19429980E+04</pdfrwt>
<pdfrwt beam="2">  1       -1 0.84519440E-01 0.19429980E+04</pdfrwt>
<totfact> 0.14120223E+01</totfact>
</mgrwt>
</event>
<event>
12    6  0.1542110E-007  0.1009778E+04  0.7818608E-02  0.9297885E-01
         -1   -1    0    0    0  501 -0.00000000000E+00  0.00000000000E+00  0.25557754049E+03  0.25557754049E+03  0.00000000000E+00 0.  1.
          2   -1    0    0  501    0  0.00000000000E+00 -0.00000000000E+00 -0.99739926325E+03  0.99739926325E+03  0.00000000000E+00 0. -1.
         24    2    1    2    0    0  0.22054217839E+02 -0.44230838088E+02 -0.13019398627E+03  0.16125912219E+03  0.81309746441E+02 0.  0.
        254    2    1    2    0    0 -0.22054217839E+02  0.44230838088E+02 -0.61162773649E+03  0.10917176815E+04  0.90294864338E+03 0.  0.
         23    2    4    4    0    0  0.21299549073E+02 -0.38424420889E+03 -0.84417642177E+02  0.40472888925E+03  0.92638289194E+02 0.  0.
         23    2    4    4    0    0 -0.43353766912E+02  0.42847504698E+03 -0.52721009432E+03  0.68698879229E+03  0.92372626891E+02 0.  0.
          2    1    3    3  502    0  0.34030786467E+02 -0.59317913067E+02 -0.12293108436E+03  0.14067253015E+03  0.00000000000E+00 0. -1.
         -1    1    3    3    0  502 -0.11976568628E+02  0.15087074980E+02 -0.72629019127E+01  0.20586592038E+02  0.00000000000E+00 0.  1.
         11    1    5    5    0    0  0.13822804208E+02 -0.27855134814E+03 -0.10270755696E+03  0.29720492210E+03  0.00000000000E+00 0. -1.
        -11    1    5    5    0    0  0.74767448651E+01 -0.10569286076E+03  0.18289914783E+02  0.10752396715E+03  0.00000000000E+00 0.  1.
          2    1    6    6  503    0 -0.61323241154E+01  0.35317754146E+03 -0.45642783284E+03  0.57714672985E+03  0.00000000000E+00 0.  1.
         -2    1    6    6    0  503 -0.37221442797E+02  0.75297505519E+02 -0.70782261480E+02  0.10984206244E+03  0.00000000000E+00 0. -1.
<mgrwt>
<rscale>  0 0.10097779E+04</rscale>
<asrwt>0</asrwt>
<pdfrwt beam="1">  1        2 0.15344604E+00 0.10097779E+04</pdfrwt>
<pdfrwt beam="2">  1       -1 0.39319622E-01 0.10097779E+04</pdfrwt>
<totfact> 0.18065217E+02</totfact>
</mgrwt>
</event>
<event>
12    6  0.1542110E-007  0.2013837E+04  0.7818608E-02  0.8600179E-01
          2   -1    0    0  501    0  0.00000000000E+00  0.00000000000E+00  0.12234630440E+04  0.12234630440E+04  0.00000000000E+00 0. -1.
         -1   -1    0    0    0  501 -0.00000000000E+00 -0.00000000000E+00 -0.82870064736E+03  0.82870064736E+03  0.00000000000E+00 0.  1.
         24    2    1    2    0    0 -0.64540076302E+03 -0.12188288564E+03 -0.32301696678E+03  0.73626623475E+03  0.79689553226E+02 0.  0.
        254    2    1    2    0    0  0.64540076302E+03  0.12188288564E+03  0.71777936340E+03  0.13158974566E+04  0.88599171498E+03 0.  0.
         23    2    4    4    0    0  0.33965673097E+03 -0.23922723113E+03  0.71747856975E+03  0.83403163584E+03  0.90757415813E+02 0.  0.
         23    2    4    4    0    0  0.30574403205E+03  0.36111011677E+03  0.30079364952E+00  0.48186582075E+03  0.91184698057E+02 0.  0.
          2    1    3    3  502    0 -0.14224888167E+03  0.32840245724E+01 -0.54432357910E+02  0.15234306923E+03  0.00000000000E+00 0. -1.
         -1    1    3    3    0  502 -0.50315188134E+03 -0.12516691021E+03 -0.26858460887E+03  0.58392316552E+03  0.00000000000E+00 0.  1.
         11    1    5    5    0    0  0.22154639747E+03 -0.18212512878E+03  0.55916984845E+03  0.62842922288E+03  0.00000000000E+00 0.  1.
        -11    1    5    5    0    0  0.11811033350E+03 -0.57102102358E+02  0.15830872130E+03  0.20560241295E+03  0.00000000000E+00 0. -1.
          4    1    6    6  503    0  0.24796283812E+03  0.33275762371E+03 -0.16612510100E+02  0.41531816806E+03  0.00000000000E+00 0. -1.
         -4    1    6    6    0  503  0.57781193936E+02  0.28352493059E+02  0.16913303750E+02  0.66547652694E+02  0.00000000000E+00 0.  1.
<mgrwt>
<rscale>  0 0.20138368E+04</rscale>
<asrwt>0</asrwt>
<pdfrwt beam="1">  1        2 0.18822508E+00 0.20138368E+04</pdfrwt>
<pdfrwt beam="2">  1       -1 0.12749241E+00 0.20138368E+04</pdfrwt>
<totfact> 0.10336694E+01</totfact>
</mgrwt>
</event>
<event>
12    6  0.1542110E-007  0.1387035E+04  0.7818608E-02  0.8963257E-01
         -1   -1    0    0    0  501 -0.00000000000E+00  0.00000000000E+00  0.23428639368E+03  0.23428639368E+03  0.00000000000E+00 0.  1.
          2   -1    0    0  501    0  0.00000000000E+00 -0.00000000000E+00 -0.20528993037E+04  0.20528993037E+04  0.00000000000E+00 0. -1.
         24    2    1    2    0    0  0.13575233161E+03  0.34807650603E+03 -0.39095864649E+03  0.54663865485E+03  0.79869932538E+02 0.  0.
        254    2    1    2    0    0 -0.13575233161E+03 -0.34807650603E+03 -0.14276542635E+04  0.17405470425E+04  0.92288751293E+03 0.  0.
         23    2    4    4    0    0  0.23196826798E+03  0.58913167358E+02 -0.10174207446E+04  0.10495891394E+04  0.95980994707E+02 0.  0.
         23    2    4    4    0    0 -0.36772059958E+03 -0.40698967339E+03 -0.41023351894E+03  0.69095790315E+03  0.90951911836E+02 0.  0.
          4    1    3    3  502    0  0.84940312553E+02  0.17416693622E+03 -0.25421452457E+03  0.31964668444E+03  0.00000000000E+00 0. -1.
         -1    1    3    3    0  502  0.50812019052E+02  0.17390956981E+03 -0.13674412192E+03  0.22699197041E+03  0.00000000000E+00 0.  1.
         11    1    5    5    0    0  0.22184995294E+03  0.71142860726E+02 -0.84785131767E+03  0.87927843436E+03  0.00000000000E+00 0. -1.
        -11    1    5    5    0    0  0.10118315036E+02 -0.12229693369E+02 -0.16956942691E+03  0.17031070501E+03  0.00000000000E+00 0.  1.
          3    1    6    6  503    0 -0.30857376815E+03 -0.37028060769E+03 -0.38508926870E+03  0.61694346879E+03  0.00000000000E+00 0. -1.
         -3    1    6    6    0  503 -0.59146831438E+02 -0.36709065703E+02 -0.25144250237E+02  0.74014434362E+02  0.00000000000E+00 0.  1.
<mgrwt>
<rscale>  0 0.13870348E+04</rscale>
<asrwt>0</asrwt>
<pdfrwt beam="1">  1        2 0.31583066E+00 0.13870348E+04</pdfrwt>
<pdfrwt beam="2">  1       -1 0.36044060E-01 0.13870348E+04</pdfrwt>
<totfact> 0.51032753E+01</totfact>
</mgrwt>
</event>
<event>
12    6  0.1542110E-007  0.1123406E+04  0.7818608E-02  0.9182675E-01
         -1   -1    0    0    0  501 -0.00000000000E+00  0.00000000000E+00  0.16055322649E+03  0.16055322649E+03  0.00000000000E+00 0.  1.
          2   -1    0    0  501    0  0.00000000000E+00 -0.00000000000E+00 -0.19651431106E+04  0.19651431106E+04  0.00000000000E+00 0. -1.
         24    2    1    2    0    0 -0.50824929799E+02 -0.50519749830E+02  0.44858930848E+01  0.10740406833E+03  0.79875478375E+02 0.  0.
        254    2    1    2    0    0  0.50824929799E+02  0.50519749830E+02 -0.18090757772E+04  0.20182922687E+04  0.89197146586E+03 0.  0.
         23    2    4    4    0    0  0.24882005972E+03 -0.18420225607E+03 -0.20342173960E+03  0.38101449184E+03  0.89161345824E+02 0.  0.
         23    2    4    4    0    0 -0.19799512992E+03  0.23472200590E+03 -0.16056540376E+04  0.16372777769E+04  0.90868800141E+02 0.  0.
          4    1    3    3  502    0  0.88482872462E+01 -0.43260602619E+02  0.14471626800E+02  0.46467191742E+02  0.00000000000E+00 0. -1.
         -3    1    3    3    0  502 -0.59673217045E+02 -0.72591472106E+01 -0.99857337152E+01  0.60936876591E+02  0.00000000000E+00 0.  1.
         11    1    5    5    0    0  0.16055361800E+02 -0.28027903768E+02 -0.55146287227E+02  0.63909709959E+02  0.00000000000E+00 0. -1.
        -11    1    5    5    0    0  0.23276469792E+03 -0.15617435230E+03 -0.14827545237E+03  0.31710478188E+03  0.00000000000E+00 0.  1.
          1    1    6    6  503    0  0.33454018089E+01 -0.46224392060E+01 -0.12906293882E+02  0.14111381195E+02  0.00000000000E+00 0. -1.
         -1    1    6    6    0  503 -0.20134053173E+03  0.23934444511E+03 -0.15927477437E+04  0.16231663957E+04  0.00000000000E+00 0.  1.
<mgrwt>
<rscale>  0 0.11234057E+04</rscale>
<asrwt>0</asrwt>
<pdfrwt beam="1">  1        2 0.30232970E+00 0.11234057E+04</pdfrwt>
<pdfrwt beam="2">  1       -1 0.24700497E-01 0.11234057E+04</pdfrwt>
<totfact> 0.11302472E+02</totfact>
</mgrwt>
</event>
<event>
12    6  0.1542110E-007  0.1764838E+04  0.7818608E-02  0.8725225E-01
          2   -1    0    0  501    0  0.00000000000E+00  0.00000000000E+00  0.16115750824E+04  0.16115750824E+04  0.00000000000E+00 0. -1.
         -1   -1    0    0    0  501 -0.00000000000E+00 -0.00000000000E+00 -0.48316923400E+03  0.48316923400E+03  0.00000000000E+00 0.  1.
         24    2    1    2    0    0 -0.23587405926E+03 -0.59905079726E+03  0.28611849533E+03  0.70902483243E+03  0.79711919492E+02 0.  0.
        254    2    1    2    0    0  0.23587405926E+03  0.59905079726E+03  0.84228735312E+03  0.13857194840E+04  0.89234078335E+03 0.  0.
         23    2    4    4    0    0 -0.24902400209E+03  0.24167347186E+02  0.19515351325E+02  0.26726594553E+03  0.91941407522E+02 0.  0.
         23    2    4    4    0    0  0.48489806134E+03  0.57488345007E+03  0.82277200179E+03  0.11184535385E+04  0.91473710724E+02 0.  0.
          4    1    3    3  502    0 -0.17264632555E+03 -0.42605339768E+03  0.24248397369E+03  0.51973717290E+03  0.00000000000E+00 0. -1.
         -3    1    3    3    0  502 -0.63227733708E+02 -0.17299739958E+03  0.43634521632E+02  0.18928765953E+03  0.00000000000E+00 0.  1.
         11    1    5    5    0    0 -0.12171993960E+03 -0.34011986619E+02  0.14448933109E+02  0.12720585913E+03  0.00000000000E+00 0.  1.
        -11    1    5    5    0    0 -0.12730406249E+03  0.58179333805E+02  0.50664182165E+01  0.14006008640E+03  0.00000000000E+00 0. -1.
          3    1    6    6  503    0  0.24660498871E+03  0.24440897240E+03  0.42827123740E+03  0.55133113373E+03  0.00000000000E+00 0. -1.
         -3    1    6    6    0  503  0.23829307264E+03  0.33047447768E+03  0.39450076440E+03  0.56712240475E+03  0.00000000000E+00 0.  1.
<mgrwt>
<rscale>  0 0.17648382E+04</rscale>
<asrwt>0</asrwt>
<pdfrwt beam="1">  1        2 0.24793463E+00 0.17648382E+04</pdfrwt>
<pdfrwt beam="2">  1       -1 0.74333729E-01 0.17648382E+04</pdfrwt>
<totfact> 0.21584910E+01</totfact>
</mgrwt>
</event>
<event>
12    6  0.1542110E-007  0.2581413E+04  0.7818608E-02  0.8374542E-01
          2   -1    0    0  501    0  0.00000000000E+00  0.00000000000E+00  0.18189326282E+04  0.18189326282E+04  0.00000000000E+00 0. -1.
         -1   -1    0    0    0  501 -0.00000000000E+00 -0.00000000000E+00 -0.91587990687E+03  0.91587990687E+03  0.00000000000E+00 0.  1.
         24    2    1    2    0    0  0.65099766513E+02  0.89101541223E+03 -0.33786422860E+03  0.95839931663E+03  0.78933951570E+02 0.  0.
        254    2    1    2    0    0 -0.65099766513E+02 -0.89101541223E+03  0.12409169500E+04  0.17764132185E+04  0.90422486231E+03 0.  0.
         23    2    4    4    0    0 -0.25294597845E+03  0.67014721861E+02  0.17222624108E+03  0.32607825427E+03  0.90512478868E+02 0.  0.
         23    2    4    4    0    0  0.18784621193E+03 -0.95803013409E+03  0.10686907089E+04  0.14503349642E+04  0.90905115243E+02 0.  0.
          4    1    3    3  502    0  0.29015856397E+02  0.39905002607E+03 -0.10950241450E+03  0.41481757679E+03  0.00000000000E+00 0. -1.
         -3    1    3    3    0  502  0.36083910116E+02  0.49196538616E+03 -0.22836181410E+03  0.54358173984E+03  0.00000000000E+00 0.  1.
         11    1    5    5    0    0 -0.94730415841E+01  0.26087468123E+02  0.31168244519E+02  0.41734326115E+02  0.00000000000E+00 0. -1.
        -11    1    5    5    0    0 -0.24347293686E+03  0.40927253738E+02  0.14105799657E+03  0.28434392815E+03  0.00000000000E+00 0.  1.
          4    1    6    6  503    0  0.31147924361E+01 -0.11797798794E+03  0.98075618712E+02  0.15345140780E+03  0.00000000000E+00 0. -1.
         -4    1    6    6    0  503  0.18473141950E+03 -0.84005214615E+03  0.97061509018E+03  0.12968835564E+04  0.00000000000E+00 0.  1.
<mgrwt>
<rscale>  0 0.25814134E+04</rscale>
<asrwt>0</asrwt>
<pdfrwt beam="1">  1        2 0.27983579E+00 0.25814134E+04</pdfrwt>
<pdfrwt beam="2">  1       -1 0.14090460E+00 0.25814134E+04</pdfrwt>
<totfact> 0.35001737E+00</totfact>
</mgrwt>
</event>
<event>
12    6  0.1542110E-007  0.1338181E+04  0.7818608E-02  0.8999824E-01
          2   -1    0    0  501    0  0.00000000000E+00  0.00000000000E+00  0.54913449644E+03  0.54913449644E+03  0.00000000000E+00 0. -1.
         -1   -1    0    0    0  501 -0.00000000000E+00 -0.00000000000E+00 -0.81525015570E+03  0.81525015570E+03  0.00000000000E+00 0.  1.
         24    2    1    2    0    0  0.27679540075E+03 -0.22721019794E+03 -0.10324554025E+03  0.38133977187E+03  0.80747830309E+02 0.  0.
        254    2    1    2    0    0 -0.27679540075E+03  0.22721019794E+03 -0.16287011901E+03  0.98304488027E+03  0.90089421856E+03 0.  0.
         23    2    4    4    0    0  0.12840189427E+03  0.25831493742E+02 -0.42397204214E+03  0.45252271134E+03  0.88714143409E+02 0.  0.
         23    2    4    4    0    0 -0.40519729502E+03  0.20137870420E+03  0.26110192313E+03  0.53052216894E+03  0.92419300349E+02 0.  0.
          4    1    3    3  502    0  0.11112320612E+03 -0.88923001029E+02 -0.49209781226E+00  0.14232325604E+03  0.00000000000E+00 0. -1.
         -3    1    3    3    0  502  0.16567219464E+03 -0.13828719691E+03 -0.10275344243E+03  0.23901651583E+03  0.00000000000E+00 0.  1.
         11    1    5    5    0    0  0.10755560901E+02  0.23481387841E+02 -0.22806238714E+02  0.34455510293E+02  0.00000000000E+00 0. -1.
        -11    1    5    5    0    0  0.11764633336E+03  0.23501059010E+01 -0.40116580342E+03  0.41806720104E+03  0.00000000000E+00 0.  1.
          1    1    6    6  503    0 -0.77564003150E+02  0.57912728971E+02  0.19070832355E+02  0.98659796312E+02  0.00000000000E+00 0. -1.
         -1    1    6    6    0  503 -0.32763329187E+03  0.14346597523E+03  0.24203109077E+03  0.43186237262E+03  0.00000000000E+00 0.  1.
<mgrwt>
<rscale>  0 0.13381808E+04</rscale>
<asrwt>0</asrwt>
<pdfrwt beam="1">  1        2 0.84482231E-01 0.13381808E+04</pdfrwt>
<pdfrwt beam="2">  1       -1 0.12542310E+00 0.13381808E+04</pdfrwt>
<totfact> 0.34215393E+01</totfact>
</mgrwt>
</event>
<event>
12    6  0.1542110E-007  0.1138195E+04  0.7818608E-02  0.9168744E-01
          4   -1    0    0  501    0  0.00000000000E+00  0.00000000000E+00  0.65885903868E+03  0.65885903868E+03  0.00000000000E+00 0. -1.
         -3   -1    0    0    0  501 -0.00000000000E+00 -0.00000000000E+00 -0.49156489603E+03  0.49156489603E+03  0.00000000000E+00 0.  1.
         24    2    1    2    0    0 -0.20536200085E+03  0.20427664268E+02  0.25591540442E+02  0.22241946810E+03  0.78896463716E+02 0.  0.
        254    2    1    2    0    0  0.20536200085E+03 -0.20427664268E+02  0.14170260221E+03  0.92800446662E+03  0.89360048217E+03 0.  0.
         23    2    4    4    0    0 -0.21883199435E+03  0.26331095676E+03  0.19898568818E+03  0.40642074185E+03  0.91446233418E+02 0.  0.
         23    2    4    4    0    0  0.42419399520E+03 -0.28373862103E+03 -0.57283085967E+02  0.52158372477E+03  0.91214469134E+02 0.  0.
          4    1    3    3  502    0 -0.27623364901E+02  0.79743307407E+01  0.33404579269E+02  0.44073871572E+02  0.00000000000E+00 0. -1.
         -3    1    3    3    0  502 -0.17773863595E+03  0.12453333527E+02 -0.78130388270E+01  0.17834559653E+03  0.00000000000E+00 0.  1.
         11    1    5    5    0    0 -0.24856348149E+02  0.66464210918E+02  0.75853062355E+02  0.10387019036E+03  0.00000000000E+00 0. -1.
        -11    1    5    5    0    0 -0.19397564620E+03  0.19684674584E+03  0.12313262582E+03  0.30255055149E+03  0.00000000000E+00 0.  1.
          3    1    6    6  503    0  0.30467691521E+03 -0.23141183856E+03 -0.75118447916E+02  0.38990029867E+03  0.00000000000E+00 0. -1.
         -3    1    6    6    0  503  0.11951707998E+03 -0.52326782468E+02  0.17835361949E+02  0.13168342609E+03  0.00000000000E+00 0.  1.
<mgrwt>
<rscale>  0 0.11381950E+04</rscale>
<asrwt>0</asrwt>
<pdfrwt beam="1">  1        4 0.10136293E+00 0.11381950E+04</pdfrwt>
<pdfrwt beam="2">  1       -3 0.75625368E-01 0.11381950E+04</pdfrwt>
<totfact> 0.29792924E+00</totfact>
</mgrwt>
</event>
<event>
12    6  0.1542110E-007  0.1603549E+04  0.7818608E-02  0.8818371E-01
         -1   -1    0    0    0  501 -0.00000000000E+00  0.00000000000E+00  0.20186391443E+03  0.20186391443E+03  0.00000000000E+00 0.  1.
          2   -1    0    0  501    0  0.00000000000E+00 -0.00000000000E+00 -0.31845326006E+04  0.31845326006E+04  0.00000000000E+00 0. -1.
         24    2    1    2    0    0 -0.11588286375E+03  0.32169661734E+03 -0.17715429824E+04  0.18060127634E+04  0.80000070287E+02 0.  0.
        254    2    1    2    0    0  0.11588286375E+03 -0.32169661734E+03 -0.12111257037E+04  0.15803837516E+04  0.95596536571E+03 0.  0.
         23    2    4    4    0    0 -0.19646396673E+03 -0.30987661158E+03 -0.11935843392E+04  0.12517660485E+04  0.87481773888E+02 0.  0.
         23    2    4    4    0    0  0.31234683048E+03 -0.11820005758E+02 -0.17541364576E+02  0.32861770316E+03  0.99908159396E+02 0.  0.
          4    1    3    3  502    0 -0.73427145407E+02  0.16185260146E+03 -0.72406861445E+03  0.74556231712E+03  0.00000000000E+00 0. -1.
         -3    1    3    3    0  502 -0.42455718340E+02  0.15984401588E+03 -0.10474743680E+04  0.10604504463E+04  0.00000000000E+00 0.  1.
         11    1    5    5    0    0 -0.16012468379E+03 -0.19337421394E+03 -0.88509840549E+03  0.92001776525E+03  0.00000000000E+00 0. -1.
        -11    1    5    5    0    0 -0.36339282944E+02 -0.11650239764E+03 -0.30848593368E+03  0.33174828322E+03  0.00000000000E+00 0.  1.
          2    1    6    6  503    0  0.28407263055E+03 -0.29738054138E+02 -0.39849796216E+02  0.28839143113E+03  0.00000000000E+00 0. -1.
         -2    1    6    6    0  503  0.28274199935E+02  0.17918048380E+02  0.22308431640E+02  0.40226272037E+02  0.00000000000E+00 0.  1.
<mgrwt>
<rscale>  0 0.16035488E+04</rscale>
<asrwt>0</asrwt>
<pdfrwt beam="1">  1        2 0.48992805E+00 0.16035488E+04</pdfrwt>
<pdfrwt beam="2">  1       -1 0.31055989E-01 0.16035488E+04</pdfrwt>
<totfact> 0.14018719E+01</totfact>
</mgrwt>
</event>
<event>
12    6  0.1542110E-007  0.2284962E+04  0.7818608E-02  0.8483874E-01
         -1   -1    0    0    0  501 -0.00000000000E+00  0.00000000000E+00  0.12696513889E+04  0.12696513889E+04  0.00000000000E+00 0.  1.
          2   -1    0    0  501    0  0.00000000000E+00 -0.00000000000E+00 -0.10280477756E+04  0.10280477756E+04  0.00000000000E+00 0. -1.
         24    2    1    2    0    0 -0.33447729137E+03 -0.89629745513E+03  0.22222652869E+03  0.98536834585E+03  0.79636426510E+02 0.  0.
        254    2    1    2    0    0  0.33447729137E+03  0.89629745513E+03  0.19377084585E+02  0.13123308186E+04  0.89811609470E+03 0.  0.
         23    2    4    4    0    0  0.62940440170E+03  0.49915277102E+03  0.23619523625E+02  0.80876631876E+03  0.90783736290E+02 0.  0.
         23    2    4    4    0    0 -0.29492711033E+03  0.39714468411E+03 -0.42424390401E+01  0.50356449985E+03  0.94092011867E+02 0.  0.
          4    1    3    3  502    0  0.18519958954E+01 -0.38028786793E+02  0.11523342505E+02  0.39779466264E+02  0.00000000000E+00 0. -1.
         -3    1    3    3    0  502 -0.33632928726E+03 -0.85826866834E+03  0.21070318619E+03  0.94558887958E+03  0.00000000000E+00 0.  1.
         11    1    5    5    0    0  0.11745112633E+03  0.10002224457E+03  0.40123052643E+02  0.15940224540E+03  0.00000000000E+00 0.  1.
        -11    1    5    5    0    0  0.51195327537E+03  0.39913052645E+03 -0.16503529018E+02  0.64936407337E+03  0.00000000000E+00 0. -1.
          3    1    6    6  503    0 -0.26796289058E+03  0.30671791435E+03  0.13692747386E+02  0.40751378019E+03  0.00000000000E+00 0. -1.
         -3    1    6    6    0  503 -0.26964219749E+02  0.90426769759E+02 -0.17935186426E+02  0.96050719663E+02  0.00000000000E+00 0.  1.
<mgrwt>
<rscale>  0 0.22849615E+04</rscale>
<asrwt>0</asrwt>
<pdfrwt beam="1">  1        2 0.15816120E+00 0.22849615E+04</pdfrwt>
<pdfrwt beam="2">  1       -1 0.19533098E+00 0.22849615E+04</pdfrwt>
<totfact> 0.40565204E+00</totfact>
</mgrwt>
</event>
<event>
12    6  0.1542110E-007  0.1319616E+04  0.7818608E-02  0.9014152E-01
         -1   -1    0    0    0  501 -0.00000000000E+00  0.00000000000E+00  0.41390240532E+03  0.41390240532E+03  0.00000000000E+00 0.  1.
          2   -1    0    0  501    0  0.00000000000E+00 -0.00000000000E+00 -0.10518098457E+04  0.10518098457E+04  0.00000000000E+00 0. -1.
         24    2    1    2    0    0 -0.33934929659E+03 -0.47591866623E+02 -0.15845512533E+03  0.38572676522E+03  0.79083372486E+02 0.  0.
        254    2    1    2    0    0  0.33934929659E+03  0.47591866623E+02 -0.47945231503E+03  0.10799854858E+04  0.90502552242E+03 0.  0.
         23    2    4    4    0    0 -0.28631081376E+03  0.34558951866E+02 -0.30138203731E+02  0.30419580250E+03  0.91970493654E+02 0.  0.
         23    2    4    4    0    0  0.62566011034E+03  0.13032914757E+02 -0.44931411130E+03  0.77578968328E+03  0.91356617307E+02 0.  0.
          4    1    3    3  502    0 -0.22994337613E+02 -0.22896595568E+02 -0.27171791007E+02  0.42323750748E+02  0.00000000000E+00 0. -1.
         -3    1    3    3    0  502 -0.31635495897E+03 -0.24695271055E+02 -0.13128333433E+03  0.34340301448E+03  0.00000000000E+00 0.  1.
         11    1    5    5    0    0 -0.28615535703E+03  0.46858380593E+02 -0.32107554456E+02  0.29173873799E+03  0.00000000000E+00 0.  1.
        -11    1    5    5    0    0 -0.15545672382E+00 -0.12299428727E+02  0.19693507253E+01  0.12457064505E+02  0.00000000000E+00 0. -1.
          1    1    6    6  503    0  0.10251713017E+03 -0.11185230588E+02 -0.38112163877E+02  0.10994275054E+03  0.00000000000E+00 0. -1.
         -1    1    6    6    0  503  0.52314298017E+03  0.24218145345E+02 -0.41120194742E+03  0.66584693273E+03  0.00000000000E+00 0.  1.
<mgrwt>
<rscale>  0 0.13196160E+04</rscale>
<asrwt>0</asrwt>
<pdfrwt beam="1">  1        2 0.16181690E+00 0.13196160E+04</pdfrwt>
<pdfrwt beam="2">  1       -1 0.63677293E-01 0.13196160E+04</pdfrwt>
<totfact> 0.65203321E+01</totfact>
</mgrwt>
</event>
<event>
12    6  0.1542110E-007  0.2212894E+04  0.7818608E-02  0.8513080E-01
         -1   -1    0    0    0  501 -0.00000000000E+00  0.00000000000E+00  0.46122506136E+03  0.46122506136E+03  0.00000000000E+00 0.  1.
          2   -1    0    0  501    0  0.00000000000E+00 -0.00000000000E+00 -0.26542898994E+04  0.26542898994E+04  0.00000000000E+00 0. -1.
         24    2    1    2    0    0 -0.68394332147E+03 -0.54891947986E+03 -0.13284486262E+04  0.15938220185E+04  0.80011323511E+02 0.  0.
        254    2    1    2    0    0  0.68394332147E+03  0.54891947986E+03 -0.86461621186E+03  0.15216929423E+04  0.89381046895E+03 0.  0.
         23    2    4    4    0    0  0.67523340565E+03  0.59605992880E+03 -0.30878862189E+03  0.95654474141E+03  0.91650632711E+02 0.  0.
         23    2    4    4    0    0  0.87099158249E+01 -0.47140448947E+02 -0.55582758997E+03  0.56514820086E+03  0.90277874408E+02 0.  0.
          2    1    3    3  502    0 -0.58135848065E+03 -0.50053047103E+03 -0.11514116515E+04  0.13835668494E+04  0.00000000000E+00 0. -1.
         -1    1    3    3    0  502 -0.10258484083E+03 -0.48389008822E+02 -0.17703697470E+03  0.21025516914E+03  0.00000000000E+00 0.  1.
         11    1    5    5    0    0  0.75064846927E+02  0.10858357196E+03 -0.50789789918E+02  0.14143806455E+03  0.00000000000E+00 0. -1.
        -11    1    5    5    0    0  0.60016855872E+03  0.48747635685E+03 -0.25799883197E+03  0.81510667686E+03  0.00000000000E+00 0.  1.
          2    1    6    6  503    0  0.25574863186E+02 -0.62139906861E+02 -0.26288277303E+03  0.27133520599E+03  0.00000000000E+00 0. -1.
         -2    1    6    6    0  503 -0.16864947361E+02  0.14999457914E+02 -0.29294481694E+03  0.29381299488E+03  0.00000000000E+00 0.  1.
<mgrwt>
<rscale>  0 0.22128941E+04</rscale>
<asrwt>0</asrwt>
<pdfrwt beam="1">  1        2 0.40835229E+00 0.22128941E+04</pdfrwt>
<pdfrwt beam="2">  1       -1 0.70957702E-01 0.22128941E+04</pdfrwt>
<totfact> 0.58943414E+00</totfact>
</mgrwt>
</event>
<event>
12    6  0.1542110E-007  0.3627047E+04  0.7818608E-02  0.8084324E-01
          2   -1    0    0  501    0  0.00000000000E+00  0.00000000000E+00  0.22494665366E+04  0.22494665366E+04  0.00000000000E+00 0. -1.
         -1   -1    0    0    0  501 -0.00000000000E+00 -0.00000000000E+00 -0.14620653358E+04  0.14620653358E+04  0.00000000000E+00 0.  1.
         24    2    1    2    0    0  0.15404744521E+04  0.38833541129E+03  0.97295581171E+03  0.18646743072E+04  0.80630833980E+02 0.  0.
        254    2    1    2    0    0 -0.15404744521E+04 -0.38833541129E+03 -0.18555461099E+03  0.18468575652E+04  0.92335606525E+03 0.  0.
         23    2    4    4    0    0 -0.25359896833E+03 -0.36640364825E+03 -0.31002255701E+03  0.55061649793E+03  0.92198002978E+02 0.  0.
         23    2    4    4    0    0 -0.12868754837E+04 -0.21931763039E+02  0.12446794602E+03  0.12962410672E+04  0.90659373079E+02 0.  0.
          4    1    3    3  502    0  0.11586554701E+04  0.28399010491E+03  0.69011428319E+03  0.13781838055E+04  0.00000000000E+00 0. -1.
         -3    1    3    3    0  502  0.38181898200E+03  0.10434530638E+03  0.28284152852E+03  0.48649050170E+03  0.00000000000E+00 0.  1.
         11    1    5    5    0    0 -0.56025019622E+02 -0.30154100034E+02 -0.59322035092E+02  0.86989519024E+02  0.00000000000E+00 0. -1.
        -11    1    5    5    0    0 -0.19757394870E+03 -0.33624954822E+03 -0.25070052191E+03  0.46362697891E+03  0.00000000000E+00 0.  1.
          2    1    6    6  503    0 -0.16929046254E+03  0.12000210340E+02  0.43567214267E+02  0.17521805819E+03  0.00000000000E+00 0. -1.
         -2    1    6    6    0  503 -0.11175850212E+04 -0.33931973378E+02  0.80900731751E+02  0.11210230090E+04  0.00000000000E+00 0.  1.
<mgrwt>
<rscale>  0 0.36270468E+04</rscale>
<asrwt>0</asrwt>
<pdfrwt beam="1">  1        2 0.34607177E+00 0.36270468E+04</pdfrwt>
<pdfrwt beam="2">  1       -1 0.22493313E+00 0.36270468E+04</pdfrwt>
<totfact> 0.45672377E-01</totfact>
</mgrwt>
</event>
<event>
12    6  0.1542110E-007  0.1264510E+04  0.7818608E-02  0.9058192E-01
         -1   -1    0    0    0  501 -0.00000000000E+00  0.00000000000E+00  0.27130247714E+03  0.27130247714E+03  0.00000000000E+00 0.  1.
          2   -1    0    0  501    0  0.00000000000E+00 -0.00000000000E+00 -0.14734346578E+04  0.14734346578E+04  0.00000000000E+00 0. -1.
         24    2    1    2    0    0  0.16899006770E+02 -0.17752573495E+03 -0.63988113678E+03  0.66906629119E+03  0.80005436122E+02 0.  0.
        254    2    1    2    0    0 -0.16899006770E+02  0.17752573495E+03 -0.56225104394E+03  0.10756708438E+04  0.89952240927E+03 0.  0.
         23    2    4    4    0    0 -0.23710697679E+03 -0.28375726494E+03 -0.13821312076E+03  0.40557625280E+03  0.93012505820E+02 0.  0.
         23    2    4    4    0    0  0.22020797002E+03  0.46128299989E+03 -0.42403792318E+03  0.67009459099E+03  0.89134979344E+02 0.  0.
          2    1    3    3  502    0  0.13678612347E+01 -0.13263450378E+03 -0.56521864442E+03  0.58057376675E+03  0.00000000000E+00 0. -1.
         -3    1    3    3    0  502  0.15531145536E+02 -0.44891231169E+02 -0.74662492358E+02  0.88492524445E+02  0.00000000000E+00 0.  1.
         11    1    5    5    0    0 -0.22478265898E+03 -0.21904400773E+03 -0.99928830936E+02  0.32938319987E+03  0.00000000000E+00 0. -1.
        -11    1    5    5    0    0 -0.12324317802E+02 -0.64713257213E+02 -0.38284289824E+02  0.76193052936E+02  0.00000000000E+00 0.  1.
          4    1    6    6  503    0  0.20784958019E+03  0.45853396662E+03 -0.40029887300E+03  0.64319051163E+03  0.00000000000E+00 0. -1.
         -4    1    6    6    0  503  0.12358389823E+02  0.27490332705E+01 -0.23739050182E+02  0.26904079365E+02  0.00000000000E+00 0.  1.
<mgrwt>
<rscale>  0 0.12645101E+04</rscale>
<asrwt>0</asrwt>
<pdfrwt beam="1">  1        2 0.22668226E+00 0.12645101E+04</pdfrwt>
<pdfrwt beam="2">  1       -1 0.41738842E-01 0.12645101E+04</pdfrwt>
<totfact> 0.82834516E+01</totfact>
</mgrwt>
</event>
<event>
12    6  0.1542110E-007  0.1561237E+04  0.7818608E-02  0.8844722E-01
         -1   -1    0    0    0  501 -0.00000000000E+00  0.00000000000E+00  0.55833564219E+03  0.55833564219E+03  0.00000000000E+00 0.  1.
          2   -1    0    0  501    0  0.00000000000E+00 -0.00000000000E+00 -0.10913953246E+04  0.10913953246E+04  0.00000000000E+00 0. -1.
         24    2    1    2    0    0 -0.27097220846E+03  0.27137289313E+03 -0.53731586858E+03  0.66460375911E+03  0.76945624412E+02 0.  0.
        254    2    1    2    0    0  0.27097220846E+03 -0.27137289313E+03  0.42561861552E+01  0.98512720770E+03  0.90740746930E+03 0.  0.
         23    2    4    4    0    0 -0.16454959073E+03 -0.47819501184E+02  0.33503425056E+03  0.38731114931E+03  0.91644447894E+02 0.  0.
         23    2    4    4    0    0  0.43552179919E+03 -0.22355339195E+03 -0.33077806440E+03  0.59781605839E+03  0.91184182603E+02 0.  0.
          2    1    3    3  502    0 -0.11386766754E+03  0.13206641152E+03 -0.30602788824E+03  0.35222216163E+03  0.00000000000E+00 0. -1.
         -1    1    3    3    0  502 -0.15710454091E+03  0.13930648161E+03 -0.23128798033E+03  0.31238159748E+03  0.00000000000E+00 0.  1.
         11    1    5    5    0    0 -0.81133213589E+02 -0.26083168854E+02  0.75570697873E+02  0.11390285520E+03  0.00000000000E+00 0.  1.
        -11    1    5    5    0    0 -0.83416377143E+02 -0.21736332329E+02  0.25946355268E+03  0.27340829411E+03  0.00000000000E+00 0. -1.
          3    1    6    6  503    0  0.85257637332E+01 -0.71774043369E+01 -0.31153363621E+02  0.33086792609E+02  0.00000000000E+00 0. -1.
         -3    1    6    6    0  503  0.42699603545E+03 -0.21637598761E+03 -0.29962470078E+03  0.56472926578E+03  0.00000000000E+00 0.  1.
<mgrwt>
<rscale>  0 0.15612366E+04</rscale>
<asrwt>0</asrwt>
<pdfrwt beam="1">  1        2 0.16790697E+00 0.15612366E+04</pdfrwt>
<pdfrwt beam="2">  1       -1 0.85897792E-01 0.15612366E+04</pdfrwt>
<totfact> 0.32381415E+01</totfact>
</mgrwt>
</event>
<event>
12    6  0.1542110E-007  0.1487268E+04  0.7818608E-02  0.8892964E-01
          2   -1    0    0  501    0  0.00000000000E+00  0.00000000000E+00  0.12871804741E+04  0.12871804741E+04  0.00000000000E+00 0. -1.
         -1   -1    0    0    0  501 -0.00000000000E+00 -0.00000000000E+00 -0.42961479386E+03  0.42961479386E+03  0.00000000000E+00 0.  1.
         24    2    1    2    0    0 -0.97536122242E+00  0.36750874994E+03  0.58971410587E+03  0.69969907367E+03  0.82173197708E+02 0.  0.
        254    2    1    2    0    0  0.97536122242E+00 -0.36750874994E+03  0.26785157433E+03  0.10170961942E+04  0.90976731634E+03 0.  0.
         23    2    4    4    0    0  0.28216940374E+03 -0.20185419901E+03 -0.22148372547E+03  0.42192639119E+03  0.92747770140E+02 0.  0.
         23    2    4    4    0    0 -0.28119404252E+03 -0.16565455093E+03  0.48933529980E+03  0.59516980306E+03  0.90920509585E+02 0.  0.
          2    1    3    3  502    0 -0.79214228929E+01  0.25590723314E+03  0.47436511314E+03  0.53904871902E+03  0.00000000000E+00 0. -1.
         -1    1    3    3    0  502  0.69460616704E+01  0.11160151681E+03  0.11534899273E+03  0.16065035465E+03  0.00000000000E+00 0.  1.
         11    1    5    5    0    0  0.15379169318E+03 -0.61552513058E+02 -0.13169773865E+03  0.21162441050E+03  0.00000000000E+00 0. -1.
        -11    1    5    5    0    0  0.12837771056E+03 -0.14030168595E+03 -0.89785986816E+02  0.21030198068E+03  0.00000000000E+00 0.  1.
          1    1    6    6  503    0 -0.17502231451E+03 -0.15182568487E+03  0.33145580100E+03  0.40440919522E+03  0.00000000000E+00 0. -1.
         -1    1    6    6    0  503 -0.10617172801E+03 -0.13828866056E+02  0.15787949879E+03  0.19076060784E+03  0.00000000000E+00 0.  1.
<mgrwt>
<rscale>  0 0.14872683E+04</rscale>
<asrwt>0</asrwt>
<pdfrwt beam="1">  1        2 0.19802776E+00 0.14872683E+04</pdfrwt>
<pdfrwt beam="2">  1       -1 0.66094584E-01 0.14872683E+04</pdfrwt>
<totfact> 0.43019669E+01</totfact>
</mgrwt>
</event>
<event>
12    6  0.1542110E-007  0.1334822E+04  0.7818608E-02  0.9002398E-01
         -1   -1    0    0    0  501 -0.00000000000E+00  0.00000000000E+00  0.21952379975E+03  0.21952379975E+03  0.00000000000E+00 0.  1.
          2   -1    0    0  501    0  0.00000000000E+00 -0.00000000000E+00 -0.20291088253E+04  0.20291088253E+04  0.00000000000E+00 0. -1.
         24    2    1    2    0    0 -0.25511838698E+03  0.15569750637E+03 -0.77662105835E+03  0.83724880006E+03  0.92293987228E+02 0.  0.
        254    2    1    2    0    0  0.25511838698E+03 -0.15569750637E+03 -0.10329639672E+04  0.14113838250E+04  0.91414585218E+03 0.  0.
         23    2    4    4    0    0  0.16012035967E+03  0.21160579784E+03  0.27713954198E+02  0.28170515774E+03  0.90411223741E+02 0.  0.
         23    2    4    4    0    0  0.94998027313E+02 -0.36730330421E+03 -0.10606779214E+04  0.11296786673E+04  0.84852199836E+02 0.  0.
          2    1    3    3  502    0 -0.20713331912E+03  0.10316391028E+03 -0.67200621176E+03  0.71073156179E+03  0.00000000000E+00 0. -1.
         -1    1    3    3    0  502 -0.47985067863E+02  0.52533596086E+02 -0.10461484658E+03  0.12651723827E+03  0.00000000000E+00 0.  1.
         11    1    5    5    0    0  0.90134078024E+02  0.11771826672E+03 -0.29821587329E+02  0.15123183994E+03  0.00000000000E+00 0.  1.
        -11    1    5    5    0    0  0.69986281643E+02  0.93887531128E+02  0.57535541527E+02  0.13047331780E+03  0.00000000000E+00 0. -1.
          1    1    6    6  503    0  0.37015455972E+02 -0.92933794999E+02 -0.39233365432E+03  0.40488582408E+03  0.00000000000E+00 0. -1.
         -1    1    6    6    0  503  0.57982571340E+02 -0.27436950921E+03 -0.66834426713E+03  0.72479284321E+03  0.00000000000E+00 0.  1.
<mgrwt>
<rscale>  0 0.13348224E+04</rscale>
<asrwt>0</asrwt>
<pdfrwt beam="1">  1        2 0.31217060E+00 0.13348224E+04</pdfrwt>
<pdfrwt beam="2">  1       -1 0.33772892E-01 0.13348224E+04</pdfrwt>
<totfact> 0.59357430E+01</totfact>
</mgrwt>
</event>
<event>
12    6  0.1542110E-007  0.2369647E+04  0.7818608E-02  0.8450955E-01
         -1   -1    0    0    0  501 -0.00000000000E+00  0.00000000000E+00  0.11946322040E+04  0.11946322040E+04  0.00000000000E+00 0.  1.
          2   -1    0    0  501    0  0.00000000000E+00 -0.00000000000E+00 -0.11750957756E+04  0.11750957756E+04  0.00000000000E+00 0. -1.
         24    2    1    2    0    0  0.90273849447E+03 -0.17032298206E+03  0.40194893693E+03  0.10058707791E+04  0.79160398386E+02 0.  0.
        254    2    1    2    0    0 -0.90273849447E+03  0.17032298206E+03 -0.38241250852E+03  0.13638572005E+04  0.93269524979E+03 0.  0.
         23    2    4    4    0    0 -0.92303847654E+03 -0.15520850886E+02 -0.56378071783E+03  0.10858054305E+04  0.94253960947E+02 0.  0.
         23    2    4    4    0    0  0.20299982070E+02  0.18584383295E+03  0.18136820931E+03  0.27805176995E+03  0.97305395056E+02 0.  0.
          4    1    3    3  502    0  0.14750762114E+03 -0.13838820403E+02  0.93594045510E+02  0.17524227972E+03  0.00000000000E+00 0. -1.
         -3    1    3    3    0  502  0.75523087332E+03 -0.15648416166E+03  0.30835489142E+03  0.83062849935E+03  0.00000000000E+00 0.  1.
         11    1    5    5    0    0 -0.81219641894E+03 -0.41376043586E+02 -0.47843480566E+03  0.94354377916E+03  0.00000000000E+00 0.  1.
        -11    1    5    5    0    0 -0.11084205760E+03  0.25855192700E+02 -0.85345912171E+02  0.14226165135E+03  0.00000000000E+00 0. -1.
          1    1    6    6  503    0 -0.36697614833E+02  0.76316931580E+02  0.95618662859E+02  0.12772594751E+03  0.00000000000E+00 0. -1.
         -1    1    6    6    0  503  0.56997596903E+02  0.10952690137E+03  0.85749546454E+02  0.15032582244E+03  0.00000000000E+00 0.  1.
<mgrwt>
<rscale>  0 0.23696474E+04</rscale>
<asrwt>0</asrwt>
<pdfrwt beam="1">  1        2 0.18078397E+00 0.23696474E+04</pdfrwt>
<pdfrwt beam="2">  1       -1 0.18378957E+00 0.23696474E+04</pdfrwt>
<totfact> 0.39386459E+00</totfact>
</mgrwt>
</event>
<event>
12    6  0.1542110E-007  0.1924906E+04  0.7818608E-02  0.8642557E-01
          2   -1    0    0  501    0  0.00000000000E+00  0.00000000000E+00  0.24775315181E+04  0.24775315181E+04  0.00000000000E+00 0. -1.
         -1   -1    0    0    0  501 -0.00000000000E+00 -0.00000000000E+00 -0.37388670317E+03  0.37388670317E+03  0.00000000000E+00 0.  1.
         24    2    1    2    0    0 -0.53392716812E+03 -0.10461603726E+03  0.15885083444E+04  0.16814451278E+04  0.88748077138E+02 0.  0.
        254    2    1    2    0    0  0.53392716812E+03  0.10461603726E+03  0.51513647053E+03  0.11699730935E+04  0.89858150451E+03 0.  0.
         23    2    4    4    0    0  0.55434122984E+03  0.30341178443E+03  0.65040589700E+03  0.91199890810E+03  0.96753643304E+02 0.  0.
         23    2    4    4    0    0 -0.20414061718E+02 -0.19879574718E+03 -0.13526942647E+03  0.25797418544E+03  0.91194186257E+02 0.  0.
          4    1    3    3  502    0 -0.21247451413E+03 -0.85941987533E+02  0.67454177303E+03  0.71241704636E+03  0.00000000000E+00 0. -1.
         -3    1    3    3    0  502 -0.32145265399E+03 -0.18674049725E+02  0.91396657141E+03  0.96902808140E+03  0.00000000000E+00 0.  1.
         11    1    5    5    0    0  0.10066628939E+02 -0.74374914483E+01  0.12273204877E+02  0.17529542355E+02  0.00000000000E+00 0.  1.
        -11    1    5    5    0    0  0.54427460090E+03  0.31084927588E+03  0.63813269212E+03  0.89446936575E+03  0.00000000000E+00 0. -1.
          1    1    6    6  503    0 -0.52482602993E+02 -0.79317622883E+02 -0.70099560800E+02  0.11815099382E+03  0.00000000000E+00 0. -1.
         -1    1    6    6    0  503  0.32068541275E+02 -0.11947812429E+03 -0.65169865667E+02  0.13982319162E+03  0.00000000000E+00 0.  1.
<mgrwt>
<rscale>  0 0.19249063E+04</rscale>
<asrwt>0</asrwt>
<pdfrwt beam="1">  1        2 0.38115869E+00 0.19249063E+04</pdfrwt>
<pdfrwt beam="2">  1       -1 0.57521033E-01 0.19249063E+04</pdfrwt>
<totfact> 0.11692111E+01</totfact>
</mgrwt>
</event>
<event>
12    6  0.1542110E-007  0.2550982E+04  0.7818608E-02  0.8385045E-01
          2   -1    0    0  501    0  0.00000000000E+00  0.00000000000E+00  0.16042700011E+04  0.16042700011E+04  0.00000000000E+00 0. -1.
         -1   -1    0    0    0  501 -0.00000000000E+00 -0.00000000000E+00 -0.10140920556E+04  0.10140920556E+04  0.00000000000E+00 0.  1.
         24    2    1    2    0    0 -0.83465250005E+03 -0.41742166683E+03 -0.36796409219E+03  0.10062075107E+04  0.78551496776E+02 0.  0.
        254    2    1    2    0    0  0.83465250005E+03  0.41742166683E+03  0.95814203771E+03  0.16121545461E+04  0.90006692652E+03 0.  0.
         23    2    4    4    0    0  0.24214713850E+03 -0.23816746573E+03  0.50352803233E+03  0.61426483673E+03  0.91770539348E+02 0.  0.
         23    2    4    4    0    0  0.59250536155E+03  0.65558913255E+03  0.45461400539E+03  0.99788970934E+03  0.90830963465E+02 0.  0.
          4    1    3    3  502    0 -0.38978929378E+02 -0.12702068138E+02 -0.33412060484E+02  0.52887288229E+02  0.00000000000E+00 0. -1.
         -3    1    3    3    0  502 -0.79567357067E+03 -0.40471959869E+03 -0.33455203171E+03  0.95332022246E+03  0.00000000000E+00 0.  1.
         11    1    5    5    0    0  0.10172407771E+03 -0.13912248764E+03  0.18845604650E+03  0.25537920044E+03  0.00000000000E+00 0.  1.
        -11    1    5    5    0    0  0.14042306078E+03 -0.99044978086E+02  0.31507198583E+03  0.35888563629E+03  0.00000000000E+00 0. -1.
          4    1    6    6  503    0  0.49052760142E+03  0.58489094143E+03  0.40608626416E+03  0.86465067805E+03  0.00000000000E+00 0. -1.
         -4    1    6    6    0  503  0.10197776013E+03  0.70698191127E+02  0.48527741227E+02  0.13323903129E+03  0.00000000000E+00 0.  1.
<mgrwt>
<rscale>  0 0.25509821E+04</rscale>
<asrwt>0</asrwt>
<pdfrwt beam="1">  1        2 0.24681077E+00 0.25509821E+04</pdfrwt>
<pdfrwt beam="2">  1       -1 0.15601416E+00 0.25509821E+04</pdfrwt>
<totfact> 0.35158596E+00</totfact>
</mgrwt>
</event>
<event>
12    6  0.1542110E-007  0.3156594E+04  0.7818608E-02  0.8200376E-01
         -1   -1    0    0    0  501 -0.00000000000E+00  0.00000000000E+00  0.13627800927E+04  0.13627800927E+04  0.00000000000E+00 0.  1.
          2   -1    0    0  501    0  0.00000000000E+00 -0.00000000000E+00 -0.18278965015E+04  0.18278965015E+04  0.00000000000E+00 0. -1.
         24    2    1    2    0    0 -0.62882334410E+03  0.25174806610E+03 -0.15106224414E+04  0.16574403776E+04  0.79577370848E+02 0.  0.
        254    2    1    2    0    0  0.62882334410E+03 -0.25174806610E+03  0.10455060326E+04  0.15332362166E+04  0.89383138491E+03 0.  0.
         23    2    4    4    0    0  0.82488567423E+03 -0.16973244520E+03  0.97357569452E+03  0.12905161003E+04  0.91305495969E+02 0.  0.
         23    2    4    4    0    0 -0.19606233013E+03 -0.82015620895E+02  0.71930338109E+02  0.24272011629E+03  0.92585538538E+02 0.  0.
          2    1    3    3  502    0 -0.27419496828E+03  0.11572714215E+03 -0.56983497602E+03  0.64287444494E+03  0.00000000000E+00 0. -1.
         -1    1    3    3    0  502 -0.35462837582E+03  0.13602092394E+03 -0.94078746540E+03  0.10145659327E+04  0.00000000000E+00 0.  1.
         11    1    5    5    0    0  0.67226225810E+03 -0.16688168186E+03  0.82872242329E+03  0.10800772631E+04  0.00000000000E+00 0. -1.
        -11    1    5    5    0    0  0.15262341613E+03 -0.28507633391E+01  0.14485327123E+03  0.21043883716E+03  0.00000000000E+00 0.  1.
          3    1    6    6  503    0 -0.80158670807E+02 -0.10076671353E+02  0.69047015975E+02  0.10627531334E+03  0.00000000000E+00 0. -1.
         -3    1    6    6    0  503 -0.11590365932E+03 -0.71938949542E+02  0.28833221335E+01  0.13644480295E+03  0.00000000000E+00 0.  1.
<mgrwt>
<rscale>  0 0.31565937E+04</rscale>
<asrwt>0</asrwt>
<pdfrwt beam="1">  1        2 0.28121484E+00 0.31565937E+04</pdfrwt>
<pdfrwt beam="2">  1       -1 0.20965848E+00 0.31565937E+04</pdfrwt>
<totfact> 0.10348692E+00</totfact>
</mgrwt>
</event>
<event>
12    6  0.1542110E-007  0.1944971E+04  0.7818608E-02  0.8632790E-01
          2   -1    0    0  501    0  0.00000000000E+00  0.00000000000E+00  0.59680626204E+03  0.59680626204E+03  0.00000000000E+00 0. -1.
         -1   -1    0    0    0  501 -0.00000000000E+00 -0.00000000000E+00 -0.15846487681E+04  0.15846487681E+04  0.00000000000E+00 0.  1.
         24    2    1    2    0    0  0.64575659996E+02  0.47455645348E+02  0.45909450952E+03  0.47304326379E+03  0.81117856242E+02 0.  0.
        254    2    1    2    0    0 -0.64575659996E+02 -0.47455645348E+02 -0.14469370156E+04  0.17084117664E+04  0.90477731083E+03 0.  0.
         23    2    4    4    0    0  0.36552569320E+03  0.13366207123E+03 -0.88934517442E+03  0.97502001721E+03  0.90854900905E+02 0.  0.
         23    2    4    4    0    0 -0.43010135320E+03 -0.18111771658E+03 -0.55759184118E+03  0.73339174915E+03  0.95728757910E+02 0.  0.
          4    1    3    3  502    0 -0.87959883444E+01  0.10331110755E+01  0.19172772577E+03  0.19193216916E+03  0.00000000000E+00 0. -1.
         -3    1    3    3    0  502  0.73371648341E+02  0.46422534272E+02  0.26736678376E+03  0.28111109463E+03  0.00000000000E+00 0.  1.
         11    1    5    5    0    0  0.29328359665E+03  0.83352729843E+02 -0.75672724555E+03  0.81584255209E+03  0.00000000000E+00 0. -1.
        -11    1    5    5    0    0  0.72242096551E+02  0.50309341392E+02 -0.13261792887E+03  0.15917746512E+03  0.00000000000E+00 0.  1.
          3    1    6    6  503    0 -0.41825717110E+03 -0.16376768170E+03 -0.55198230392E+03  0.71164835318E+03  0.00000000000E+00 0. -1.
         -3    1    6    6    0  503 -0.11844182100E+02 -0.17350034880E+02 -0.56095372552E+01  0.21743395967E+02  0.00000000000E+00 0.  1.
<mgrwt>
<rscale>  0 0.19449713E+04</rscale>
<asrwt>0</asrwt>
<pdfrwt beam="1">  1        2 0.91816349E-01 0.19449713E+04</pdfrwt>
<pdfrwt beam="2">  1       -1 0.24379212E+00 0.19449713E+04</pdfrwt>
<totfact> 0.40727404E+00</totfact>
</mgrwt>
</event>
<event>
12    6  0.1542110E-007  0.2001226E+04  0.7818608E-02  0.8606048E-01
         -1   -1    0    0    0  501 -0.00000000000E+00  0.00000000000E+00  0.45751566122E+03  0.45751566122E+03  0.00000000000E+00 0.  1.
          2   -1    0    0  501    0  0.00000000000E+00 -0.00000000000E+00 -0.21883972450E+04  0.21883972450E+04  0.00000000000E+00 0. -1.
         24    2    1    2    0    0 -0.12311247268E+03 -0.58676008874E+03 -0.51492440377E+01  0.60466790911E+03  0.78439039561E+02 0.  0.
        254    2    1    2    0    0  0.12311247268E+03  0.58676008874E+03 -0.17257323398E+04  0.20412449972E+04  0.91054101895E+03 0.  0.
         23    2    4    4    0    0  0.44373404842E+03  0.35495908455E+03 -0.54417094354E+03  0.79189998890E+03  0.89931747465E+02 0.  0.
         23    2    4    4    0    0 -0.32062157574E+03  0.23180100419E+03 -0.11815613962E+04  0.12493450083E+04  0.90805925980E+02 0.  0.
          2    1    3    3  502    0 -0.80543579534E+01 -0.18539304104E+01  0.20246007454E+01  0.85093330048E+01  0.00000000000E+00 0. -1.
         -1    1    3    3    0  502 -0.11505811473E+03 -0.58490615832E+03 -0.71738447830E+01  0.59615857610E+03  0.00000000000E+00 0.  1.
         11    1    5    5    0    0  0.35347816525E+03  0.25910219512E+03 -0.46144860045E+03  0.63640833722E+03  0.00000000000E+00 0.  1.
        -11    1    5    5    0    0  0.90255883166E+02  0.95856889428E+02 -0.82722343094E+02  0.15549165169E+03  0.00000000000E+00 0. -1.
          3    1    6    6  503    0 -0.30114187941E+02  0.34957370990E+02 -0.24268704010E+03  0.24703417078E+03  0.00000000000E+00 0. -1.
         -3    1    6    6    0  503 -0.29050738780E+03  0.19684363320E+03 -0.93887435615E+03  0.10023108375E+04  0.00000000000E+00 0.  1.
<mgrwt>
<rscale>  0 0.20012256E+04</rscale>
<asrwt>0</asrwt>
<pdfrwt beam="1">  1        2 0.33667649E+00 0.20012256E+04</pdfrwt>
<pdfrwt beam="2">  1       -1 0.70387026E-01 0.20012256E+04</pdfrwt>
<totfact> 0.11309563E+01</totfact>
</mgrwt>
</event>
<event>
12    6  0.1542110E-007  0.1215492E+04  0.7818608E-02  0.9099403E-01
         -1   -1    0    0    0  501 -0.00000000000E+00  0.00000000000E+00  0.63261406171E+03  0.63261406171E+03  0.00000000000E+00 0.  1.
          2   -1    0    0  501    0  0.00000000000E+00 -0.00000000000E+00 -0.58385574200E+03  0.58385574200E+03  0.00000000000E+00 0. -1.
         24    2    1    2    0    0 -0.80400236826E+02  0.20722467659E+03  0.16867929388E+03  0.29063224788E+03  0.81290433984E+02 0.  0.
        254    2    1    2    0    0  0.80400236826E+02 -0.20722467659E+03 -0.11992097417E+03  0.92583755583E+03  0.89072323147E+03 0.  0.
         23    2    4    4    0    0  0.11175420632E+03 -0.27041463013E+03 -0.46642474531E+03  0.55790934430E+03  0.89987324606E+02 0.  0.
         23    2    4    4    0    0 -0.31353969497E+02  0.63189953545E+02  0.34650377114E+03  0.36792821153E+03  0.10163790530E+03 0.  0.
          4    1    3    3  502    0  0.33313015586E+01  0.12417218440E+00 -0.61299518474E+01  0.69777717401E+01  0.00000000000E+00 0. -1.
         -3    1    3    3    0  502 -0.83731538385E+02  0.20710050440E+03  0.17480924573E+03  0.28365447614E+03  0.00000000000E+00 0.  1.
         11    1    5    5    0    0  0.11046005046E+03 -0.27567263923E+03 -0.46585418916E+03  0.55246443535E+03  0.00000000000E+00 0. -1.
        -11    1    5    5    0    0  0.12941558581E+01  0.52580090984E+01 -0.57055615112E+00  0.54449089419E+01  0.00000000000E+00 0.  1.
          3    1    6    6  503    0 -0.62419825063E+02  0.20341402358E+02  0.24254172671E+03  0.25126976819E+03  0.00000000000E+00 0. -1.
         -3    1    6    6    0  503  0.31065855567E+02  0.42848551187E+02  0.10396204443E+03  0.11665844334E+03  0.00000000000E+00 0.  1.
<mgrwt>
<rscale>  0 0.12154922E+04</rscale>
<asrwt>0</asrwt>
<pdfrwt beam="1">  1        2 0.89823960E-01 0.12154922E+04</pdfrwt>
<pdfrwt beam="2">  1       -1 0.97325240E-01 0.12154922E+04</pdfrwt>
<totfact> 0.58582671E+01</totfact>
</mgrwt>
</event>
<event>
12    6  0.1542110E-007  0.2319667E+04  0.7818608E-02  0.8470207E-01
          2   -1    0    0  501    0  0.00000000000E+00  0.00000000000E+00  0.15083257979E+04  0.15083257979E+04  0.00000000000E+00 0. -1.
         -1   -1    0    0    0  501 -0.00000000000E+00 -0.00000000000E+00 -0.89185920251E+03  0.89185920251E+03  0.00000000000E+00 0.  1.
         24    2    1    2    0    0  0.39502670587E+03 -0.78782146986E+03  0.73626443370E+03  0.11503988252E+04  0.67995396592E+02 0.  0.
        254    2    1    2    0    0 -0.39502670587E+03  0.78782146986E+03 -0.11979783834E+03  0.12497861752E+04  0.87801206989E+03 0.  0.
         23    2    4    4    0    0  0.15948292012E+03 -0.86929471361E+02  0.13350552734E+01  0.20330603552E+03  0.91323747768E+02 0.  0.
         23    2    4    4    0    0 -0.55450962599E+03  0.87475094122E+03 -0.12113289361E+03  0.10464801397E+04  0.88189400197E+02 0.  0.
          2    1    3    3  502    0  0.37544602309E+03 -0.76097321616E+03  0.72234696264E+03  0.11143720592E+04  0.00000000000E+00 0. -1.
         -1    1    3    3    0  502  0.19580682780E+02 -0.26848253701E+02  0.13917471057E+02  0.36026765960E+02  0.00000000000E+00 0.  1.
         11    1    5    5    0    0  0.55776215074E+02 -0.27953584495E+02  0.44283632679E+02  0.76507706653E+02  0.00000000000E+00 0. -1.
        -11    1    5    5    0    0  0.10370670504E+03 -0.58975886866E+02 -0.42948577405E+02  0.12679832887E+03  0.00000000000E+00 0.  1.
          3    1    6    6  503    0 -0.24410075180E+03  0.44301258241E+03 -0.90589208698E+02  0.51385964031E+03  0.00000000000E+00 0. -1.
         -3    1    6    6    0  503 -0.31040887419E+03  0.43173835881E+03 -0.30543684917E+02  0.53262049936E+03  0.00000000000E+00 0.  1.
<mgrwt>
<rscale>  0 0.23196674E+04</rscale>
<asrwt>0</asrwt>
<pdfrwt beam="1">  1        2 0.23205012E+00 0.23196674E+04</pdfrwt>
<pdfrwt beam="2">  1       -1 0.13720911E+00 0.23196674E+04</pdfrwt>
<totfact> 0.57198345E+00</totfact>
</mgrwt>
</event>
<event>
12    6  0.1542110E-007  0.2057015E+04  0.7818608E-02  0.8580419E-01
          2   -1    0    0  501    0  0.00000000000E+00  0.00000000000E+00  0.10548870600E+04  0.10548870600E+04  0.00000000000E+00 0. -1.
         -1   -1    0    0    0  501 -0.00000000000E+00 -0.00000000000E+00 -0.10027876165E+04  0.10027876165E+04  0.00000000000E+00 0.  1.
         24    2    1    2    0    0  0.74624844117E+03 -0.15538384914E+03 -0.31138500138E+03  0.82686106761E+03  0.75549517074E+02 0.  0.
        254    2    1    2    0    0 -0.74624844117E+03  0.15538384914E+03  0.36348444486E+03  0.12308136090E+04  0.89540511602E+03 0.  0.
         23    2    4    4    0    0 -0.42621665359E+03 -0.30544365333E+03  0.39282745258E+03  0.66156374652E+03  0.91633629490E+02 0.  0.
         23    2    4    4    0    0 -0.32003178758E+03  0.46082750247E+03 -0.29343007714E+02  0.56924986243E+03  0.91662760625E+02 0.  0.
          4    1    3    3  502    0  0.22690200747E+03 -0.31668385740E+02 -0.60401987907E+02  0.23692996390E+03  0.00000000000E+00 0. -1.
         -3    1    3    3    0  502  0.51934643370E+03 -0.12371546340E+03 -0.25098301347E+03  0.58993110371E+03  0.00000000000E+00 0.  1.
         11    1    5    5    0    0 -0.27934954906E+03 -0.15982555258E+03  0.27631986699E+03  0.42418515617E+03  0.00000000000E+00 0. -1.
        -11    1    5    5    0    0 -0.14686710453E+03 -0.14561810075E+03  0.11650758558E+03  0.23737859035E+03  0.00000000000E+00 0.  1.
          4    1    6    6  503    0 -0.15898034609E+03  0.30665906062E+03 -0.11968685571E+02  0.34562664732E+03  0.00000000000E+00 0. -1.
         -4    1    6    6    0  503 -0.16105144149E+03  0.15416844185E+03 -0.17374322143E+02  0.22362321511E+03  0.00000000000E+00 0.  1.
<mgrwt>
<rscale>  0 0.20570150E+04</rscale>
<asrwt>0</asrwt>
<pdfrwt beam="1">  1        2 0.16229032E+00 0.20570150E+04</pdfrwt>
<pdfrwt beam="2">  1       -1 0.15427502E+00 0.20570150E+04</pdfrwt>
<totfact> 0.79247987E+00</totfact>
</mgrwt>
</event>
<event>
12    6  0.1542110E-007  0.2021309E+04  0.7818608E-02  0.8596722E-01
         -1   -1    0    0    0  501 -0.00000000000E+00  0.00000000000E+00  0.44620368003E+03  0.44620368003E+03  0.00000000000E+00 0.  1.
          2   -1    0    0  501    0  0.00000000000E+00 -0.00000000000E+00 -0.22891389926E+04  0.22891389926E+04  0.00000000000E+00 0. -1.
         24    2    1    2    0    0 -0.63366686754E+03 -0.49739557419E+03 -0.77836480838E+03  0.11227859598E+04  0.76553773943E+02 0.  0.
        254    2    1    2    0    0  0.63366686754E+03  0.49739557419E+03 -0.10645705042E+04  0.16125567128E+04  0.90448479119E+03 0.  0.
         23    2    4    4    0    0  0.58528921247E+03 -0.10398148526E+03 -0.50511612941E+03  0.78474921844E+03  0.85518536896E+02 0.  0.
         23    2    4    4    0    0  0.48377655077E+02  0.60137705944E+03 -0.55945437476E+03  0.82780749439E+03  0.91001566970E+02 0.  0.
          2    1    3    3  502    0 -0.12450733397E+03 -0.13606423732E+03 -0.19288350461E+03  0.26687000438E+03  0.00000000000E+00 0. -1.
         -1    1    3    3    0  502 -0.50915953357E+03 -0.36133133687E+03 -0.58548130377E+03  0.85591595540E+03  0.00000000000E+00 0.  1.
         11    1    5    5    0    0  0.15429023525E+02 -0.12723705801E+02 -0.35313595298E+02  0.40583216594E+02  0.00000000000E+00 0.  1.
        -11    1    5    5    0    0  0.56986018894E+03 -0.91257779454E+02 -0.46980253411E+03  0.74416600185E+03  0.00000000000E+00 0. -1.
          2    1    6    6  503    0  0.21805119883E+02  0.44788735187E+03 -0.46319670222E+03  0.64469351491E+03  0.00000000000E+00 0. -1.
         -2    1    6    6    0  503  0.26572535194E+02  0.15348970757E+03 -0.96257672537E+02  0.18311397948E+03  0.00000000000E+00 0.  1.
<mgrwt>
<rscale>  0 0.20213087E+04</rscale>
<asrwt>0</asrwt>
<pdfrwt beam="1">  1        2 0.35217523E+00 0.20213087E+04</pdfrwt>
<pdfrwt beam="2">  1       -1 0.68646720E-01 0.20213087E+04</pdfrwt>
<totfact> 0.10427604E+01</totfact>
</mgrwt>
</event>
<event>
12    6  0.1542110E-007  0.2576641E+04  0.7818608E-02  0.8376179E-01
         -1   -1    0    0    0  501 -0.00000000000E+00  0.00000000000E+00  0.12934328792E+04  0.12934328792E+04  0.00000000000E+00 0.  1.
          2   -1    0    0  501    0  0.00000000000E+00 -0.00000000000E+00 -0.12832278993E+04  0.12832278993E+04  0.00000000000E+00 0. -1.
         24    2    1    2    0    0  0.45535585589E+03  0.38244795403E+03 -0.95699989117E+03  0.11293281069E+04  0.76927162116E+02 0.  0.
        254    2    1    2    0    0 -0.45535585589E+03 -0.38244795403E+03  0.96720487108E+03  0.14473326715E+04  0.89759189300E+03 0.  0.
         23    2    4    4    0    0 -0.71672243464E+03 -0.21984301630E+03  0.70408238759E+03  0.10324670577E+04  0.90742584267E+02 0.  0.
         23    2    4    4    0    0  0.26136657875E+03 -0.16260493773E+03  0.26312248349E+03  0.41486561381E+03  0.90150884338E+02 0.  0.
          2    1    3    3  502    0  0.39818067367E+03  0.36330603972E+03 -0.87108568537E+03  0.10243678044E+04  0.00000000000E+00 0. -1.
         -1    1    3    3    0  502  0.57175182221E+02  0.19141914308E+02 -0.85914205795E+02  0.10496030251E+03  0.00000000000E+00 0.  1.
         11    1    5    5    0    0 -0.69166060945E+03 -0.22077253392E+03  0.65725237734E+03  0.97934447358E+03  0.00000000000E+00 0.  1.
        -11    1    5    5    0    0 -0.25061825191E+02  0.92951762598E+00  0.46830010245E+02  0.53122584128E+02  0.00000000000E+00 0. -1.
          1    1    6    6  503    0  0.17392755088E+03 -0.55908333188E+02  0.14456881225E+03  0.23297355247E+03  0.00000000000E+00 0. -1.
         -1    1    6    6    0  503  0.87439027866E+02 -0.10669660454E+03  0.11855367124E+03  0.18189206134E+03  0.00000000000E+00 0.  1.
<mgrwt>
<rscale>  0 0.25766406E+04</rscale>
<asrwt>0</asrwt>
<pdfrwt beam="1">  1        2 0.19741967E+00 0.25766406E+04</pdfrwt>
<pdfrwt beam="2">  1       -1 0.19898968E+00 0.25766406E+04</pdfrwt>
<totfact> 0.26116426E+00</totfact>
</mgrwt>
</event>
<event>
12    6  0.1542110E-007  0.2679235E+04  0.7818608E-02  0.8341774E-01
          2   -1    0    0  501    0  0.00000000000E+00  0.00000000000E+00  0.24114507211E+04  0.24114507211E+04  0.00000000000E+00 0. -1.
         -1   -1    0    0    0  501 -0.00000000000E+00 -0.00000000000E+00 -0.74418879328E+03  0.74418879328E+03  0.00000000000E+00 0.  1.
         24    2    1    2    0    0 -0.99378840130E+03 -0.45116061757E+03  0.19690385128E+03  0.11116981870E+04  0.77074268588E+02 0.  0.
        254    2    1    2    0    0  0.99378840130E+03  0.45116061757E+03  0.14703580766E+04  0.20439413274E+04  0.90806496865E+03 0.  0.
         23    2    4    4    0    0  0.10182614162E+04  0.32245592710E+03  0.15346292139E+04  0.18721272451E+04  0.94548723121E+02 0.  0.
         23    2    4    4    0    0 -0.24473014927E+02  0.12870469047E+03 -0.64271137294E+02  0.17181408236E+03  0.90694398945E+02 0.  0.
          2    1    3    3  502    0 -0.30860475981E+03 -0.12105831950E+03  0.91330226176E+02  0.34385058486E+03  0.00000000000E+00 0. -1.
         -1    1    3    3    0  502 -0.68518364149E+03 -0.33010229807E+03  0.10557362511E+03  0.76784760211E+03  0.00000000000E+00 0.  1.
         11    1    5    5    0    0  0.85985973946E+02  0.55847865245E+02  0.13949447761E+03  0.17312215644E+03  0.00000000000E+00 0. -1.
        -11    1    5    5    0    0  0.93227544228E+03  0.26660806186E+03  0.13951347362E+04  0.16990050886E+04  0.00000000000E+00 0.  1.
          4    1    6    6  503    0 -0.27246332777E+02  0.28397641449E+02  0.16820319659E+02  0.42798502814E+02  0.00000000000E+00 0. -1.
         -4    1    6    6    0  503  0.27733178505E+01  0.10030704902E+03 -0.81091456953E+02  0.12901557954E+03  0.00000000000E+00 0.  1.
<mgrwt>
<rscale>  0 0.26792347E+04</rscale>
<asrwt>0</asrwt>
<pdfrwt beam="1">  1        2 0.37099241E+00 0.26792347E+04</pdfrwt>
<pdfrwt beam="2">  1       -1 0.11449058E+00 0.26792347E+04</pdfrwt>
<totfact> 0.27140877E+00</totfact>
</mgrwt>
</event>
<event>
12    6  0.1542110E-007  0.1980738E+04  0.7818608E-02  0.8615680E-01
          2   -1    0    0  501    0  0.00000000000E+00  0.00000000000E+00  0.16095195138E+04  0.16095195138E+04  0.00000000000E+00 0. -1.
         -1   -1    0    0    0  501 -0.00000000000E+00 -0.00000000000E+00 -0.60939339147E+03  0.60939339147E+03  0.00000000000E+00 0.  1.
         24    2    1    2    0    0  0.67008561308E+03  0.36888647248E+02  0.71805333505E+03  0.98632294991E+03  0.82806209800E+02 0.  0.
        254    2    1    2    0    0 -0.67008561308E+03 -0.36888647248E+02  0.28207278732E+03  0.12325899554E+04  0.99465443227E+03 0.  0.
         23    2    4    4    0    0 -0.51798093112E+03  0.41730347706E+03  0.31968562772E+03  0.74367226711E+03  0.91668442363E+02 0.  0.
         23    2    4    4    0    0 -0.15210468196E+03 -0.45419212431E+03 -0.37612840399E+02  0.48891768829E+03  0.90550870255E+02 0.  0.
          4    1    3    3  502    0  0.63830035431E+03  0.46809042790E+02  0.69986204644E+03  0.94838036296E+03  0.00000000000E+00 0. -1.
         -3    1    3    3    0  502  0.31785258778E+02 -0.99203955426E+01  0.18191288610E+02  0.37942586952E+02  0.00000000000E+00 0.  1.
         11    1    5    5    0    0 -0.43212793590E+03  0.33245958985E+03  0.29697014380E+03  0.62085038308E+03  0.00000000000E+00 0. -1.
        -11    1    5    5    0    0 -0.85852995221E+02  0.84843887211E+02  0.22715483918E+02  0.12282188402E+03  0.00000000000E+00 0.  1.
          3    1    6    6  503    0 -0.15483380703E+03 -0.45760688794E+03 -0.37498341517E+02  0.48454483518E+03  0.00000000000E+00 0. -1.
         -3    1    6    6    0  503  0.27291250654E+01  0.34147636328E+01 -0.11449888227E+00  0.43728531057E+01  0.00000000000E+00 0.  1.
<mgrwt>
<rscale>  0 0.19807378E+04</rscale>
<asrwt>0</asrwt>
<pdfrwt beam="1">  1        2 0.24761838E+00 0.19807378E+04</pdfrwt>
<pdfrwt beam="2">  1       -1 0.93752830E-01 0.19807378E+04</pdfrwt>
<totfact> 0.12879084E+01</totfact>
</mgrwt>
</event>
<event>
12    6  0.1542110E-007  0.1763973E+04  0.7818608E-02  0.8725696E-01
          2   -1    0    0  501    0  0.00000000000E+00  0.00000000000E+00  0.92004359338E+03  0.92004359338E+03  0.00000000000E+00 0. -1.
         -1   -1    0    0    0  501 -0.00000000000E+00 -0.00000000000E+00 -0.84550356985E+03  0.84550356985E+03  0.00000000000E+00 0.  1.
         24    2    1    2    0    0 -0.23233531470E+03 -0.60559634570E+03  0.60849590797E+02  0.65626560061E+03  0.79090033925E+02 0.  0.
        254    2    1    2    0    0  0.23233531470E+03  0.60559634570E+03  0.13690432739E+02  0.11092815626E+04  0.89977304074E+03 0.  0.
         23    2    4    4    0    0 -0.10713152388E+03  0.25645604789E+03 -0.37800677819E+03  0.47784138812E+03  0.90533971201E+02 0.  0.
         23    2    4    4    0    0  0.33946683858E+03  0.34914029781E+03  0.39169721093E+03  0.63144017449E+03  0.90295663607E+02 0.  0.
          4    1    3    3  502    0 -0.10063283337E+02 -0.20382551596E+02 -0.12563685642E+02  0.25972375286E+02  0.00000000000E+00 0. -1.
         -3    1    3    3    0  502 -0.22227203137E+03 -0.58521379410E+03  0.73413276439E+02  0.63029322532E+03  0.00000000000E+00 0.  1.
         11    1    5    5    0    0 -0.98682726249E+02  0.19557778670E+03 -0.34335138455E+03  0.40728260997E+03  0.00000000000E+00 0. -1.
        -11    1    5    5    0    0 -0.84487976313E+01  0.60878261181E+02 -0.34655393632E+02  0.70558778147E+02  0.00000000000E+00 0.  1.
          1    1    6    6  503    0  0.18480601203E+03  0.24515863476E+03  0.21664532898E+03  0.37575419738E+03  0.00000000000E+00 0. -1.
         -1    1    6    6    0  503  0.15466082655E+03  0.10398166305E+03  0.17505188194E+03  0.25568597712E+03  0.00000000000E+00 0.  1.
<mgrwt>
<rscale>  0 0.17639730E+04</rscale>
<asrwt>0</asrwt>
<pdfrwt beam="1">  1        2 0.14154517E+00 0.17639730E+04</pdfrwt>
<pdfrwt beam="2">  1       -1 0.13007747E+00 0.17639730E+04</pdfrwt>
<totfact> 0.15552509E+01</totfact>
</mgrwt>
</event>
<event>
12    6  0.1542110E-007  0.1825217E+04  0.7818608E-02  0.8693003E-01
          2   -1    0    0  501    0  0.00000000000E+00  0.00000000000E+00  0.20838004713E+04  0.20838004713E+04  0.00000000000E+00 0. -1.
         -1   -1    0    0    0  501 -0.00000000000E+00 -0.00000000000E+00 -0.39968045078E+03  0.39968045078E+03  0.00000000000E+00 0.  1.
         24    2    1    2    0    0  0.33299971061E+03 -0.20588233405E+03  0.14077054303E+04  0.14634818747E+04  0.82875065218E+02 0.  0.
        254    2    1    2    0    0 -0.33299971061E+03  0.20588233405E+03  0.27641459028E+03  0.10199990474E+04  0.90039807211E+03 0.  0.
         23    2    4    4    0    0 -0.17894309951E+03  0.38219301344E+03  0.51561251147E+03  0.67261273623E+03  0.91975532458E+02 0.  0.
         23    2    4    4    0    0 -0.15405661110E+03 -0.17631067939E+03 -0.23919792120E+03  0.34738631117E+03  0.92966169090E+02 0.  0.
          2    1    3    3  502    0  0.32887941979E+03 -0.21295596262E+03  0.13718639467E+04  0.14267174222E+04  0.00000000000E+00 0. -1.
         -1    1    3    3    0  502  0.41202908186E+01  0.70736285709E+01  0.35841483608E+02  0.36764452462E+02  0.00000000000E+00 0.  1.
         11    1    5    5    0    0 -0.28568543859E+02  0.75761100038E+02  0.49569200471E+02  0.94936882256E+02  0.00000000000E+00 0. -1.
        -11    1    5    5    0    0 -0.15037455565E+03  0.30643191340E+03  0.46604331100E+03  0.57767585398E+03  0.00000000000E+00 0.  1.
          4    1    6    6  503    0  0.53139882593E+01  0.37520534917E+01  0.19958947394E+01  0.68044083090E+01  0.00000000000E+00 0. -1.
         -4    1    6    6    0  503 -0.15937059936E+03 -0.18006273288E+03 -0.24119381594E+03  0.34058190287E+03  0.00000000000E+00 0.  1.
<mgrwt>
<rscale>  0 0.18252170E+04</rscale>
<asrwt>0</asrwt>
<pdfrwt beam="1">  1        2 0.32058468E+00 0.18252170E+04</pdfrwt>
<pdfrwt beam="2">  1       -1 0.61489302E-01 0.18252170E+04</pdfrwt>
<totfact> 0.17268786E+01</totfact>
</mgrwt>
</event>
<event>
12    6  0.1542110E-007  0.1196917E+04  0.7818608E-02  0.9115559E-01
         -1   -1    0    0    0  501 -0.00000000000E+00  0.00000000000E+00  0.14845873769E+04  0.14845873769E+04  0.00000000000E+00 0.  1.
          2   -1    0    0  501    0  0.00000000000E+00 -0.00000000000E+00 -0.24124734724E+03  0.24124734724E+03  0.00000000000E+00 0. -1.
         24    2    1    2    0    0  0.25140122484E+03 -0.29140144601E+02  0.24224542572E+03  0.36057230033E+03  0.85310102593E+02 0.  0.
        254    2    1    2    0    0 -0.25140122484E+03  0.29140144601E+02  0.10010946040E+04  0.13652624238E+04  0.89314016593E+03 0.  0.
         23    2    4    4    0    0 -0.40585688650E+03  0.73184934710E+02  0.85155595481E+02  0.43086536403E+03  0.91201093659E+02 0.  0.
         23    2    4    4    0    0  0.15445566167E+03 -0.44044790109E+02  0.91593900849E+03  0.93439705982E+03  0.91417192977E+02 0.  0.
          4    1    3    3  502    0  0.21757887734E+03 -0.36907745118E+02  0.16392361606E+03  0.27490671402E+03  0.00000000000E+00 0. -1.
         -3    1    3    3    0  502  0.33822347500E+02  0.77676005163E+01  0.78321809665E+02  0.85665586308E+02  0.00000000000E+00 0.  1.
         11    1    5    5    0    0 -0.19165377837E+03  0.77014714648E+02  0.60421160830E+02  0.21520491098E+03  0.00000000000E+00 0. -1.
        -11    1    5    5    0    0 -0.21420310813E+03 -0.38297799380E+01  0.24734434651E+02  0.21566045304E+03  0.00000000000E+00 0.  1.
          2    1    6    6  503    0  0.16312383343E+03 -0.46433719500E+02  0.90201982604E+03  0.91782636806E+03  0.00000000000E+00 0. -1.
         -2    1    6    6    0  503 -0.86681717622E+01  0.23889293905E+01  0.13919182452E+02  0.16570691762E+02  0.00000000000E+00 0.  1.
<mgrwt>
<rscale>  0 0.11969173E+04</rscale>
<asrwt>0</asrwt>
<pdfrwt beam="1">  1        2 0.37114977E-01 0.11969173E+04</pdfrwt>
<pdfrwt beam="2">  1       -1 0.22839805E+00 0.11969173E+04</pdfrwt>
<totfact> 0.15355412E+01</totfact>
</mgrwt>
</event>
<event>
12    6  0.1542110E-007  0.3043352E+04  0.7818608E-02  0.8231459E-01
         -1   -1    0    0    0  501 -0.00000000000E+00  0.00000000000E+00  0.15191374051E+04  0.15191374051E+04  0.00000000000E+00 0.  1.
          2   -1    0    0  501    0  0.00000000000E+00 -0.00000000000E+00 -0.15242190455E+04  0.15242190455E+04  0.00000000000E+00 0. -1.
         24    2    1    2    0    0 -0.12172267334E+04 -0.64668175138E+03 -0.97640273232E+00  0.13807185842E+04  0.80898994878E+02 0.  0.
        254    2    1    2    0    0  0.12172267334E+04  0.64668175138E+03 -0.41052375763E+01  0.16626378664E+04  0.92979009119E+03 0.  0.
         23    2    4    4    0    0  0.73982248746E+03  0.27350074302E+03  0.43850486455E+03  0.90695088461E+03  0.90185483812E+02 0.  0.
         23    2    4    4    0    0  0.47740424594E+03  0.37318100836E+03 -0.44261010213E+03  0.75568698176E+03  0.89332149036E+02 0.  0.
          2    1    3    3  502    0 -0.10552113977E+04 -0.57747519449E+03 -0.23402731921E+02  0.12031194380E+04  0.00000000000E+00 0. -1.
         -1    1    3    3    0  502 -0.16201533565E+03 -0.69206556887E+02  0.22426329188E+02  0.17759914623E+03  0.00000000000E+00 0.  1.
         11    1    5    5    0    0  0.25169889270E+01  0.50992562580E+00  0.12446500978E+02  0.12708683803E+02  0.00000000000E+00 0.  1.
        -11    1    5    5    0    0  0.73730549853E+03  0.27299081739E+03  0.42605836358E+03  0.89424220081E+03  0.00000000000E+00 0. -1.
          1    1    6    6  503    0  0.32849681681E+03  0.28596904695E+03 -0.35647858179E+03  0.56281918388E+03  0.00000000000E+00 0. -1.
         -1    1    6    6    0  503  0.14890742914E+03  0.87211961413E+02 -0.86131520345E+02  0.19286779789E+03  0.00000000000E+00 0.  1.
<mgrwt>
<rscale>  0 0.30433522E+04</rscale>
<asrwt>0</asrwt>
<pdfrwt beam="1">  1        2 0.23449524E+00 0.30433522E+04</pdfrwt>
<pdfrwt beam="2">  1       -1 0.23371345E+00 0.30433522E+04</pdfrwt>
<totfact> 0.10655035E+00</totfact>
</mgrwt>
</event>
<event>
12    6  0.1542110E-007  0.1247120E+04  0.7818608E-02  0.9072583E-01
         -1   -1    0    0    0  501 -0.00000000000E+00  0.00000000000E+00  0.73027517452E+03  0.73027517452E+03  0.00000000000E+00 0.  1.
          2   -1    0    0  501    0  0.00000000000E+00 -0.00000000000E+00 -0.53243930839E+03  0.53243930839E+03  0.00000000000E+00 0. -1.
         24    2    1    2    0    0 -0.26356810263E+03  0.67061388098E+02 -0.64160309060E+02  0.29091228325E+03  0.80919940604E+02 0.  0.
        254    2    1    2    0    0  0.26356810263E+03 -0.67061388098E+02  0.26199617518E+03  0.97180219966E+03  0.89542847004E+03 0.  0.
         23    2    4    4    0    0  0.81439125179E+02 -0.13921717799E+03 -0.30958200583E+03  0.36066856741E+03  0.90703050791E+02 0.  0.
         23    2    4    4    0    0  0.18212897745E+03  0.72155789889E+02  0.57157818102E+03  0.61113363225E+03  0.91680297827E+02 0.  0.
          4    1    3    3  502    0 -0.19618198945E+03  0.13721001088E+02 -0.56568048364E+02  0.20463524367E+03  0.00000000000E+00 0. -1.
         -3    1    3    3    0  502 -0.67386113178E+02  0.53340387010E+02 -0.75922606962E+01  0.86277039577E+02  0.00000000000E+00 0.  1.
         11    1    5    5    0    0  0.73601939136E+02 -0.15255804962E+03 -0.27893245568E+03  0.32633497940E+03  0.00000000000E+00 0.  1.
        -11    1    5    5    0    0  0.78371860430E+01  0.13340871629E+02 -0.30649550157E+02  0.34333588012E+02  0.00000000000E+00 0. -1.
          2    1    6    6  503    0  0.17025313000E+02 -0.18909961827E+02  0.43402848743E+02  0.50311581351E+02  0.00000000000E+00 0. -1.
         -2    1    6    6    0  503  0.16510366445E+03  0.91065751716E+02  0.52817533228E+03  0.56082205090E+03  0.00000000000E+00 0.  1.
<mgrwt>
<rscale>  0 0.12471202E+04</rscale>
<asrwt>0</asrwt>
<pdfrwt beam="1">  1        2 0.81913739E-01 0.12471202E+04</pdfrwt>
<pdfrwt beam="2">  1       -1 0.11235003E+00 0.12471202E+04</pdfrwt>
<totfact> 0.46718330E+01</totfact>
</mgrwt>
</event>
<event>
12    6  0.1542110E-007  0.1093957E+04  0.7818608E-02  0.9211102E-01
          2   -1    0    0  501    0  0.00000000000E+00  0.00000000000E+00  0.35732211694E+04  0.35732211694E+04  0.00000000000E+00 0. -1.
         -1   -1    0    0    0  501 -0.00000000000E+00 -0.00000000000E+00 -0.83729864959E+02  0.83729864959E+02  0.00000000000E+00 0.  1.
         24    2    1    2    0    0  0.15118899035E+03 -0.14348647114E+01  0.77494171612E+03  0.79356865383E+03  0.79726879587E+02 0.  0.
        254    2    1    2    0    0 -0.15118899035E+03  0.14348647114E+01  0.27145495883E+04  0.28633823805E+04  0.89850933218E+03 0.  0.
         23    2    4    4    0    0 -0.20401400485E+03 -0.34047022283E+03  0.21950816973E+04  0.22325324214E+04  0.90970697120E+02 0.  0.
         23    2    4    4    0    0  0.52825014498E+02  0.34190508754E+03  0.51946789101E+03  0.63084995917E+03  0.91843400149E+02 0.  0.
          4    1    3    3  502    0  0.13048138032E+03 -0.19506197744E+02  0.72161268229E+03  0.73357395374E+03  0.00000000000E+00 0. -1.
         -3    1    3    3    0  502  0.20707610024E+02  0.18071333032E+02  0.53329033824E+02  0.59994700092E+02  0.00000000000E+00 0.  1.
         11    1    5    5    0    0 -0.21073805031E+03 -0.30475948872E+03  0.20237001407E+04  0.20573407912E+04  0.00000000000E+00 0. -1.
        -11    1    5    5    0    0  0.67240454687E+01 -0.35710734110E+02  0.17138155666E+03  0.17519163017E+03  0.00000000000E+00 0.  1.
          4    1    6    6  503    0 -0.90080693598E+01  0.20672205020E+03  0.33751446839E+03  0.39589287405E+03  0.00000000000E+00 0.  1.
         -4    1    6    6    0  503  0.61833083858E+02  0.13518303734E+03  0.18195342262E+03  0.23495708512E+03  0.00000000000E+00 0. -1.
<mgrwt>
<rscale>  0 0.10939567E+04</rscale>
<asrwt>0</asrwt>
<pdfrwt beam="1">  1        2 0.54972621E+00 0.10939567E+04</pdfrwt>
<pdfrwt beam="2">  1       -1 0.12881520E-01 0.10939567E+04</pdfrwt>
<totfact> 0.35577622E+01</totfact>
</mgrwt>
</event>
<event>
12    6  0.1542110E-007  0.1481221E+04  0.7818608E-02  0.8897038E-01
          2   -1    0    0  501    0  0.00000000000E+00  0.00000000000E+00  0.15152138286E+04  0.15152138286E+04  0.00000000000E+00 0. -1.
         -1   -1    0    0    0  501 -0.00000000000E+00 -0.00000000000E+00 -0.36199756094E+03  0.36199756094E+03  0.00000000000E+00 0.  1.
         24    2    1    2    0    0 -0.36665326656E+03 -0.28664889043E+03  0.19801262125E+03  0.51201120364E+03  0.79650927282E+02 0.  0.
        254    2    1    2    0    0  0.36665326656E+03  0.28664889043E+03  0.95520364637E+03  0.13652001859E+04  0.85717870782E+03 0.  0.
         23    2    4    4    0    0 -0.20182207206E+03 -0.12529886225E+03  0.36175980821E+03  0.44134493038E+03  0.86505693932E+02 0.  0.
         23    2    4    4    0    0  0.56847533862E+03  0.41194775269E+03  0.59344383816E+03  0.92385525547E+03  0.92020554444E+02 0.  0.
          2    1    3    3  502    0 -0.36319491594E+03 -0.26615703145E+03  0.19614906377E+03  0.49114617740E+03  0.00000000000E+00 0. -1.
         -1    1    3    3    0  502 -0.34583506170E+01 -0.20491858986E+02  0.18635574766E+01  0.20865026244E+02  0.00000000000E+00 0.  1.
         11    1    5    5    0    0 -0.20145464680E+03 -0.12810596148E+03  0.31874965177E+03  0.39824170122E+03  0.00000000000E+00 0.  1.
        -11    1    5    5    0    0 -0.36742526076E+00  0.28070992247E+01  0.43010156439E+02  0.43103229163E+02  0.00000000000E+00 0. -1.
          4    1    6    6  503    0  0.28343547494E+03  0.17621960081E+03  0.23024724796E+03  0.40546616548E+03  0.00000000000E+00 0. -1.
         -4    1    6    6    0  503  0.28503986369E+03  0.23572815188E+03  0.36319659020E+03  0.51838908998E+03  0.00000000000E+00 0.  1.
<mgrwt>
<rscale>  0 0.14812207E+04</rscale>
<asrwt>0</asrwt>
<pdfrwt beam="1">  1        2 0.23310982E+00 0.14812207E+04</pdfrwt>
<pdfrwt beam="2">  1       -1 0.55691933E-01 0.14812207E+04</pdfrwt>
<totfact> 0.44736798E+01</totfact>
</mgrwt>
</event>
<event>
12    6  0.1542110E-007  0.1411303E+04  0.7818608E-02  0.8945677E-01
          2   -1    0    0  501    0  0.00000000000E+00  0.00000000000E+00  0.22276520643E+04  0.22276520643E+04  0.00000000000E+00 0. -1.
         -1   -1    0    0    0  501 -0.00000000000E+00 -0.00000000000E+00 -0.22352873392E+03  0.22352873392E+03  0.00000000000E+00 0.  1.
         24    2    1    2    0    0 -0.11304119037E+03 -0.35092640840E+03  0.90289975964E+03  0.97854536837E+03  0.79971289681E+02 0.  0.
        254    2    1    2    0    0  0.11304119037E+03  0.35092640840E+03  0.11012235707E+04  0.14726354298E+04  0.90555734309E+03 0.  0.
         23    2    4    4    0    0  0.87527624570E+02  0.10355014729E+03 -0.13319627354E+03  0.20997781296E+03  0.89250863199E+02 0.  0.
         23    2    4    4    0    0  0.25513565803E+02  0.24737626111E+03  0.12344198442E+04  0.12626576168E+04  0.93091078701E+02 0.  0.
          4    1    3    3  502    0 -0.63888982546E+02 -0.29212488769E+03  0.75268581238E+03  0.80991029396E+03  0.00000000000E+00 0. -1.
         -3    1    3    3    0  502 -0.49152207827E+02 -0.58801520711E+02  0.15021394726E+03  0.16863507442E+03  0.00000000000E+00 0.  1.
         11    1    5    5    0    0  0.96232728690E+02  0.11094584784E+03 -0.10796206417E+03  0.18227870563E+03  0.00000000000E+00 0. -1.
        -11    1    5    5    0    0 -0.87051041204E+01 -0.73957005501E+01 -0.25234209371E+02  0.27699107332E+02  0.00000000000E+00 0.  1.
          1    1    6    6  503    0  0.40502683590E+02  0.23449009465E+03  0.10228229749E+04  0.10501394716E+04  0.00000000000E+00 0. -1.
         -1    1    6    6    0  503 -0.14989117787E+02  0.12886166459E+02  0.21159686934E+03  0.21251814523E+03  0.00000000000E+00 0.  1.
<mgrwt>
<rscale>  0 0.14113033E+04</rscale>
<asrwt>0</asrwt>
<pdfrwt beam="1">  1        2 0.34271569E+00 0.14113033E+04</pdfrwt>
<pdfrwt beam="2">  1       -1 0.34389038E-01 0.14113033E+04</pdfrwt>
<totfact> 0.44267382E+01</totfact>
</mgrwt>
</event>
<event>
12    6  0.1542110E-007  0.1627139E+04  0.7818608E-02  0.8804047E-01
          2   -1    0    0  501    0  0.00000000000E+00  0.00000000000E+00  0.11743244500E+04  0.11743244500E+04  0.00000000000E+00 0. -1.
         -1   -1    0    0    0  501 -0.00000000000E+00 -0.00000000000E+00 -0.56363897587E+03  0.56363897587E+03  0.00000000000E+00 0.  1.
         24    2    1    2    0    0  0.27418315833E+03 -0.46930961250E+03  0.23062404560E+03  0.59591463017E+03  0.80615627138E+02 0.  0.
        254    2    1    2    0    0 -0.27418315833E+03  0.46930961250E+03  0.38006142851E+03  0.11420487957E+04  0.92973159867E+03 0.  0.
         23    2    4    4    0    0 -0.24034816475E+03  0.54197300760E+03  0.62670780629E+03  0.86757904770E+03  0.91808214690E+02 0.  0.
         23    2    4    4    0    0 -0.33834993582E+02 -0.72663395093E+02 -0.24664637778E+03  0.27446974798E+03  0.89857838307E+02 0.  0.
          2    1    3    3  502    0  0.77227640959E+02 -0.16244469855E+03  0.11457303850E+03  0.21325892658E+03  0.00000000000E+00 0. -1.
         -1    1    3    3    0  502  0.19695551737E+03 -0.30686491395E+03  0.11605100709E+03  0.38265570358E+03  0.00000000000E+00 0.  1.
         11    1    5    5    0    0 -0.23413805407E+03  0.50746698232E+03  0.61405522406E+03  0.83030547674E+03  0.00000000000E+00 0. -1.
        -11    1    5    5    0    0 -0.62101106713E+01  0.34506025277E+02  0.12652582228E+02  0.37273570958E+02  0.00000000000E+00 0.  1.
          2    1    6    6  503    0 -0.30707177609E+02 -0.87133595998E+02 -0.24187039302E+03  0.25891404235E+03  0.00000000000E+00 0. -1.
         -2    1    6    6    0  503 -0.31278159727E+01  0.14470200905E+02 -0.47759847604E+01  0.15555705623E+02  0.00000000000E+00 0.  1.
<mgrwt>
<rscale>  0 0.16271386E+04</rscale>
<asrwt>0</asrwt>
<pdfrwt beam="1">  1        2 0.18066530E+00 0.16271386E+04</pdfrwt>
<pdfrwt beam="2">  1       -1 0.86713689E-01 0.16271386E+04</pdfrwt>
<totfact> 0.28077334E+01</totfact>
</mgrwt>
</event>
<event>
12    6  0.1542110E-007  0.1807556E+04  0.7818608E-02  0.8702292E-01
         -1   -1    0    0    0  501 -0.00000000000E+00  0.00000000000E+00  0.61639383422E+03  0.61639383422E+03  0.00000000000E+00 0.  1.
          2   -1    0    0  501    0  0.00000000000E+00 -0.00000000000E+00 -0.13251506141E+04  0.13251506141E+04  0.00000000000E+00 0. -1.
         24    2    1    2    0    0 -0.48420833647E+03  0.31864694945E+03 -0.63207938772E+03  0.86125377692E+03  0.78994457836E+02 0.  0.
        254    2    1    2    0    0  0.48420833647E+03 -0.31864694945E+03 -0.76677392150E+02  0.10802906714E+04  0.90838038329E+03 0.  0.
         23    2    4    4    0    0  0.30490558229E+02  0.10157732457E+03 -0.36582814959E+03  0.39171062821E+03  0.91429504067E+02 0.  0.
         23    2    4    4    0    0  0.45371777824E+03 -0.42022427402E+03  0.28915075744E+03  0.68858004318E+03  0.89922480928E+02 0.  0.
          4    1    3    3  502    0 -0.48091565705E+03  0.31054954436E+03 -0.63169812830E+03  0.85250420175E+03  0.00000000000E+00 0. -1.
         -3    1    3    3    0  502 -0.32926794141E+01  0.80974050886E+01 -0.38125942665E+00  0.87495751693E+01  0.00000000000E+00 0.  1.
         11    1    5    5    0    0  0.21515734656E+02  0.11868007173E+03 -0.32015168153E+03  0.34211837929E+03  0.00000000000E+00 0. -1.
        -11    1    5    5    0    0  0.89748235729E+01 -0.17102747158E+02 -0.45676468062E+02  0.49592248922E+02  0.00000000000E+00 0.  1.
          1    1    6    6  503    0  0.40008369963E+03 -0.33981377175E+03  0.26905480531E+03  0.58985663889E+03  0.00000000000E+00 0. -1.
         -1    1    6    6    0  503  0.53634078611E+02 -0.80410502268E+02  0.20095952128E+02  0.98723404294E+02  0.00000000000E+00 0.  1.
<mgrwt>
<rscale>  0 0.18075560E+04</rscale>
<asrwt>0</asrwt>
<pdfrwt beam="1">  1        2 0.20386932E+00 0.18075560E+04</pdfrwt>
<pdfrwt beam="2">  1       -1 0.94829821E-01 0.18075560E+04</pdfrwt>
<totfact> 0.18481684E+01</totfact>
</mgrwt>
</event>
<event>
12    6  0.1542110E-007  0.1827033E+04  0.7818608E-02  0.8692054E-01
         -1   -1    0    0    0  501 -0.00000000000E+00  0.00000000000E+00  0.15086782486E+04  0.15086782486E+04  0.00000000000E+00 0.  1.
          2   -1    0    0  501    0  0.00000000000E+00 -0.00000000000E+00 -0.55314166037E+03  0.55314166037E+03  0.00000000000E+00 0. -1.
         24    2    1    2    0    0 -0.24581518784E+03 -0.14525367866E+03  0.10764748593E+04  0.11165722545E+04  0.80073335727E+02 0.  0.
        254    2    1    2    0    0  0.24581518784E+03  0.14525367866E+03 -0.12093827109E+03  0.94524765445E+03  0.89294082956E+03 0.  0.
         23    2    4    4    0    0 -0.14754131773E+03  0.20206055364E+03 -0.37866913872E+03  0.46309526112E+03  0.92032583749E+02 0.  0.
         23    2    4    4    0    0  0.39335650557E+03 -0.56806874986E+02  0.25773086763E+03  0.48215239333E+03  0.89940918100E+02 0.  0.
          4    1    3    3  502    0 -0.80632541190E+02 -0.72043718574E+02  0.28718956692E+03  0.30687090353E+03  0.00000000000E+00 0. -1.
         -3    1    3    3    0  502 -0.16518264665E+03 -0.73209960083E+02  0.78928529237E+03  0.80970135097E+03  0.00000000000E+00 0.  1.
         11    1    5    5    0    0 -0.13167092452E+03  0.14340825309E+03 -0.33773741467E+03  0.38983293946E+03  0.00000000000E+00 0. -1.
        -11    1    5    5    0    0 -0.15870393212E+02  0.58652300553E+02 -0.40931724049E+02  0.73262321657E+02  0.00000000000E+00 0.  1.
          3    1    6    6  503    0  0.37795760510E+03 -0.72424986353E+02  0.23691268152E+03  0.45191254527E+03  0.00000000000E+00 0. -1.
         -3    1    6    6    0  503  0.15398900462E+02  0.15618111366E+02  0.20818186106E+02  0.30239848063E+02  0.00000000000E+00 0.  1.
<mgrwt>
<rscale>  0 0.18270334E+04</rscale>
<asrwt>0</asrwt>
<pdfrwt beam="1">  1        2 0.85098718E-01 0.18270334E+04</pdfrwt>
<pdfrwt beam="2">  1       -1 0.23210434E+00 0.18270334E+04</pdfrwt>
<totfact> 0.53786902E+00</totfact>
</mgrwt>
</event>
<event>
12    6  0.1542110E-007  0.2131757E+04  0.7818608E-02  0.8547382E-01
          4   -1    0    0  501    0  0.00000000000E+00  0.00000000000E+00  0.55558917048E+03  0.55558917048E+03  0.00000000000E+00 0. -1.
         -3   -1    0    0    0  501 -0.00000000000E+00 -0.00000000000E+00 -0.20448504468E+04  0.20448504468E+04  0.00000000000E+00 0.  1.
         24    2    1    2    0    0  0.19985701992E+03 -0.11844518841E+03  0.41310811626E+03  0.48190012067E+03  0.87162603831E+02 0.  0.
        254    2    1    2    0    0 -0.19985701992E+03  0.11844518841E+03 -0.19023693925E+04  0.21185394966E+04  0.90289988468E+03 0.  0.
         23    2    4    4    0    0  0.28088176766E+03  0.28690857793E+03 -0.75297265952E+03  0.85830835149E+03  0.92272968705E+02 0.  0.
         23    2    4    4    0    0 -0.48073878757E+03 -0.16846338952E+03 -0.11493967330E+04  0.12602311451E+04  0.87063158976E+02 0.  0.
          2    1    3    3  502    0  0.17595303189E+03 -0.96464885408E+02  0.27744318877E+03  0.34240278408E+03  0.00000000000E+00 0. -1.
         -1    1    3    3    0  502  0.23903988026E+02 -0.21980303006E+02  0.13566492749E+03  0.13949733659E+03  0.00000000000E+00 0.  1.
         11    1    5    5    0    0  0.16405202362E+03  0.10582046370E+03 -0.39140670931E+03  0.43739027091E+03  0.00000000000E+00 0.  1.
        -11    1    5    5    0    0  0.11682974404E+03  0.18108811423E+03 -0.36156595021E+03  0.42091808058E+03  0.00000000000E+00 0. -1.
          4    1    6    6  503    0 -0.10656890907E+03 -0.43211458180E+02 -0.35636822091E+03  0.37446291054E+03  0.00000000000E+00 0. -1.
         -4    1    6    6    0  503 -0.37416987850E+03 -0.12525193134E+03 -0.79302851212E+03  0.88576823454E+03  0.00000000000E+00 0.  1.
<mgrwt>
<rscale>  0 0.21317568E+04</rscale>
<asrwt>0</asrwt>
<pdfrwt beam="1">  1        4 0.85475259E-01 0.21317568E+04</pdfrwt>
<pdfrwt beam="2">  1       -3 0.31459237E+00 0.21317568E+04</pdfrwt>
<totfact> 0.79099657E-02</totfact>
</mgrwt>
</event>
<event>
12    6  0.1542110E-007  0.1530057E+04  0.7818608E-02  0.8864708E-01
          2   -1    0    0  501    0  0.00000000000E+00  0.00000000000E+00  0.39154345154E+04  0.39154345154E+04  0.00000000000E+00 0. -1.
         -1   -1    0    0    0  501 -0.00000000000E+00 -0.00000000000E+00 -0.14947724292E+03  0.14947724292E+03  0.00000000000E+00 0.  1.
         24    2    1    2    0    0  0.30135092368E+03 -0.35733514573E+03  0.16269835992E+04  0.16947551661E+04  0.81355118283E+02 0.  0.
        254    2    1    2    0    0 -0.30135092368E+03  0.35733514573E+03  0.21389736733E+04  0.23701565923E+04  0.90770761331E+03 0.  0.
         23    2    4    4    0    0 -0.21455326731E+01  0.49363567945E+03  0.18731345852E+04  0.19388436341E+04  0.82466209855E+02 0.  0.
         23    2    4    4    0    0 -0.29920539101E+03 -0.13630053372E+03  0.26583908808E+03  0.43131295818E+03  0.85198272527E+02 0.  0.
          2    1    3    3  502    0  0.24402199766E+03 -0.29421534480E+03  0.14279505357E+04  0.14782260101E+04  0.00000000000E+00 0. -1.
         -1    1    3    3    0  502  0.57328926030E+02 -0.63119800930E+02  0.19903306349E+03  0.21652915599E+03  0.00000000000E+00 0.  1.
         11    1    5    5    0    0 -0.23152536856E+02  0.25395195259E+03  0.82835577818E+03  0.86671848338E+03  0.00000000000E+00 0.  1.
        -11    1    5    5    0    0  0.21007004183E+02  0.23968372686E+03  0.10447788071E+04  0.10721251507E+04  0.00000000000E+00 0. -1.
          4    1    6    6  503    0 -0.69921004921E+02  0.52452723094E+01  0.51280508508E+02  0.86868580992E+02  0.00000000000E+00 0. -1.
         -4    1    6    6    0  503 -0.22928438609E+03 -0.14154580603E+03  0.21455857957E+03  0.34444437719E+03  0.00000000000E+00 0.  1.
<mgrwt>
<rscale>  0 0.15300567E+04</rscale>
<asrwt>0</asrwt>
<pdfrwt beam="1">  1        2 0.60237446E+00 0.15300567E+04</pdfrwt>
<pdfrwt beam="2">  1       -1 0.22996502E-01 0.15300567E+04</pdfrwt>
<totfact> 0.72393384E+00</totfact>
</mgrwt>
</event>
<event>
12    6  0.1542110E-007  0.1965241E+04  0.7818608E-02  0.8623046E-01
          2   -1    0    0  501    0  0.00000000000E+00  0.00000000000E+00  0.11972329674E+04  0.11972329674E+04  0.00000000000E+00 0. -1.
         -1   -1    0    0    0  501 -0.00000000000E+00 -0.00000000000E+00 -0.80647880674E+03  0.80647880674E+03  0.00000000000E+00 0.  1.
         24    2    1    2    0    0 -0.50389542873E+03  0.25723820649E+03 -0.38186477028E+03  0.68714095556E+03  0.79119479548E+02 0.  0.
        254    2    1    2    0    0  0.50389542873E+03 -0.25723820649E+03  0.77261893095E+03  0.13165708186E+04  0.90351348078E+03 0.  0.
         23    2    4    4    0    0  0.41601504471E+03 -0.50031968628E+03  0.20736711189E+03  0.68896066305E+03  0.90980054019E+02 0.  0.
         23    2    4    4    0    0  0.87880384021E+02  0.24308147979E+03  0.56525181906E+03  0.62761015555E+03  0.87024827998E+02 0.  0.
          4    1    3    3  502    0 -0.17567851282E+02  0.10770858500E+02 -0.35986430178E+02  0.41468831047E+02  0.00000000000E+00 0. -1.
         -3    1    3    3    0  502 -0.48632757745E+03  0.24646734799E+03 -0.34587834010E+03  0.64567212451E+03  0.00000000000E+00 0.  1.
         11    1    5    5    0    0  0.53362916950E+02 -0.12026192399E+03  0.46910515185E+02  0.13968223832E+03  0.00000000000E+00 0.  1.
        -11    1    5    5    0    0  0.36265212776E+03 -0.38005776230E+03  0.16045659671E+03  0.54927842473E+03  0.00000000000E+00 0. -1.
          3    1    6    6  503    0  0.45865846537E+02  0.12259929430E+03  0.38593339156E+03  0.40752772368E+03  0.00000000000E+00 0. -1.
         -3    1    6    6    0  503  0.42014537484E+02  0.12048218549E+03  0.17931842750E+03  0.22008243187E+03  0.00000000000E+00 0.  1.
<mgrwt>
<rscale>  0 0.19652410E+04</rscale>
<asrwt>0</asrwt>
<pdfrwt beam="1">  1        2 0.18418969E+00 0.19652410E+04</pdfrwt>
<pdfrwt beam="2">  1       -1 0.12407366E+00 0.19652410E+04</pdfrwt>
<totfact> 0.11515286E+01</totfact>
</mgrwt>
</event>
<event>
12    6  0.1542110E-007  0.1454252E+04  0.7818608E-02  0.8915458E-01
          2   -1    0    0  501    0  0.00000000000E+00  0.00000000000E+00  0.12673814324E+04  0.12673814324E+04  0.00000000000E+00 0. -1.
         -1   -1    0    0    0  501 -0.00000000000E+00 -0.00000000000E+00 -0.41716911350E+03  0.41716911350E+03  0.00000000000E+00 0.  1.
         24    2    1    2    0    0  0.33358498437E+03  0.46062832895E+02  0.45100411480E+03  0.56850679538E+03  0.79965858020E+02 0.  0.
        254    2    1    2    0    0 -0.33358498437E+03 -0.46062832895E+02  0.39920820405E+03  0.11160437505E+04  0.98629900965E+03 0.  0.
         23    2    4    4    0    0 -0.36934099087E+03  0.41723060455E+03  0.16881688172E+03  0.58933117202E+03  0.91202773255E+02 0.  0.
         23    2    4    4    0    0  0.35756006497E+02 -0.46329343745E+03  0.23039132233E+03  0.52671257846E+03  0.91796937434E+02 0.  0.
          4    1    3    3  502    0  0.84044321340E+02  0.47445665795E+02  0.13048855696E+03  0.16230157932E+03  0.00000000000E+00 0. -1.
         -3    1    3    3    0  502  0.24954066303E+03 -0.13828328999E+01  0.32051555784E+03  0.40620521606E+03  0.00000000000E+00 0.  1.
         11    1    5    5    0    0 -0.30879645619E+03  0.37685334908E+03  0.17148670058E+03  0.51650884460E+03  0.00000000000E+00 0.  1.
        -11    1    5    5    0    0 -0.60544534678E+02  0.40377255472E+02 -0.26698188600E+01  0.72822327425E+02  0.00000000000E+00 0. -1.
          1    1    6    6  503    0  0.66211700251E+02 -0.34655094500E+03  0.17801244334E+03  0.39518347222E+03  0.00000000000E+00 0. -1.
         -1    1    6    6    0  503 -0.30455693755E+02 -0.11674249245E+03  0.52378878989E+02  0.13152910625E+03  0.00000000000E+00 0.  1.
<mgrwt>
<rscale>  0 0.14542522E+04</rscale>
<asrwt>0</asrwt>
<pdfrwt beam="1">  1        2 0.19498176E+00 0.14542522E+04</pdfrwt>
<pdfrwt beam="2">  1       -1 0.64179864E-01 0.14542522E+04</pdfrwt>
<totfact> 0.47006830E+01</totfact>
</mgrwt>
</event>
<event>
12    6  0.1542110E-007  0.1725624E+04  0.7818608E-02  0.8746884E-01
          2   -1    0    0  501    0  0.00000000000E+00  0.00000000000E+00  0.32837500473E+04  0.32837500473E+04  0.00000000000E+00 0. -1.
         -1   -1    0    0    0  501 -0.00000000000E+00 -0.00000000000E+00 -0.22670553691E+03  0.22670553691E+03  0.00000000000E+00 0.  1.
         24    2    1    2    0    0  0.33140246071E+03  0.47711861868E+03  0.15985845017E+04  0.17028862448E+04  0.82942065922E+02 0.  0.
        254    2    1    2    0    0 -0.33140246071E+03 -0.47711861868E+03  0.14584600086E+04  0.18075693394E+04  0.89595287412E+03 0.  0.
         23    2    4    4    0    0 -0.54563336747E+02 -0.61584925599E+03  0.13101056245E+04  0.14515445636E+04  0.91418865778E+02 0.  0.
         23    2    4    4    0    0 -0.27683912396E+03  0.13873063730E+03  0.14835438412E+03  0.35602477575E+03  0.94119750205E+02 0.  0.
          4    1    3    3  502    0  0.28467829662E+03  0.35205777634E+03  0.12647733558E+04  0.13433681744E+04  0.00000000000E+00 0. -1.
         -3    1    3    3    0  502  0.46724164091E+02  0.12506084234E+03  0.33381114590E+03  0.35951807037E+03  0.00000000000E+00 0.  1.
         11    1    5    5    0    0 -0.34874499315E+02 -0.51826047036E+03  0.10166194791E+04  0.11416327392E+04  0.00000000000E+00 0. -1.
        -11    1    5    5    0    0 -0.19688837432E+02 -0.97588785630E+02  0.29348614540E+03  0.30991182446E+03  0.00000000000E+00 0.  1.
          1    1    6    6  503    0 -0.15792549136E+03  0.87956778887E+02  0.35111518186E+02  0.18414579681E+03  0.00000000000E+00 0. -1.
         -1    1    6    6    0  503 -0.11891363260E+03  0.50773858416E+02  0.11324286593E+03  0.17187897894E+03  0.00000000000E+00 0.  1.
<mgrwt>
<rscale>  0 0.17256237E+04</rscale>
<asrwt>0</asrwt>
<pdfrwt beam="1">  1        2 0.50519228E+00 0.17256237E+04</pdfrwt>
<pdfrwt beam="2">  1       -1 0.34877777E-01 0.17256237E+04</pdfrwt>
<totfact> 0.97103983E+00</totfact>
</mgrwt>
</event>
<event>
12    6  0.1542110E-007  0.2318463E+04  0.7818608E-02  0.8470677E-01
         -1   -1    0    0    0  501 -0.00000000000E+00  0.00000000000E+00  0.71850153679E+03  0.71850153679E+03  0.00000000000E+00 0.  1.
          2   -1    0    0  501    0  0.00000000000E+00 -0.00000000000E+00 -0.18703051660E+04  0.18703051660E+04  0.00000000000E+00 0. -1.
         24    2    1    2    0    0  0.39325805774E+02 -0.70490145668E+03 -0.12514486429E+04  0.14391240167E+04  0.80756713823E+02 0.  0.
        254    2    1    2    0    0 -0.39325805774E+02  0.70490145668E+03  0.99645013694E+02  0.11496826862E+04  0.90189166060E+03 0.  0.
         23    2    4    4    0    0 -0.41540371690E+03  0.60617363625E+03  0.12197761893E+03  0.75052119347E+03  0.91634038519E+02 0.  0.
         23    2    4    4    0    0  0.37607791113E+03  0.98727820425E+02 -0.22332605239E+02  0.39916149269E+03  0.87460701017E+02 0.  0.
          4    1    3    3  502    0  0.35228000788E+02 -0.67971374924E+03 -0.11677937492E+04  0.13516634321E+04  0.00000000000E+00 0. -1.
         -3    1    3    3    0  502  0.40978049861E+01 -0.25187707438E+02 -0.83654893724E+02  0.87460584584E+02  0.00000000000E+00 0.  1.
         11    1    5    5    0    0 -0.22272938525E+03  0.35995591292E+03  0.28726835878E+02  0.42426627181E+03  0.00000000000E+00 0. -1.
        -11    1    5    5    0    0 -0.19267433166E+03  0.24621772334E+03  0.93250783055E+02  0.32625492166E+03  0.00000000000E+00 0.  1.
          2    1    6    6  503    0  0.28778805921E+02 -0.14158730264E+02 -0.10630857655E+02  0.33789117293E+02  0.00000000000E+00 0. -1.
         -2    1    6    6    0  503  0.34729910521E+03  0.11288655069E+03 -0.11701747583E+02  0.36537237539E+03  0.00000000000E+00 0.  1.
<mgrwt>
<rscale>  0 0.23184625E+04</rscale>
<asrwt>0</asrwt>
<pdfrwt beam="1">  1        2 0.28773926E+00 0.23184625E+04</pdfrwt>
<pdfrwt beam="2">  1       -1 0.11053870E+00 0.23184625E+04</pdfrwt>
<totfact> 0.61309993E+00</totfact>
</mgrwt>
</event>
<event>
12    6  0.1542110E-007  0.1816129E+04  0.7818608E-02  0.8697769E-01
          2   -1    0    0  501    0  0.00000000000E+00  0.00000000000E+00  0.10593728533E+04  0.10593728533E+04  0.00000000000E+00 0. -1.
         -1   -1    0    0    0  501 -0.00000000000E+00 -0.00000000000E+00 -0.77836732566E+03  0.77836732566E+03  0.00000000000E+00 0.  1.
         24    2    1    2    0    0  0.60337241691E+03 -0.24561444872E+03  0.23575547261E+03  0.69724620747E+03  0.78656850059E+02 0.  0.
        254    2    1    2    0    0 -0.60337241691E+03  0.24561444872E+03  0.45250055016E+02  0.11404939715E+04  0.93503700493E+03 0.  0.
         23    2    4    4    0    0 -0.30807073292E+03  0.58796461669E+02 -0.43271707517E+03  0.54141686305E+03  0.86738411744E+02 0.  0.
         23    2    4    4    0    0 -0.29530168399E+03  0.18681798705E+03  0.47796713018E+03  0.59907710843E+03  0.91305856631E+02 0.  0.
          4    1    3    3  502    0  0.58664912527E+03 -0.24676559913E+03  0.23960872407E+03  0.68004617324E+03  0.00000000000E+00 0. -1.
         -3    1    3    3    0  502  0.16723291644E+02  0.11511504179E+01 -0.38532514576E+01  0.17200034230E+02  0.00000000000E+00 0.  1.
         11    1    5    5    0    0 -0.30701583700E+03  0.43943264746E+02 -0.41786768385E+03  0.52038748629E+03  0.00000000000E+00 0.  1.
        -11    1    5    5    0    0 -0.10548959111E+01  0.14853196924E+02 -0.14849391320E+02  0.21029376758E+02  0.00000000000E+00 0. -1.
          4    1    6    6  503    0 -0.47314496021E+02  0.75250020730E+02  0.10663984089E+03  0.13882824936E+03  0.00000000000E+00 0. -1.
         -4    1    6    6    0  503 -0.24798718797E+03  0.11156796632E+03  0.37132728929E+03  0.46024885907E+03  0.00000000000E+00 0.  1.
<mgrwt>
<rscale>  0 0.18161291E+04</rscale>
<asrwt>0</asrwt>
<pdfrwt beam="1">  1        2 0.16298044E+00 0.18161291E+04</pdfrwt>
<pdfrwt beam="2">  1       -1 0.11974882E+00 0.18161291E+04</pdfrwt>
<totfact> 0.15456788E+01</totfact>
</mgrwt>
</event>
<event>
12    6  0.1542110E-007  0.1893324E+04  0.7818608E-02  0.8658187E-01
         -1   -1    0    0    0  501 -0.00000000000E+00  0.00000000000E+00  0.37093569331E+03  0.37093569331E+03  0.00000000000E+00 0.  1.
          2   -1    0    0  501    0  0.00000000000E+00 -0.00000000000E+00 -0.24159683550E+04  0.24159683550E+04  0.00000000000E+00 0. -1.
         24    2    1    2    0    0  0.33145518022E+03  0.58152740600E+03 -0.36380668338E+03  0.76586235036E+03  0.78442185174E+02 0.  0.
        254    2    1    2    0    0 -0.33145518022E+03 -0.58152740600E+03 -0.16812259783E+04  0.20210416980E+04  0.90002894082E+03 0.  0.
         23    2    4    4    0    0 -0.28025328318E+03 -0.78554199753E+03 -0.10106439020E+04  0.13134403675E+04  0.90035380851E+02 0.  0.
         23    2    4    4    0    0 -0.51201897036E+02  0.20401459153E+03 -0.67058207637E+03  0.70760133047E+03  0.82314846269E+02 0.  0.
          4    1    3    3  502    0  0.10006854180E+03  0.24967458810E+03 -0.15821818783E+03  0.31206426896E+03  0.00000000000E+00 0. -1.
         -3    1    3    3    0  502  0.23138663842E+03  0.33185281790E+03 -0.20558849555E+03  0.45379808141E+03  0.00000000000E+00 0.  1.
         11    1    5    5    0    0 -0.53756312261E+02 -0.78094505264E+02 -0.92760511986E+02  0.13263862727E+03  0.00000000000E+00 0. -1.
        -11    1    5    5    0    0 -0.22649697092E+03 -0.70744749226E+03 -0.91788338999E+03  0.11808017402E+04  0.00000000000E+00 0.  1.
          1    1    6    6  503    0 -0.51138556238E+01  0.10670587168E+03 -0.44496283231E+03  0.45760705491E+03  0.00000000000E+00 0. -1.
         -1    1    6    6    0  503 -0.46088041412E+02  0.97308719850E+02 -0.22561924406E+03  0.24999427555E+03  0.00000000000E+00 0.  1.
<mgrwt>
<rscale>  0 0.18933240E+04</rscale>
<asrwt>0</asrwt>
<pdfrwt beam="1">  1        2 0.37168743E+00 0.18933240E+04</pdfrwt>
<pdfrwt beam="2">  1       -1 0.57067031E-01 0.18933240E+04</pdfrwt>
<totfact> 0.12918702E+01</totfact>
</mgrwt>
</event>
<event>
12    6  0.1542110E-007  0.4115962E+04  0.7818608E-02  0.7981553E-01
          2   -1    0    0  501    0  0.00000000000E+00  0.00000000000E+00  0.20138459657E+04  0.20138459657E+04  0.00000000000E+00 0. -1.
         -3   -1    0    0    0  501 -0.00000000000E+00 -0.00000000000E+00 -0.21030836337E+04  0.21030836337E+04  0.00000000000E+00 0.  1.
         24    2    1    2    0    0 -0.55085156269E+03 -0.13853094858E+04  0.12293549810E+04  0.19341525471E+04  0.84336176121E+02 0.  0.
        254    2    1    2    0    0  0.55085156269E+03  0.13853094858E+04 -0.13185926491E+04  0.21827770523E+04  0.89627522026E+03 0.  0.
         23    2    4    4    0    0  0.27563230960E+03  0.10639632025E+04 -0.41097768248E+03  0.11769388186E+04  0.91057459067E+02 0.  0.
         23    2    4    4    0    0  0.27521925309E+03  0.32134628333E+03 -0.90761496658E+03  0.10058382338E+04  0.94533347822E+02 0.  0.
          2    1    3    3  502    0 -0.26203254420E+03 -0.77180656000E+03  0.67753427911E+03  0.10599052409E+04  0.00000000000E+00 0. -1.
         -1    1    3    3    0  502 -0.28881901849E+03 -0.61350292580E+03  0.55182070192E+03  0.87424730625E+03  0.00000000000E+00 0.  1.
         11    1    5    5    0    0  0.27495303204E+03  0.10624249250E+04 -0.40346985325E+03  0.11692449759E+04  0.00000000000E+00 0.  1.
        -11    1    5    5    0    0  0.67927756137E+00  0.15382774359E+01 -0.75078292251E+01  0.76938426777E+01  0.00000000000E+00 0. -1.
          4    1    6    6  503    0  0.16025827053E+03  0.15400945458E+03 -0.57106514420E+03  0.61279443886E+03  0.00000000000E+00 0. -1.
         -4    1    6    6    0  503  0.11496098256E+03  0.16733682876E+03 -0.33654982238E+03  0.39304379491E+03  0.00000000000E+00 0.  1.
<mgrwt>
<rscale>  0 0.41159623E+04</rscale>
<asrwt>0</asrwt>
<pdfrwt beam="1">  1        2 0.30982246E+00 0.41159623E+04</pdfrwt>
<pdfrwt beam="2">  1       -3 0.32355133E+00 0.41159623E+04</pdfrwt>
<totfact> 0.90438528E-02</totfact>
</mgrwt>
</event>
<event>
12    6  0.1542110E-007  0.2494391E+04  0.7818608E-02  0.8404986E-01
         -1   -1    0    0    0  501 -0.00000000000E+00  0.00000000000E+00  0.76927159363E+03  0.76927159363E+03  0.00000000000E+00 0.  1.
          2   -1    0    0  501    0  0.00000000000E+00 -0.00000000000E+00 -0.20220388535E+04  0.20220388535E+04  0.00000000000E+00 0. -1.
         24    2    1    2    0    0 -0.64714098172E+03  0.76587631529E+03 -0.88805681249E+02  0.10094808775E+04  0.76205068026E+02 0.  0.
        254    2    1    2    0    0  0.64714098172E+03 -0.76587631529E+03 -0.11639615786E+04  0.17818295697E+04  0.90263618269E+03 0.  0.
         23    2    4    4    0    0  0.15214221867E+03  0.18568509943E+03 -0.34135890074E+03  0.42696459851E+03  0.90258841201E+02 0.  0.
         23    2    4    4    0    0  0.49499876305E+03 -0.95156141472E+03 -0.82260267787E+03  0.13548649712E+04  0.92146747228E+02 0.  0.
          2    1    3    3  502    0 -0.27620713387E+03  0.31524203958E+03 -0.74130966007E+02  0.42563285169E+03  0.00000000000E+00 0. -1.
         -1    1    3    3    0  502 -0.37093384786E+03  0.45063427571E+03 -0.14674715242E+02  0.58384802577E+03  0.00000000000E+00 0.  1.
         11    1    5    5    0    0  0.64832174915E+02  0.60473805578E+02 -0.20062925756E+03  0.21934536935E+03  0.00000000000E+00 0. -1.
        -11    1    5    5    0    0  0.87310043758E+02  0.12521129385E+03 -0.14072964318E+03  0.20761922916E+03  0.00000000000E+00 0.  1.
          3    1    6    6  503    0  0.20836683347E+03 -0.42532441378E+03 -0.30771383809E+03  0.56480563063E+03  0.00000000000E+00 0. -1.
         -3    1    6    6    0  503  0.28663192958E+03 -0.52623700094E+03 -0.51488883978E+03  0.79005934052E+03  0.00000000000E+00 0.  1.
<mgrwt>
<rscale>  0 0.24943913E+04</rscale>
<asrwt>0</asrwt>
<pdfrwt beam="1">  1        2 0.31108290E+00 0.24943913E+04</pdfrwt>
<pdfrwt beam="2">  1       -1 0.11834948E+00 0.24943913E+04</pdfrwt>
<totfact> 0.42230012E+00</totfact>
</mgrwt>
</event>
<event>
12    6  0.1542110E-007  0.1741207E+04  0.7818608E-02  0.8738205E-01
         -1   -1    0    0    0  501 -0.00000000000E+00  0.00000000000E+00  0.13538521088E+04  0.13538521088E+04  0.00000000000E+00 0.  1.
          2   -1    0    0  501    0  0.00000000000E+00 -0.00000000000E+00 -0.55984738388E+03  0.55984738388E+03  0.00000000000E+00 0. -1.
         24    2    1    2    0    0  0.58676765134E+03 -0.90531581498E+02  0.53721228817E+03  0.80491619367E+03  0.82466916793E+02 0.  0.
        254    2    1    2    0    0 -0.58676765134E+03  0.90531581498E+02  0.25679243673E+03  0.11087832990E+04  0.90053639829E+03 0.  0.
         23    2    4    4    0    0  0.70504896727E+02 -0.14357670030E+03 -0.19844014382E+03  0.27076460622E+03  0.91377086666E+02 0.  0.
         23    2    4    4    0    0 -0.65727254807E+03  0.23410828180E+03  0.45523258055E+03  0.83801869277E+03  0.90690335690E+02 0.  0.
          2    1    3    3  502    0  0.17888420743E+03 -0.61095323785E+02  0.14438861519E+03  0.23786607672E+03  0.00000000000E+00 0. -1.
         -1    1    3    3    0  502  0.40788344391E+03 -0.29436257713E+02  0.39282367298E+03  0.56705011695E+03  0.00000000000E+00 0.  1.
         11    1    5    5    0    0  0.50690429444E+01 -0.10995521263E+03 -0.10834865376E+03  0.15445152881E+03  0.00000000000E+00 0. -1.
        -11    1    5    5    0    0  0.65435853783E+02 -0.33621487669E+02 -0.90091490063E+02  0.11631307740E+03  0.00000000000E+00 0.  1.
          3    1    6    6  503    0 -0.27611577942E+03  0.14608790683E+03  0.19888587214E+03  0.37032038872E+03  0.00000000000E+00 0. -1.
         -3    1    6    6    0  503 -0.38115676865E+03  0.88020374964E+02  0.25634670841E+03  0.46769830405E+03  0.00000000000E+00 0.  1.
<mgrwt>
<rscale>  0 0.17412071E+04</rscale>
<asrwt>0</asrwt>
<pdfrwt beam="1">  1        2 0.86130367E-01 0.17412071E+04</pdfrwt>
<pdfrwt beam="2">  1       -1 0.20828494E+00 0.17412071E+04</pdfrwt>
<totfact> 0.77124461E+00</totfact>
</mgrwt>
</event>
<event>
12    6  0.1542110E-007  0.1395436E+04  0.7818608E-02  0.8957129E-01
         -1   -1    0    0    0  501 -0.00000000000E+00  0.00000000000E+00  0.34462856679E+03  0.34462856679E+03  0.00000000000E+00 0.  1.
          2   -1    0    0  501    0  0.00000000000E+00 -0.00000000000E+00 -0.14125655523E+04  0.14125655523E+04  0.00000000000E+00 0. -1.
         24    2    1    2    0    0 -0.17051204621E+03 -0.36638090144E+03 -0.33511770152E+03  0.53079553568E+03  0.78298812179E+02 0.  0.
        254    2    1    2    0    0  0.17051204621E+03  0.36638090144E+03 -0.73281928396E+03  0.12263985834E+04  0.89650435555E+03 0.  0.
         23    2    4    4    0    0  0.38790634544E+03  0.48910358966E+03 -0.72436010212E+03  0.96091715159E+03  0.94713042578E+02 0.  0.
         23    2    4    4    0    0 -0.21739429923E+03 -0.12272268823E+03 -0.84591818447E+01  0.26548143178E+03  0.89931603581E+02 0.  0.
          4    1    3    3  502    0 -0.14686153469E+03 -0.29769141246E+03 -0.30925616005E+03  0.45368255416E+03  0.00000000000E+00 0. -1.
         -3    1    3    3    0  502 -0.23650511516E+02 -0.68689488981E+02 -0.25861541463E+02  0.77112981516E+02  0.00000000000E+00 0.  1.
         11    1    5    5    0    0  0.27076700252E+03  0.37505246105E+03 -0.58715200955E+03  0.74748016730E+03  0.00000000000E+00 0. -1.
        -11    1    5    5    0    0  0.11713934291E+03  0.11405112861E+03 -0.13720809257E+03  0.21343698429E+03  0.00000000000E+00 0.  1.
          4    1    6    6  503    0 -0.17032650707E+03 -0.98704973588E+02  0.31326406336E+02  0.19933673659E+03  0.00000000000E+00 0. -1.
         -4    1    6    6    0  503 -0.47067792153E+02 -0.24017714640E+02 -0.39785588180E+02  0.66144695188E+02  0.00000000000E+00 0.  1.
<mgrwt>
<rscale>  0 0.13954360E+04</rscale>
<asrwt>0</asrwt>
<pdfrwt beam="1">  1        2 0.21731777E+00 0.13954360E+04</pdfrwt>
<pdfrwt beam="2">  1       -1 0.53019781E-01 0.13954360E+04</pdfrwt>
<totfact> 0.56640243E+01</totfact>
</mgrwt>
</event>
<event>
12    6  0.1542110E-007  0.2439652E+04  0.7818608E-02  0.8424806E-01
         -1   -1    0    0    0  501 -0.00000000000E+00  0.00000000000E+00  0.65399483430E+03  0.65399483430E+03  0.00000000000E+00 0.  1.
          2   -1    0    0  501    0  0.00000000000E+00 -0.00000000000E+00 -0.22752094512E+04  0.22752094512E+04  0.00000000000E+00 0. -1.
         24    2    1    2    0    0  0.10532916520E+04  0.21730833938E+02 -0.58919368543E+03  0.12097512498E+04  0.80332771448E+02 0.  0.
        254    2    1    2    0    0 -0.10532916520E+04 -0.21730833938E+02 -0.10320209315E+04  0.17194530357E+04  0.88405656252E+03 0.  0.
         23    2    4    4    0    0 -0.10664162332E+04 -0.18661721446E+03 -0.58465285164E+03  0.12340691857E+04  0.95069611057E+02 0.  0.
         23    2    4    4    0    0  0.13124581197E+02  0.16488638052E+03 -0.44736807986E+03  0.48538385007E+03  0.89997277267E+02 0.  0.
          4    1    3    3  502    0  0.53297221323E+03 -0.35182943327E+01 -0.34082892149E+03  0.63264216757E+03  0.00000000000E+00 0. -1.
         -3    1    3    3    0  502  0.52031943875E+03  0.25249128270E+02 -0.24836476394E+03  0.57710908222E+03  0.00000000000E+00 0.  1.
         11    1    5    5    0    0 -0.20223524429E+03 -0.31648887224E+02 -0.69753306741E+02  0.21625510375E+03  0.00000000000E+00 0. -1.
        -11    1    5    5    0    0 -0.86418098889E+03 -0.15496832724E+03 -0.51489954490E+03  0.10178140819E+04  0.00000000000E+00 0.  1.
          3    1    6    6  503    0 -0.23041529766E+02  0.14236524587E+02 -0.31219712304E+02  0.41331116155E+02  0.00000000000E+00 0. -1.
         -3    1    6    6    0  503  0.36166110963E+02  0.15064985594E+03 -0.41614836756E+03  0.44405273391E+03  0.00000000000E+00 0.  1.
<mgrwt>
<rscale>  0 0.24396518E+04</rscale>
<asrwt>0</asrwt>
<pdfrwt beam="1">  1        2 0.35003222E+00 0.24396518E+04</pdfrwt>
<pdfrwt beam="2">  1       -1 0.10061459E+00 0.24396518E+04</pdfrwt>
<totfact> 0.44867704E+00</totfact>
</mgrwt>
</event>
<event>
12    6  0.1542110E-007  0.1221186E+04  0.7818608E-02  0.9094512E-01
          2   -1    0    0  501    0  0.00000000000E+00  0.00000000000E+00  0.11747126224E+04  0.11747126224E+04  0.00000000000E+00 0. -1.
         -1   -1    0    0    0  501 -0.00000000000E+00 -0.00000000000E+00 -0.31737445974E+03  0.31737445974E+03  0.00000000000E+00 0.  1.
         24    2    1    2    0    0 -0.23212436842E+03  0.12195291231E+03  0.19660075885E+03  0.33713402329E+03  0.79077531895E+02 0.  0.
        254    2    1    2    0    0  0.23212436842E+03 -0.12195291231E+03  0.66073740377E+03  0.11549530588E+04  0.91026832091E+03 0.  0.
         23    2    4    4    0    0 -0.16496846369E+03  0.16179643249E+03  0.60654127088E+03  0.65542834117E+03  0.91111566486E+02 0.  0.
         23    2    4    4    0    0  0.39709283210E+03 -0.28374934480E+03  0.54196132888E+02  0.49952471763E+03  0.91604119555E+02 0.  0.
          4    1    3    3  502    0 -0.87264084330E+02  0.79250558049E+02  0.11835910488E+03  0.16704654762E+03  0.00000000000E+00 0. -1.
         -3    1    3    3    0  502 -0.14486028409E+03  0.42702354261E+02  0.78241653968E+02  0.17008747567E+03  0.00000000000E+00 0.  1.
         11    1    5    5    0    0 -0.15503153930E+02  0.39148178205E+01  0.65805913169E+01  0.17290973438E+02  0.00000000000E+00 0. -1.
        -11    1    5    5    0    0 -0.14946530976E+03  0.15788161467E+03  0.59996067957E+03  0.63813736773E+03  0.00000000000E+00 0.  1.
          3    1    6    6  503    0  0.11553085139E+03 -0.90134346572E+02  0.58532539316E+02  0.15778984826E+03  0.00000000000E+00 0. -1.
         -3    1    6    6    0  503  0.28156198071E+03 -0.19361499823E+03 -0.43364064281E+01  0.34173486937E+03  0.00000000000E+00 0.  1.
<mgrwt>
<rscale>  0 0.12211860E+04</rscale>
<asrwt>0</asrwt>
<pdfrwt beam="1">  1        2 0.18072502E+00 0.12211860E+04</pdfrwt>
<pdfrwt beam="2">  1       -1 0.48826840E-01 0.12211860E+04</pdfrwt>
<totfact> 0.92508051E+01</totfact>
</mgrwt>
</event>
<event>
12    6  0.1542110E-007  0.2581692E+04  0.7818608E-02  0.8374447E-01
          2   -1    0    0  501    0  0.00000000000E+00  0.00000000000E+00  0.13991017172E+04  0.13991017172E+04  0.00000000000E+00 0. -1.
         -1   -1    0    0    0  501 -0.00000000000E+00 -0.00000000000E+00 -0.11909666093E+04  0.11909666093E+04  0.00000000000E+00 0.  1.
         24    2    1    2    0    0  0.19173896739E+03  0.10539077799E+04  0.45576284092E+03  0.11670944316E+04  0.83091546310E+02 0.  0.
        254    2    1    2    0    0 -0.19173896739E+03 -0.10539077799E+04 -0.24762773303E+03  0.14229738948E+04  0.90335473160E+03 0.  0.
         23    2    4    4    0    0 -0.16338882027E+03 -0.11646932239E+04 -0.36607873938E+03  0.12351561372E+04  0.91601459453E+02 0.  0.
         23    2    4    4    0    0 -0.28350147122E+02  0.11078544402E+03  0.11845100635E+03  0.18781775766E+03  0.90375459844E+02 0.  0.
          2    1    3    3  502    0  0.18106026836E+03  0.82289185328E+03  0.37332781600E+03  0.92157879813E+03  0.00000000000E+00 0. -1.
         -1    1    3    3    0  502  0.10678699033E+02  0.23101592662E+03  0.82435024913E+02  0.24551563351E+03  0.00000000000E+00 0.  1.
         11    1    5    5    0    0 -0.27959075668E+02 -0.11382602128E+03 -0.11181569354E+02  0.11774166861E+03  0.00000000000E+00 0. -1.
        -11    1    5    5    0    0 -0.13542974460E+03 -0.10508672026E+04 -0.35489717003E+03  0.11174144686E+04  0.00000000000E+00 0.  1.
          4    1    6    6  503    0 -0.88456047890E+00 -0.57064026304E+01 -0.10437690878E+02  0.11928573640E+02  0.00000000000E+00 0. -1.
         -4    1    6    6    0  503 -0.27465586643E+02  0.11649184665E+03  0.12888869722E+03  0.17588918402E+03  0.00000000000E+00 0.  1.
<mgrwt>
<rscale>  0 0.25816920E+04</rscale>
<asrwt>0</asrwt>
<pdfrwt beam="1">  1        2 0.21524642E+00 0.25816920E+04</pdfrwt>
<pdfrwt beam="2">  1       -1 0.18322563E+00 0.25816920E+04</pdfrwt>
<totfact> 0.28852380E+00</totfact>
</mgrwt>
</event>
<event>
12    6  0.1542110E-007  0.2607095E+04  0.7818608E-02  0.8365795E-01
         -1   -1    0    0    0  501 -0.00000000000E+00  0.00000000000E+00  0.16622115202E+04  0.16622115202E+04  0.00000000000E+00 0.  1.
          2   -1    0    0  501    0  0.00000000000E+00 -0.00000000000E+00 -0.10222742043E+04  0.10222742043E+04  0.00000000000E+00 0. -1.
         24    2    1    2    0    0  0.26401323491E+03 -0.43007068716E+03  0.13150347786E+04  0.14108006084E+04  0.79863029566E+02 0.  0.
        254    2    1    2    0    0 -0.26401323491E+03  0.43007068716E+03 -0.67509746277E+03  0.12736851161E+04  0.95491015632E+03 0.  0.
         23    2    4    4    0    0  0.48906606410E+02 -0.26195956391E+03 -0.33401884185E+03  0.43648574790E+03  0.89087328673E+02 0.  0.
         23    2    4    4    0    0 -0.31291984132E+03  0.69203025107E+03 -0.34107862092E+03  0.83719936823E+03  0.87996937620E+02 0.  0.
          4    1    3    3  502    0  0.12252113093E+03 -0.20584500408E+03  0.51523877705E+03  0.56820294843E+03  0.00000000000E+00 0. -1.
         -3    1    3    3    0  502  0.14149210397E+03 -0.22422568307E+03  0.79979600154E+03  0.84259765993E+03  0.00000000000E+00 0.  1.
         11    1    5    5    0    0  0.71250504751E+01 -0.21871403691E+03 -0.23909854508E+03  0.32412144413E+03  0.00000000000E+00 0. -1.
        -11    1    5    5    0    0  0.41781555934E+02 -0.43245527004E+02 -0.94920296769E+02  0.11236430377E+03  0.00000000000E+00 0.  1.
          4    1    6    6  503    0 -0.24618892435E+03  0.60480742530E+03 -0.27146873564E+03  0.70717485999E+03  0.00000000000E+00 0. -1.
         -4    1    6    6    0  503 -0.66730916963E+02  0.87222825769E+02 -0.69609885285E+02  0.13002450824E+03  0.00000000000E+00 0.  1.
<mgrwt>
<rscale>  0 0.26070949E+04</rscale>
<asrwt>0</asrwt>
<pdfrwt beam="1">  1        2 0.15727295E+00 0.26070949E+04</pdfrwt>
<pdfrwt beam="2">  1       -1 0.25572485E+00 0.26070949E+04</pdfrwt>
<totfact> 0.15713125E+00</totfact>
</mgrwt>
</event>
<event>
12    6  0.1542110E-007  0.1749918E+04  0.7818608E-02  0.8733396E-01
          2   -1    0    0  501    0  0.00000000000E+00  0.00000000000E+00  0.92798144914E+03  0.92798144914E+03  0.00000000000E+00 0. -1.
         -1   -1    0    0    0  501 -0.00000000000E+00 -0.00000000000E+00 -0.82496571826E+03  0.82496571826E+03  0.00000000000E+00 0.  1.
         24    2    1    2    0    0  0.10451789879E+03  0.51358633434E+03  0.35819513228E+03  0.63961707287E+03  0.78175016007E+02 0.  0.
        254    2    1    2    0    0 -0.10451789879E+03 -0.51358633434E+03 -0.25517940140E+03  0.11133300945E+04  0.94852119560E+03 0.  0.
         23    2    4    4    0    0  0.27726988565E+03 -0.60733809246E+03 -0.10687213437E+03  0.68212071111E+03  0.90160209537E+02 0.  0.
         23    2    4    4    0    0 -0.38178778444E+03  0.93751758120E+02 -0.14830726703E+03  0.43120938342E+03  0.96928749042E+02 0.  0.
          2    1    3    3  502    0  0.10092629009E+03  0.40092028991E+03  0.31132026639E+03  0.51753599214E+03  0.00000000000E+00 0. -1.
         -1    1    3    3    0  502  0.35916087039E+01  0.11266604442E+03  0.46874865889E+02  0.12208108073E+03  0.00000000000E+00 0.  1.
         11    1    5    5    0    0  0.12326008305E+03 -0.37578759448E+03 -0.56428461450E+02  0.39949159628E+03  0.00000000000E+00 0. -1.
        -11    1    5    5    0    0  0.15400980261E+03 -0.23155049797E+03 -0.50443672919E+02  0.28262911483E+03  0.00000000000E+00 0.  1.
          3    1    6    6  503    0 -0.25855619620E+03  0.18842807688E+02 -0.77676212823E+02  0.27062880858E+03  0.00000000000E+00 0. -1.
         -3    1    6    6    0  503 -0.12323158824E+03  0.74908950432E+02 -0.70631054209E+02  0.16058057483E+03  0.00000000000E+00 0.  1.
<mgrwt>
<rscale>  0 0.17499176E+04</rscale>
<asrwt>0</asrwt>
<pdfrwt beam="1">  1        2 0.14276638E+00 0.17499176E+04</pdfrwt>
<pdfrwt beam="2">  1       -1 0.12691780E+00 0.17499176E+04</pdfrwt>
<totfact> 0.16363259E+01</totfact>
</mgrwt>
</event>
<event>
12    6  0.1601652E-007  0.1494030E+04  0.7818608E-02  0.8888433E-01
          2   -1    0    0  501    0  0.00000000000E+00  0.00000000000E+00  0.19595717627E+04  0.19595717627E+04  0.00000000000E+00 0. -1.
         -1   -1    0    0    0  501 -0.00000000000E+00 -0.00000000000E+00 -0.28477205935E+03  0.28477205935E+03  0.00000000000E+00 0.  1.
         24    2    1    2    0    0  0.19245184589E+03  0.23766976198E+03  0.34401489475E+01  0.31619986113E+03  0.80286292767E+02 0.  0.
        254    2    1    2    0    0 -0.19245184589E+03 -0.23766976198E+03  0.16713595544E+04  0.19281439610E+04  0.91146680973E+03 0.  0.
         23    2    4    4    0    0 -0.32540400024E+03 -0.48862481974E+03  0.14154137069E+04  0.15351448355E+04  0.92907083935E+02 0.  0.
         23    2    4    4    0    0  0.13295215435E+03  0.25095505776E+03  0.25594584748E+03  0.39299912547E+03  0.91023729973E+02 0.  0.
          4    1    3    3  502    0  0.21277227567E+02  0.36192177875E+01 -0.13973168454E+02  0.25711254092E+02  0.00000000000E+00 0. -1.
         -3    1    3    3    0  502  0.17117461833E+03  0.23405054419E+03  0.17413317402E+02  0.29048860704E+03  0.00000000000E+00 0.  1.
         11    1    5    5    0    0 -0.78788914190E+02 -0.18557057640E+03  0.42297901649E+03  0.46856736999E+03  0.00000000000E+00 0.  1.
        -11    1    5    5    0    0 -0.24661508605E+03 -0.30305424334E+03  0.99243469046E+03  0.10665774655E+04  0.00000000000E+00 0. -1.
          2    1    6    6  503    0  0.92330187341E+02  0.10620574478E+03  0.81174956654E+02  0.16246198727E+03  0.00000000000E+00 0. -1.
         -2    1    6    6    0  503  0.40621967005E+02  0.14474931298E+03  0.17477089083E+03  0.23053713821E+03  0.00000000000E+00 0.  1.
<mgrwt>
<rscale>  0 0.14940298E+04</rscale>
<asrwt>0</asrwt>
<pdfrwt beam="1">  1        2 0.30147257E+00 0.14940298E+04</pdfrwt>
<pdfrwt beam="2">  1       -1 0.43811087E-01 0.14940298E+04</pdfrwt>
<totfact> 0.39898739E+01</totfact>
</mgrwt>
</event>
<event>
12    6  0.1542110E-007  0.2092500E+04  0.7818608E-02  0.8564554E-01
          2   -1    0    0  501    0  0.00000000000E+00  0.00000000000E+00  0.27084790211E+04  0.27084790211E+04  0.00000000000E+00 0. -1.
         -1   -1    0    0    0  501 -0.00000000000E+00 -0.00000000000E+00 -0.40415276738E+03  0.40415276738E+03  0.00000000000E+00 0.  1.
         24    2    1    2    0    0 -0.10015077457E+03  0.52359333714E+03  0.19215593669E+04  0.19957674741E+04  0.80729484850E+02 0.  0.
        254    2    1    2    0    0  0.10015077457E+03 -0.52359333714E+03  0.38276688682E+03  0.11168643144E+04  0.90371192688E+03 0.  0.
         23    2    4    4    0    0 -0.33091930044E+03 -0.34940184810E+03  0.41458616810E+03  0.64181800864E+03  0.91975162853E+02 0.  0.
         23    2    4    4    0    0  0.43107007501E+03 -0.17419148903E+03 -0.31819281281E+02  0.47504630575E+03  0.92154443866E+02 0.  0.
          4    1    3    3  502    0 -0.11282332833E+03  0.49696772750E+03  0.18231663085E+04  0.18930508218E+04  0.00000000000E+00 0. -1.
         -3    1    3    3    0  502  0.12672553755E+02  0.26625609639E+02  0.98393058452E+02  0.10271665230E+03  0.00000000000E+00 0.  1.
         11    1    5    5    0    0 -0.32065106140E+03 -0.35484315336E+03  0.40633379739E+03  0.62756507357E+03  0.00000000000E+00 0.  1.
        -11    1    5    5    0    0 -0.10268239040E+02  0.54413052600E+01  0.82523707085E+01  0.14252935074E+02  0.00000000000E+00 0. -1.
          3    1    6    6  503    0  0.77848157946E+02  0.17964756740E+01 -0.19237007353E+02  0.80209883881E+02  0.00000000000E+00 0. -1.
         -3    1    6    6    0  503  0.35322191707E+03 -0.17598796471E+03 -0.12582273928E+02  0.39483642187E+03  0.00000000000E+00 0.  1.
<mgrwt>
<rscale>  0 0.20925002E+04</rscale>
<asrwt>0</asrwt>
<pdfrwt beam="1">  1        2 0.41668907E+00 0.20925002E+04</pdfrwt>
<pdfrwt beam="2">  1       -1 0.62177350E-01 0.20925002E+04</pdfrwt>
<totfact> 0.72328274E+00</totfact>
</mgrwt>
</event>
<event>
12    6  0.1542110E-007  0.1631124E+04  0.7818608E-02  0.8801652E-01
         -1   -1    0    0    0  501 -0.00000000000E+00  0.00000000000E+00  0.93217759689E+03  0.93217759689E+03  0.00000000000E+00 0.  1.
          2   -1    0    0  501    0  0.00000000000E+00 -0.00000000000E+00 -0.71353482668E+03  0.71353482668E+03  0.00000000000E+00 0. -1.
         24    2    1    2    0    0  0.18472441521E+03 -0.14542705844E+03 -0.50605809387E+03  0.56367220340E+03  0.79745969320E+02 0.  0.
        254    2    1    2    0    0 -0.18472441521E+03  0.14542705844E+03  0.72470086407E+03  0.10820402202E+04  0.76834078167E+03 0.  0.
         23    2    4    4    0    0 -0.23029418315E+03  0.22385253737E+03 -0.11356718866E+02  0.33466359115E+03  0.93409715253E+02 0.  0.
         23    2    4    4    0    0  0.45569767939E+02 -0.78425478923E+02  0.73605758294E+03  0.74737662902E+03  0.92541345906E+02 0.  0.
          4    1    3    3  502    0  0.16719976038E+03 -0.10425900340E+03 -0.45469823178E+03  0.49555643639E+03  0.00000000000E+00 0. -1.
         -3    1    3    3    0  502  0.17524654824E+02 -0.41168055041E+02 -0.51359862080E+02  0.68115767011E+02  0.00000000000E+00 0.  1.
         11    1    5    5    0    0 -0.27969805024E+02 -0.52150801404E+01  0.35617203476E+01  0.28673906357E+02  0.00000000000E+00 0. -1.
        -11    1    5    5    0    0 -0.20232437812E+03  0.22906761751E+03 -0.14918439214E+02  0.30598968480E+03  0.00000000000E+00 0.  1.
          2    1    6    6  503    0  0.67776229307E+01  0.85138011499E+01  0.90253193172E+01  0.14137799383E+02  0.00000000000E+00 0. -1.
         -2    1    6    6    0  503  0.38792145009E+02 -0.86939280073E+02  0.72703226362E+03  0.73323882963E+03  0.00000000000E+00 0.  1.
<mgrwt>
<rscale>  0 0.16311238E+04</rscale>
<asrwt>0</asrwt>
<pdfrwt beam="1">  1        2 0.10977459E+00 0.16311238E+04</pdfrwt>
<pdfrwt beam="2">  1       -1 0.14341194E+00 0.16311238E+04</pdfrwt>
<totfact> 0.17187930E+01</totfact>
</mgrwt>
</event>
<event>
12    6  0.1542110E-007  0.2619281E+04  0.7818608E-02  0.8361681E-01
          2   -1    0    0  501    0  0.00000000000E+00  0.00000000000E+00  0.12994781675E+04  0.12994781675E+04  0.00000000000E+00 0. -1.
         -1   -1    0    0    0  501 -0.00000000000E+00 -0.00000000000E+00 -0.13198825846E+04  0.13198825846E+04  0.00000000000E+00 0.  1.
         24    2    1    2    0    0 -0.58662119973E+03 -0.22507771787E+03 -0.97530513020E+03  0.11629394991E+04  0.80148428716E+02 0.  0.
        254    2    1    2    0    0  0.58662119973E+03  0.22507771787E+03  0.95490071310E+03  0.14564212529E+04  0.90252040586E+03 0.  0.
         23    2    4    4    0    0  0.43928346824E+01  0.31262436315E+03  0.76410899602E+03  0.83073317026E+03  0.92204950669E+02 0.  0.
         23    2    4    4    0    0  0.58222836505E+03 -0.87546645278E+02  0.19079171708E+03  0.62568808265E+03  0.91814014748E+02 0.  0.
          4    1    3    3  502    0 -0.82233675979E+02 -0.39586274650E+02 -0.19708329586E+03  0.21718949356E+03  0.00000000000E+00 0. -1.
         -1    1    3    3    0  502 -0.50438752375E+03 -0.18549144322E+03 -0.77822183434E+03  0.94575000559E+03  0.00000000000E+00 0.  1.
         11    1    5    5    0    0  0.16981014479E+02  0.91847897634E+02  0.13729245221E+03  0.16605302944E+03  0.00000000000E+00 0. -1.
        -11    1    5    5    0    0 -0.12588179797E+02  0.22077646552E+03  0.62681654381E+03  0.66468014081E+03  0.00000000000E+00 0.  1.
          3    1    6    6  503    0  0.11148998212E+03  0.19253600652E+02  0.39332613029E+02  0.11978218439E+03  0.00000000000E+00 0. -1.
         -3    1    6    6    0  503  0.47073838293E+03 -0.10680024593E+03  0.15145910405E+03  0.50590589826E+03  0.00000000000E+00 0.  1.
<mgrwt>
<rscale>  0 0.26192813E+04</rscale>
<asrwt>0</asrwt>
<pdfrwt beam="1">  1        2 0.19991972E+00 0.26192813E+04</pdfrwt>
<pdfrwt beam="2">  1       -1 0.20305886E+00 0.26192813E+04</pdfrwt>
<totfact> 0.23867411E+00</totfact>
</mgrwt>
</event>
<event>
12    6  0.1542110E-007  0.1408632E+04  0.7818608E-02  0.8947594E-01
          2   -1    0    0  501    0  0.00000000000E+00  0.00000000000E+00  0.53703906871E+03  0.53703906871E+03  0.00000000000E+00 0. -1.
         -1   -1    0    0    0  501 -0.00000000000E+00 -0.00000000000E+00 -0.92369637865E+03  0.92369637865E+03  0.00000000000E+00 0.  1.
         24    2    1    2    0    0  0.15710025318E+03 -0.77728403916E+02 -0.52412155646E+03  0.55839016874E+03  0.79837211102E+02 0.  0.
        254    2    1    2    0    0 -0.15710025318E+03  0.77728403916E+02  0.13746424652E+03  0.90234527862E+03  0.87441888614E+03 0.  0.
         23    2    4    4    0    0 -0.24367275061E+03 -0.26163528116E+02  0.46560658457E+03  0.53409419967E+03  0.91685238362E+02 0.  0.
         23    2    4    4    0    0  0.86572497431E+02  0.10389193203E+03 -0.32814233805E+03  0.36825107894E+03  0.98199451461E+02 0.  0.
          4    1    3    3  502    0  0.67077689248E+02 -0.33497535460E+02 -0.34542563673E+03  0.35346905350E+03  0.00000000000E+00 0. -1.
         -3    1    3    3    0  502  0.90022563928E+02 -0.44230868456E+02 -0.17869591973E+03  0.20492111524E+03  0.00000000000E+00 0.  1.
         11    1    5    5    0    0  0.79148386726E+00 -0.14136708579E+02  0.11559829114E+02  0.18278474371E+02  0.00000000000E+00 0.  1.
        -11    1    5    5    0    0 -0.24446423447E+03 -0.12026819536E+02  0.45404675546E+03  0.51581572530E+03  0.00000000000E+00 0. -1.
          1    1    6    6  503    0  0.98043598578E+02  0.59268544448E+02 -0.27503988353E+03  0.29794671523E+03  0.00000000000E+00 0. -1.
         -1    1    6    6    0  503 -0.11471101147E+02  0.44623387584E+02 -0.53102454521E+02  0.70304363713E+02  0.00000000000E+00 0.  1.
<mgrwt>
<rscale>  0 0.14086320E+04</rscale>
<asrwt>0</asrwt>
<pdfrwt beam="1">  1        2 0.82621395E-01 0.14086320E+04</pdfrwt>
<pdfrwt beam="2">  1       -1 0.14210714E+00 0.14086320E+04</pdfrwt>
<totfact> 0.25381590E+01</totfact>
</mgrwt>
</event>
<event>
12    6  0.1542110E-007  0.2524984E+04  0.7818608E-02  0.8394139E-01
          2   -1    0    0  501    0  0.00000000000E+00  0.00000000000E+00  0.35910959557E+04  0.35910959557E+04  0.00000000000E+00 0. -1.
         -1   -1    0    0    0  501 -0.00000000000E+00 -0.00000000000E+00 -0.44384384452E+03  0.44384384452E+03  0.00000000000E+00 0.  1.
         24    2    1    2    0    0  0.89984723004E+02 -0.71547252606E+03  0.46594340983E+02  0.72722615298E+03  0.81784222435E+02 0.  0.
        254    2    1    2    0    0 -0.89984723004E+02  0.71547252606E+03  0.31006577702E+04  0.33077136472E+04  0.89827210703E+03 0.  0.
         23    2    4    4    0    0 -0.48047325261E+03  0.46078924343E+03  0.16694624856E+04  0.17995971649E+04  0.90904851093E+02 0.  0.
         23    2    4    4    0    0  0.39048852960E+03  0.25468328264E+03  0.14311952846E+04  0.15081164823E+04  0.93544188788E+02 0.  0.
          2    1    3    3  502    0  0.29630834861E+02 -0.10281115243E+03  0.31021698849E+02  0.11140226765E+03  0.00000000000E+00 0. -1.
         -1    1    3    3    0  502  0.60353888144E+02 -0.61266137363E+03  0.15572642134E+02  0.61582388533E+03  0.00000000000E+00 0.  1.
         11    1    5    5    0    0 -0.31673579465E+03  0.36017584768E+03  0.12046273169E+04  0.12966013949E+04  0.00000000000E+00 0. -1.
        -11    1    5    5    0    0 -0.16373745796E+03  0.10061339575E+03  0.46483516871E+03  0.50299576998E+03  0.00000000000E+00 0.  1.
          4    1    6    6  503    0  0.31892549749E+03  0.24554527441E+03  0.11794412135E+04  0.12462293251E+04  0.00000000000E+00 0.  1.
         -4    1    6    6    0  503  0.71563032119E+02  0.91380082260E+01  0.25175407111E+03  0.26188715715E+03  0.00000000000E+00 0. -1.
<mgrwt>
<rscale>  0 0.25249838E+04</rscale>
<asrwt>0</asrwt>
<pdfrwt beam="1">  1        2 0.55247628E+00 0.25249838E+04</pdfrwt>
<pdfrwt beam="2">  1       -1 0.68283671E-01 0.25249838E+04</pdfrwt>
<totfact> 0.15417870E+00</totfact>
</mgrwt>
</event>
<event>
12    6  0.1542110E-007  0.1659946E+04  0.7818608E-02  0.8784544E-01
         -1   -1    0    0    0  501 -0.00000000000E+00  0.00000000000E+00  0.26726052794E+03  0.26726052794E+03  0.00000000000E+00 0.  1.
          2   -1    0    0  501    0  0.00000000000E+00 -0.00000000000E+00 -0.25774654210E+04  0.25774654210E+04  0.00000000000E+00 0. -1.
         24    2    1    2    0    0  0.59346925542E+02 -0.34411832297E+03 -0.16020277093E+04  0.16416556809E+04  0.81247249144E+02 0.  0.
        254    2    1    2    0    0 -0.59346925542E+02  0.34411832297E+03 -0.70817718381E+03  0.12030702681E+04  0.90770241188E+03 0.  0.
         23    2    4    4    0    0 -0.46335200537E+03  0.12408162232E+03 -0.25937646483E+03  0.55368656633E+03  0.95923580807E+02 0.  0.
         23    2    4    4    0    0  0.40400507983E+03  0.22003670065E+03 -0.44880071898E+03  0.64938370176E+03  0.92956186458E+02 0.  0.
          4    1    3    3  502    0  0.50938940891E+02 -0.29807392221E+03 -0.14876247120E+04  0.15180481292E+04  0.00000000000E+00 0. -1.
         -3    1    3    3    0  502  0.84079846506E+01 -0.46044400754E+02 -0.11440299727E+03  0.12360755168E+03  0.00000000000E+00 0.  1.
         11    1    5    5    0    0 -0.29652542400E+03  0.12473886616E+03 -0.18426019721E+03  0.37072757125E+03  0.00000000000E+00 0. -1.
        -11    1    5    5    0    0 -0.16682658137E+03 -0.65724384402E+00 -0.75116267624E+02  0.18295899509E+03  0.00000000000E+00 0.  1.
          1    1    6    6  503    0  0.27639098823E+03  0.14264025621E+03 -0.24066093148E+03  0.39326314982E+03  0.00000000000E+00 0. -1.
         -1    1    6    6    0  503  0.12761409159E+03  0.77396444443E+02 -0.20813978750E+03  0.25612055194E+03  0.00000000000E+00 0.  1.
<mgrwt>
<rscale>  0 0.16599455E+04</rscale>
<asrwt>0</asrwt>
<pdfrwt beam="1">  1        2 0.39653313E+00 0.16599455E+04</pdfrwt>
<pdfrwt beam="2">  1       -1 0.41117006E-01 0.16599455E+04</pdfrwt>
<totfact> 0.19789738E+01</totfact>
</mgrwt>
</event>
<event>
12    6  0.1542110E-007  0.1404356E+04  0.7818608E-02  0.8950672E-01
         -1   -1    0    0    0  501 -0.00000000000E+00  0.00000000000E+00  0.77884618398E+03  0.77884618398E+03  0.00000000000E+00 0.  1.
          2   -1    0    0  501    0  0.00000000000E+00 -0.00000000000E+00 -0.63305666840E+03  0.63305666840E+03  0.00000000000E+00 0. -1.
         24    2    1    2    0    0 -0.15766403128E+03 -0.11992019839E+03  0.40668423032E+03  0.45930279351E+03  0.79549935214E+02 0.  0.
        254    2    1    2    0    0  0.15766403128E+03  0.11992019839E+03 -0.26089471473E+03  0.95260005887E+03  0.89450657865E+03 0.  0.
         23    2    4    4    0    0 -0.29485147232E+03 -0.94946927289E+02 -0.30332187883E+03  0.44211638090E+03  0.86662693008E+02 0.  0.
         23    2    4    4    0    0  0.45251550360E+03  0.21486712568E+03  0.42427164091E+02  0.51048367797E+03  0.88630460467E+02 0.  0.
          2    1    3    3  502    0 -0.25850977324E+02  0.99750048370E+01  0.41428082278E+02  0.49840342608E+02  0.00000000000E+00 0. -1.
         -1    1    3    3    0  502 -0.13181305396E+03 -0.12989520323E+03  0.36525614804E+03  0.40946245090E+03  0.00000000000E+00 0.  1.
         11    1    5    5    0    0 -0.24033177635E+03 -0.11044067045E+03 -0.25875807230E+03  0.37001654610E+03  0.00000000000E+00 0. -1.
        -11    1    5    5    0    0 -0.54519695969E+02  0.15493743161E+02 -0.44563806530E+02  0.72099834800E+02  0.00000000000E+00 0.  1.
          3    1    6    6  503    0  0.42662835499E+03  0.18370781466E+03  0.21767436772E+02  0.46500982329E+03  0.00000000000E+00 0. -1.
         -3    1    6    6    0  503  0.25887148606E+02  0.31159311028E+02  0.20659727320E+02  0.45473854682E+02  0.00000000000E+00 0.  1.
<mgrwt>
<rscale>  0 0.14043558E+04</rscale>
<asrwt>0</asrwt>
<pdfrwt beam="1">  1        2 0.97393334E-01 0.14043558E+04</pdfrwt>
<pdfrwt beam="2">  1       -1 0.11982249E+00 0.14043558E+04</pdfrwt>
<totfact> 0.32098895E+01</totfact>
</mgrwt>
</event>
<event>
12    6  0.1542110E-007  0.1609634E+04  0.7818608E-02  0.8814651E-01
         -1   -1    0    0    0  501 -0.00000000000E+00  0.00000000000E+00  0.15063836302E+04  0.15063836302E+04  0.00000000000E+00 0.  1.
          2   -1    0    0  501    0  0.00000000000E+00 -0.00000000000E+00 -0.42999037943E+03  0.42999037943E+03  0.00000000000E+00 0. -1.
         24    2    1    2    0    0 -0.20950616541E+03 -0.39973503953E+03 -0.87514284328E+01  0.45861857928E+03  0.81076991734E+02 0.  0.
        254    2    1    2    0    0  0.20950616541E+03  0.39973503953E+03  0.10851446792E+04  0.14777554303E+04  0.89584663976E+03 0.  0.
         23    2    4    4    0    0 -0.31856494722E+03  0.13229831488E+03  0.63447584383E+03  0.72784402102E+03  0.90613756207E+02 0.  0.
         23    2    4    4    0    0  0.52807111263E+03  0.26743672464E+03  0.45066883536E+03  0.74991140932E+03  0.94250840762E+02 0.  0.
          2    1    3    3  502    0 -0.20413200922E+03 -0.40332564357E+03 -0.92504144360E+01  0.45213606594E+03  0.00000000000E+00 0. -1.
         -1    1    3    3    0  502 -0.53741561884E+01  0.35906040486E+01  0.49898600324E+00  0.64825133399E+01  0.00000000000E+00 0.  1.
         11    1    5    5    0    0 -0.25058561595E+03  0.67264037404E+02  0.50556699480E+03  0.56825662150E+03  0.00000000000E+00 0.  1.
        -11    1    5    5    0    0 -0.67979331274E+02  0.65034277478E+02  0.12890884902E+03  0.15958739951E+03  0.00000000000E+00 0. -1.
          3    1    6    6  503    0  0.21121052866E+03  0.92915984287E+02  0.23200717018E+03  0.32721643382E+03  0.00000000000E+00 0. -1.
         -3    1    6    6    0  503  0.31686058397E+03  0.17452074036E+03  0.21866166519E+03  0.42269497550E+03  0.00000000000E+00 0.  1.
<mgrwt>
<rscale>  0 0.16096341E+04</rscale>
<asrwt>0</asrwt>
<pdfrwt beam="1">  1        2 0.66152367E-01 0.16096341E+04</pdfrwt>
<pdfrwt beam="2">  1       -1 0.23175133E+00 0.16096341E+04</pdfrwt>
<totfact> 0.73778986E+00</totfact>
</mgrwt>
</event>
<event>
12    6  0.1542110E-007  0.2302020E+04  0.7818608E-02  0.8477125E-01
          2   -1    0    0  501    0  0.00000000000E+00  0.00000000000E+00  0.86615866816E+03  0.86615866816E+03  0.00000000000E+00 0. -1.
         -1   -1    0    0    0  501 -0.00000000000E+00 -0.00000000000E+00 -0.15295391504E+04  0.15295391504E+04  0.00000000000E+00 0.  1.
         24    2    1    2    0    0  0.35271015920E+03  0.77170799505E+02 -0.12085754894E+04  0.12641624625E+04  0.84215373687E+02 0.  0.
        254    2    1    2    0    0 -0.35271015920E+03 -0.77170799505E+02  0.54519500717E+03  0.11315353561E+04  0.92345810818E+03 0.  0.
         23    2    4    4    0    0 -0.46188121781E+03 -0.15939238944E+03  0.73105750308E+03  0.88397644939E+03  0.90714370909E+02 0.  0.
         23    2    4    4    0    0  0.10917105861E+03  0.82221589936E+02 -0.18586249591E+03  0.24755890671E+03  0.89787721982E+02 0.  0.
          2    1    3    3  502    0  0.97956433207E+02 -0.38070384809E+01 -0.42802136345E+03  0.43910391016E+03  0.00000000000E+00 0. -1.
         -1    1    3    3    0  502  0.25475372600E+03  0.80977837986E+02 -0.78055412596E+03  0.82505855229E+03  0.00000000000E+00 0.  1.
         11    1    5    5    0    0 -0.88370273646E+02 -0.44475711440E+02  0.93146565760E+02  0.13588111306E+03  0.00000000000E+00 0.  1.
        -11    1    5    5    0    0 -0.37351094417E+03 -0.11491667800E+03  0.63791093732E+03  0.74809533633E+03  0.00000000000E+00 0. -1.
          2    1    6    6  503    0  0.58492761042E+02  0.37496625750E+02 -0.16132613767E+03  0.17565170859E+03  0.00000000000E+00 0. -1.
         -2    1    6    6    0  503  0.50678297568E+02  0.44724964186E+02 -0.24536358239E+02  0.71907198120E+02  0.00000000000E+00 0.  1.
<mgrwt>
<rscale>  0 0.23020196E+04</rscale>
<asrwt>0</asrwt>
<pdfrwt beam="1">  1        2 0.13325518E+00 0.23020196E+04</pdfrwt>
<pdfrwt beam="2">  1       -1 0.23531371E+00 0.23020196E+04</pdfrwt>
<totfact> 0.27834897E+00</totfact>
</mgrwt>
</event>
<event>
12    6  0.1542110E-007  0.1359091E+04  0.7818608E-02  0.8983975E-01
          2   -1    0    0  501    0  0.00000000000E+00  0.00000000000E+00  0.34704553264E+03  0.34704553264E+03  0.00000000000E+00 0. -1.
         -1   -1    0    0    0  501 -0.00000000000E+00 -0.00000000000E+00 -0.13306085884E+04  0.13306085884E+04  0.00000000000E+00 0.  1.
         24    2    1    2    0    0 -0.43445180449E+02 -0.17610332301E+03  0.14232327764E+03  0.24051437165E+03  0.68493675108E+02 0.  0.
        254    2    1    2    0    0  0.43445180449E+02  0.17610332301E+03 -0.11258863334E+04  0.14371397494E+04  0.87455746493E+03 0.  0.
         23    2    4    4    0    0 -0.38385332063E+02 -0.34115246748E+03 -0.53955170780E+03  0.64586516757E+03  0.90373278710E+02 0.  0.
         23    2    4    4    0    0  0.81830512512E+02  0.51725579049E+03 -0.58633462558E+03  0.79127458180E+03  0.89874273728E+02 0.  0.
          2    1    3    3  502    0 -0.30922706855E+02 -0.17834306951E+03  0.13045464140E+03  0.22311628740E+03  0.00000000000E+00 0. -1.
         -1    1    3    3    0  502 -0.12522473594E+02  0.22397464927E+01  0.11868636245E+02  0.17398084251E+02  0.00000000000E+00 0.  1.
         11    1    5    5    0    0  0.16600824620E+02 -0.22557846792E+03 -0.36537271925E+03  0.42971904372E+03  0.00000000000E+00 0. -1.
        -11    1    5    5    0    0 -0.54986156683E+02 -0.11557399956E+03 -0.17417898855E+03  0.21614612384E+03  0.00000000000E+00 0.  1.
          4    1    6    6  503    0  0.60914241370E+02  0.39118817032E+03 -0.38120843481E+03  0.54959858094E+03  0.00000000000E+00 0. -1.
         -4    1    6    6    0  503  0.20916271142E+02  0.12606762018E+03 -0.20512619077E+03  0.24167600086E+03  0.00000000000E+00 0.  1.
<mgrwt>
<rscale>  0 0.13590905E+04</rscale>
<asrwt>0</asrwt>
<pdfrwt beam="1">  1        2 0.53391619E-01 0.13590905E+04</pdfrwt>
<pdfrwt beam="2">  1       -1 0.20470902E+00 0.13590905E+04</pdfrwt>
<totfact> 0.14564643E+01</totfact>
</mgrwt>
</event>
<event>
12    6  0.1542110E-007  0.1283517E+04  0.7818608E-02  0.9042740E-01
          2   -1    0    0  501    0  0.00000000000E+00  0.00000000000E+00  0.27013514458E+03  0.27013514458E+03  0.00000000000E+00 0. -1.
         -1   -1    0    0    0  501 -0.00000000000E+00 -0.00000000000E+00 -0.15246214072E+04  0.15246214072E+04  0.00000000000E+00 0.  1.
         24    2    1    2    0    0  0.25301027977E+03 -0.10539854621E+03 -0.51726795344E+03  0.59087454879E+03  0.80271673314E+02 0.  0.
        254    2    1    2    0    0 -0.25301027977E+03  0.10539854621E+03 -0.73721830918E+03  0.12038820030E+04  0.91143731903E+03 0.  0.
         23    2    4    4    0    0  0.76374377321E+02 -0.23309738513E+03  0.64157337111E+02  0.26936678366E+03  0.90966278192E+02 0.  0.
         23    2    4    4    0    0 -0.32938465709E+03  0.33849593135E+03 -0.80137564629E+03  0.93451521933E+03  0.89677314948E+02 0.  0.
          4    1    3    3  502    0  0.71320207370E+02 -0.61650635023E+02 -0.12696786382E+03  0.15813984704E+03  0.00000000000E+00 0. -1.
         -3    1    3    3    0  502  0.18169007240E+03 -0.43747911191E+02 -0.39030008962E+03  0.43273470175E+03  0.00000000000E+00 0.  1.
         11    1    5    5    0    0  0.45433140521E+02 -0.18837367172E+03  0.84373407452E+02  0.21134730265E+03  0.00000000000E+00 0.  1.
        -11    1    5    5    0    0  0.30941236800E+02 -0.44723713416E+02 -0.20216070341E+02  0.58019481008E+02  0.00000000000E+00 0. -1.
          2    1    6    6  503    0 -0.18815158741E+03  0.15330150232E+03 -0.34060755453E+03  0.41822945456E+03  0.00000000000E+00 0. -1.
         -2    1    6    6    0  503 -0.14123306968E+03  0.18519442903E+03 -0.46076809176E+03  0.51628576476E+03  0.00000000000E+00 0.  1.
<mgrwt>
<rscale>  0 0.12835168E+04</rscale>
<asrwt>0</asrwt>
<pdfrwt beam="1">  1        2 0.41559253E-01 0.12835168E+04</pdfrwt>
<pdfrwt beam="2">  1       -1 0.23455714E+00 0.12835168E+04</pdfrwt>
<totfact> 0.12234297E+01</totfact>
</mgrwt>
</event>
<event>
12    6  0.1542110E-007  0.1948029E+04  0.7818608E-02  0.8631312E-01
          2   -1    0    0  501    0  0.00000000000E+00  0.00000000000E+00  0.77697038787E+03  0.77697038787E+03  0.00000000000E+00 0. -1.
         -1   -1    0    0    0  501 -0.00000000000E+00 -0.00000000000E+00 -0.12210303194E+04  0.12210303194E+04  0.00000000000E+00 0.  1.
         24    2    1    2    0    0  0.73256607926E+03 -0.23487051828E+03 -0.11028034781E+03  0.78123637075E+03  0.79694987476E+02 0.  0.
        254    2    1    2    0    0 -0.73256607926E+03  0.23487051828E+03 -0.33377958370E+03  0.12167643365E+04  0.88164018695E+03 0.  0.
         23    2    4    4    0    0 -0.35644630600E+03  0.55470590909E+03 -0.15017995254E+03  0.68107371843E+03  0.80961578264E+02 0.  0.
         23    2    4    4    0    0 -0.37611977326E+03 -0.31983539081E+03 -0.18359963116E+03  0.53569061807E+03  0.97441534616E+02 0.  0.
          2    1    3    3  502    0  0.43924370770E+03 -0.14632933751E+03 -0.10530523073E+03  0.47480153895E+03  0.00000000000E+00 0. -1.
         -1    1    3    3    0  502  0.29332237156E+03 -0.88541180771E+02 -0.49751170771E+01  0.30643483180E+03  0.00000000000E+00 0.  1.
         11    1    5    5    0    0 -0.27750709833E+03  0.48484072273E+03 -0.11944616433E+03  0.57126885283E+03  0.00000000000E+00 0. -1.
        -11    1    5    5    0    0 -0.78939207666E+02  0.69865186366E+02 -0.30733788218E+02  0.10980486561E+03  0.00000000000E+00 0.  1.
          2    1    6    6  503    0 -0.22986071778E+03 -0.21717634592E+03 -0.69807731445E+02  0.32384353348E+03  0.00000000000E+00 0. -1.
         -2    1    6    6    0  503 -0.14625905548E+03 -0.10265904489E+03 -0.11379189971E+03  0.21184708459E+03  0.00000000000E+00 0.  1.
<mgrwt>
<rscale>  0 0.19480292E+04</rscale>
<asrwt>0</asrwt>
<pdfrwt beam="1">  1        2 0.11953391E+00 0.19480292E+04</pdfrwt>
<pdfrwt beam="2">  1       -1 0.18785082E+00 0.19480292E+04</pdfrwt>
<totfact> 0.69756732E+00</totfact>
</mgrwt>
</event>
<event>
12    6  0.1542110E-007  0.1905098E+04  0.7818608E-02  0.8652323E-01
         -1   -1    0    0    0  501 -0.00000000000E+00  0.00000000000E+00  0.10302482589E+04  0.10302482589E+04  0.00000000000E+00 0.  1.
          2   -1    0    0  501    0  0.00000000000E+00 -0.00000000000E+00 -0.88070996380E+03  0.88070996380E+03  0.00000000000E+00 0. -1.
         24    2    1    2    0    0 -0.16041391090E+03  0.15999659619E+02 -0.66786039110E+03  0.69160262867E+03  0.79297427774E+02 0.  0.
        254    2    1    2    0    0  0.16041391090E+03 -0.15999659619E+02  0.81739868624E+03  0.12193555941E+04  0.89033636373E+03 0.  0.
         23    2    4    4    0    0 -0.19256456350E+03  0.26438199412E+03  0.79292527222E+02  0.34871608099E+03  0.91305259083E+02 0.  0.
         23    2    4    4    0    0  0.35297847440E+03 -0.28038165374E+03  0.73810615902E+03  0.87063951307E+03  0.10002392008E+03 0.  0.
          2    1    3    3  502    0 -0.39303257481E+02  0.26120623682E+02 -0.31230223283E+03  0.31584761779E+03  0.00000000000E+00 0. -1.
         -1    1    3    3    0  502 -0.12111065342E+03 -0.10120964063E+02 -0.35555815827E+03  0.37575501088E+03  0.00000000000E+00 0.  1.
         11    1    5    5    0    0 -0.16678264411E+03  0.16469475839E+03  0.36538116274E+02  0.23722531011E+03  0.00000000000E+00 0.  1.
        -11    1    5    5    0    0 -0.25781919393E+02  0.99687235738E+02  0.42754410947E+02  0.11149077088E+03  0.00000000000E+00 0. -1.
          4    1    6    6  503    0  0.81987891110E+02 -0.97883407310E+02  0.28232922185E+03  0.30985958954E+03  0.00000000000E+00 0. -1.
         -4    1    6    6    0  503  0.27099058329E+03 -0.18249824643E+03  0.45577693716E+03  0.56077992353E+03  0.00000000000E+00 0.  1.
<mgrwt>
<rscale>  0 0.19050983E+04</rscale>
<asrwt>0</asrwt>
<pdfrwt beam="1">  1        2 0.13549384E+00 0.19050983E+04</pdfrwt>
<pdfrwt beam="2">  1       -1 0.15849973E+00 0.19050983E+04</pdfrwt>
<totfact> 0.96869715E+00</totfact>
</mgrwt>
</event>
<event>
12    6  0.1542110E-007  0.1883044E+04  0.7818608E-02  0.8663343E-01
          2   -1    0    0  501    0  0.00000000000E+00  0.00000000000E+00  0.95074108421E+03  0.95074108421E+03  0.00000000000E+00 0. -1.
         -1   -1    0    0    0  501 -0.00000000000E+00 -0.00000000000E+00 -0.93239264312E+03  0.93239264312E+03  0.00000000000E+00 0.  1.
         24    2    1    2    0    0  0.40605440133E+03 -0.58576813974E+03  0.90700052758E+02  0.72294668099E+03  0.80130603499E+02 0.  0.
        254    2    1    2    0    0 -0.40605440133E+03  0.58576813974E+03 -0.72351611672E+02  0.11601870463E+04  0.91257587980E+03 0.  0.
         23    2    4    4    0    0  0.22211397580E+03  0.44166099620E+03 -0.75034580327E+02  0.50836144700E+03  0.91663071819E+02 0.  0.
         23    2    4    4    0    0 -0.62816837713E+03  0.14410714354E+03  0.26829686548E+01  0.65182559933E+03  0.97504024457E+02 0.  0.
          2    1    3    3  502    0  0.40238821980E+03 -0.56982977386E+03  0.99056234600E+02  0.70458100190E+03  0.00000000000E+00 0. -1.
         -1    1    3    3    0  502  0.36661815240E+01 -0.15938365877E+02 -0.83561818418E+01  0.18365679099E+02  0.00000000000E+00 0.  1.
         11    1    5    5    0    0  0.36882543234E+02  0.19490313076E+02 -0.83723968158E+01  0.42547518466E+02  0.00000000000E+00 0. -1.
        -11    1    5    5    0    0  0.18523143257E+03  0.42217068313E+03 -0.66662183511E+02  0.46581392853E+03  0.00000000000E+00 0.  1.
          2    1    6    6  503    0 -0.96176552865E+02 -0.13148213379E+02  0.92351640077E+00  0.97075525848E+02  0.00000000000E+00 0. -1.
         -2    1    6    6    0  503 -0.53199182426E+03  0.15725535692E+03  0.17594522540E+01  0.55475007349E+03  0.00000000000E+00 0.  1.
<mgrwt>
<rscale>  0 0.18830443E+04</rscale>
<asrwt>0</asrwt>
<pdfrwt beam="1">  1        2 0.14626786E+00 0.18830443E+04</pdfrwt>
<pdfrwt beam="2">  1       -1 0.14344502E+00 0.18830443E+04</pdfrwt>
<totfact> 0.11409993E+01</totfact>
</mgrwt>
</event>
<event>
12    6  0.1542110E-007  0.1643618E+04  0.7818608E-02  0.8794191E-01
         -1   -1    0    0    0  501 -0.00000000000E+00  0.00000000000E+00  0.72872426393E+03  0.72872426393E+03  0.00000000000E+00 0.  1.
          2   -1    0    0  501    0  0.00000000000E+00 -0.00000000000E+00 -0.92678357776E+03  0.92678357776E+03  0.00000000000E+00 0. -1.
         24    2    1    2    0    0 -0.24681665170E+03  0.32179453798E+03  0.33871851416E+03  0.53424266362E+03  0.78834050805E+02 0.  0.
        254    2    1    2    0    0  0.24681665170E+03 -0.32179453798E+03 -0.53677782798E+03  0.11212651781E+04  0.89701448077E+03 0.  0.
         23    2    4    4    0    0  0.47433926111E+03  0.76142719799E+02 -0.14145380657E+03  0.50925461472E+03  0.92388499322E+02 0.  0.
         23    2    4    4    0    0 -0.22752260941E+03 -0.39793725777E+03 -0.39532402141E+03  0.61201056336E+03  0.90306416345E+02 0.  0.
          4    1    3    3  502    0 -0.26470467215E+02  0.12567706726E+02  0.71835020092E+01  0.30170110839E+02  0.00000000000E+00 0. -1.
         -3    1    3    3    0  502 -0.22034618448E+03  0.30922683125E+03  0.33153501215E+03  0.50407255278E+03  0.00000000000E+00 0.  1.
         11    1    5    5    0    0  0.20968636331E+03  0.81009263659E+01 -0.21886948303E+02  0.21098112350E+03  0.00000000000E+00 0. -1.
        -11    1    5    5    0    0  0.26465289780E+03  0.68041793433E+02 -0.11956685827E+03  0.29827349122E+03  0.00000000000E+00 0.  1.
          4    1    6    6  503    0 -0.35126940574E+02 -0.61255156981E+02 -0.10943785244E+03  0.13024108322E+03  0.00000000000E+00 0. -1.
         -4    1    6    6    0  503 -0.19239566884E+03 -0.33668210079E+03 -0.28588616897E+03  0.48176948014E+03  0.00000000000E+00 0.  1.
<mgrwt>
<rscale>  0 0.16436176E+04</rscale>
<asrwt>0</asrwt>
<pdfrwt beam="1">  1        2 0.14258209E+00 0.16436176E+04</pdfrwt>
<pdfrwt beam="2">  1       -1 0.11211143E+00 0.16436176E+04</pdfrwt>
<totfact> 0.22385613E+01</totfact>
</mgrwt>
</event>
<event>
12    6  0.1542110E-007  0.3117621E+04  0.7818608E-02  0.8210919E-01
          2   -1    0    0  501    0  0.00000000000E+00  0.00000000000E+00  0.31378989933E+04  0.31378989933E+04  0.00000000000E+00 0. -1.
         -1   -1    0    0    0  501 -0.00000000000E+00 -0.00000000000E+00 -0.77436832295E+03  0.77436832295E+03  0.00000000000E+00 0.  1.
         24    2    1    2    0    0 -0.13023132674E+04 -0.46935304500E+03  0.15334527000E+04  0.20674948566E+04  0.82132039488E+02 0.  0.
        254    2    1    2    0    0  0.13023132674E+04  0.46935304500E+03  0.83007797039E+03  0.18447724596E+04  0.89322106096E+03 0.  0.
         23    2    4    4    0    0  0.57215684087E+02  0.37809389123E+03  0.15660927003E+03  0.42322523484E+03  0.91457699796E+02 0.  0.
         23    2    4    4    0    0  0.12450975833E+04  0.91259153763E+02  0.67346870036E+03  0.14215472248E+04  0.92952659812E+02 0.  0.
          4    1    3    3  502    0 -0.11827288195E+04 -0.43290262516E+03  0.14268823713E+04  0.19032197574E+04  0.00000000000E+00 0. -1.
         -3    1    3    3    0  502 -0.11958444788E+03 -0.36450419832E+02  0.10657032865E+03  0.16427509924E+03  0.00000000000E+00 0.  1.
         11    1    5    5    0    0  0.37831304347E+02  0.20637097379E+03  0.13397264027E+03  0.24893544294E+03  0.00000000000E+00 0.  1.
        -11    1    5    5    0    0  0.19384379741E+02  0.17172291744E+03  0.22636629762E+02  0.17428979190E+03  0.00000000000E+00 0. -1.
          1    1    6    6  503    0  0.69133648945E+03  0.53908097427E+02  0.32154027739E+03  0.76435618306E+03  0.00000000000E+00 0. -1.
         -1    1    6    6    0  503  0.55376109383E+03  0.37351056337E+02  0.35192842297E+03  0.65719104175E+03  0.00000000000E+00 0.  1.
<mgrwt>
<rscale>  0 0.31176206E+04</rscale>
<asrwt>0</asrwt>
<pdfrwt beam="1">  1        2 0.48275368E+00 0.31176206E+04</pdfrwt>
<pdfrwt beam="2">  1       -1 0.11913359E+00 0.31176206E+04</pdfrwt>
<totfact> 0.86278031E-01</totfact>
</mgrwt>
</event>
<event>
12    6  0.1542110E-007  0.2263066E+04  0.7818608E-02  0.8492628E-01
         -1   -1    0    0    0  501 -0.00000000000E+00  0.00000000000E+00  0.54966511107E+03  0.54966511107E+03  0.00000000000E+00 0.  1.
          2   -1    0    0  501    0  0.00000000000E+00 -0.00000000000E+00 -0.23293575111E+04  0.23293575111E+04  0.00000000000E+00 0. -1.
         24    2    1    2    0    0 -0.47467666422E+03 -0.79846406931E+03 -0.52941635759E+03  0.10720871946E+04  0.78907968695E+02 0.  0.
        254    2    1    2    0    0  0.47467666422E+03  0.79846406931E+03 -0.12502760424E+04  0.18069354276E+04  0.91594904428E+03 0.  0.
         23    2    4    4    0    0  0.67386764358E+03  0.67027615523E+03 -0.12225812576E+04  0.15513327438E+04  0.92523646490E+02 0.  0.
         23    2    4    4    0    0 -0.19919097936E+03  0.12818791408E+03 -0.27694784804E+02  0.25560268380E+03  0.91959465450E+02 0.  0.
          2    1    3    3  502    0 -0.45274935939E+03 -0.71960103006E+03 -0.47631676278E+03  0.97451797490E+03  0.00000000000E+00 0. -1.
         -1    1    3    3    0  502 -0.21927304828E+02 -0.78863039248E+02 -0.53099594811E+02  0.97569219662E+02  0.00000000000E+00 0.  1.
         11    1    5    5    0    0  0.66584903192E+03  0.67001055513E+03 -0.11987969017E+04  0.15262316629E+04  0.00000000000E+00 0. -1.
        -11    1    5    5    0    0  0.80186116668E+01  0.26560009977E+00 -0.23784355877E+02  0.25101080873E+02  0.00000000000E+00 0.  1.
          4    1    6    6  503    0 -0.12381891272E+03  0.46639639665E+02 -0.51593019005E+02  0.14201485396E+03  0.00000000000E+00 0. -1.
         -4    1    6    6    0  503 -0.75372066639E+02  0.81548274416E+02  0.23898234202E+02  0.11358782984E+03  0.00000000000E+00 0.  1.
<mgrwt>
<rscale>  0 0.22630657E+04</rscale>
<asrwt>0</asrwt>
<pdfrwt beam="1">  1        2 0.35836269E+00 0.22630657E+04</pdfrwt>
<pdfrwt beam="2">  1       -1 0.84563863E-01 0.22630657E+04</pdfrwt>
<totfact> 0.62492570E+00</totfact>
</mgrwt>
</event>
<event>
12    6  0.1542110E-007  0.1339620E+04  0.7818608E-02  0.8998723E-01
          2   -1    0    0  501    0  0.00000000000E+00  0.00000000000E+00  0.72733544089E+03  0.72733544089E+03  0.00000000000E+00 0. -1.
         -1   -1    0    0    0  501 -0.00000000000E+00 -0.00000000000E+00 -0.61683450997E+03  0.61683450997E+03  0.00000000000E+00 0.  1.
         24    2    1    2    0    0 -0.14702938683E+03  0.26688936059E+03  0.21707893207E+03  0.38288263347E+03  0.81414230171E+02 0.  0.
        254    2    1    2    0    0  0.14702938683E+03 -0.26688936059E+03 -0.10657800116E+03  0.96128731739E+03  0.90546499924E+03 0.  0.
         23    2    4    4    0    0 -0.30845027802E+03 -0.26338520235E+02  0.17395230678E+03  0.36705345173E+03  0.92916843113E+02 0.  0.
         23    2    4    4    0    0  0.45547966486E+03 -0.24055084036E+03 -0.28053030793E+03  0.59423386566E+03  0.95342548412E+02 0.  0.
          4    1    3    3  502    0 -0.13608566937E+03  0.25984969545E+03  0.22311381430E+03  0.36853893657E+03  0.00000000000E+00 0. -1.
         -3    1    3    3    0  502 -0.10943717470E+02  0.70396651410E+01 -0.60348822316E+01  0.14343696905E+02  0.00000000000E+00 0.  1.
         11    1    5    5    0    0 -0.16687419063E+03 -0.53789391901E+02  0.67787646757E+02  0.18797728382E+03  0.00000000000E+00 0. -1.
        -11    1    5    5    0    0 -0.14157608739E+03  0.27450871666E+02  0.10616466002E+03  0.17907616791E+03  0.00000000000E+00 0.  1.
          2    1    6    6  503    0  0.42693878170E+03 -0.21749521995E+03 -0.22921169590E+03  0.53114865674E+03  0.00000000000E+00 0. -1.
         -2    1    6    6    0  503  0.28540883160E+02 -0.23055620404E+02 -0.51318612036E+02  0.63085208925E+02  0.00000000000E+00 0.  1.
<mgrwt>
<rscale>  0 0.13396202E+04</rscale>
<asrwt>0</asrwt>
<pdfrwt beam="1">  1        2 0.11189776E+00 0.13396202E+04</pdfrwt>
<pdfrwt beam="2">  1       -1 0.94897617E-01 0.13396202E+04</pdfrwt>
<totfact> 0.46774862E+01</totfact>
</mgrwt>
</event>
<event>
12    6  0.1542110E-007  0.1256599E+04  0.7818608E-02  0.9064708E-01
         -1   -1    0    0    0  501 -0.00000000000E+00  0.00000000000E+00  0.51173209216E+03  0.51173209216E+03  0.00000000000E+00 0.  1.
          2   -1    0    0  501    0  0.00000000000E+00 -0.00000000000E+00 -0.77142019149E+03  0.77142019149E+03  0.00000000000E+00 0. -1.
         24    2    1    2    0    0  0.20362074908E+03  0.88775278252E+02 -0.27761738274E+03  0.36481424662E+03  0.81704123874E+02 0.  0.
        254    2    1    2    0    0 -0.20362074908E+03 -0.88775278252E+02  0.17929283414E+02  0.91833803703E+03  0.89088766495E+03 0.  0.
         23    2    4    4    0    0 -0.45183870337E+03  0.16014473520E+03 -0.15977049820E+03  0.51352678568E+03  0.91534678875E+02 0.  0.
         23    2    4    4    0    0  0.24821795430E+03 -0.24892001345E+03  0.17769978162E+03  0.40481125135E+03  0.93389565252E+02 0.  0.
          2    1    3    3  502    0  0.16133356747E+03  0.74853311665E+02 -0.26388498809E+03  0.31822448869E+03  0.00000000000E+00 0. -1.
         -3    1    3    3    0  502  0.42287181605E+02  0.13921966587E+02 -0.13732394645E+02  0.46589757935E+02  0.00000000000E+00 0.  1.
         11    1    5    5    0    0 -0.33689112108E+03  0.85244444635E+02 -0.14111388044E+03  0.37506715406E+03  0.00000000000E+00 0. -1.
        -11    1    5    5    0    0 -0.11494758229E+03  0.74900290563E+02 -0.18656617769E+02  0.13845963162E+03  0.00000000000E+00 0.  1.
          1    1    6    6  503    0  0.20855618827E+03 -0.24660860891E+03  0.14833475265E+03  0.35540777777E+03  0.00000000000E+00 0. -1.
         -1    1    6    6    0  503  0.39661766023E+02 -0.23114045390E+01  0.29365028966E+02  0.49403473574E+02  0.00000000000E+00 0.  1.
<mgrwt>
<rscale>  0 0.12565993E+04</rscale>
<asrwt>0</asrwt>
<pdfrwt beam="1">  1        2 0.11868003E+00 0.12565993E+04</pdfrwt>
<pdfrwt beam="2">  1       -1 0.78728014E-01 0.12565993E+04</pdfrwt>
<totfact> 0.65512607E+01</totfact>
</mgrwt>
</event>
<event>
12    6  0.1542110E-007  0.1101286E+04  0.7818608E-02  0.9203939E-01
          2   -1    0    0  501    0  0.00000000000E+00  0.00000000000E+00  0.18250455969E+04  0.18250455969E+04  0.00000000000E+00 0. -1.
         -1   -1    0    0    0  501 -0.00000000000E+00 -0.00000000000E+00 -0.16613711769E+03  0.16613711769E+03  0.00000000000E+00 0.  1.
         24    2    1    2    0    0  0.12923756376E+03  0.53638170999E+02  0.10993745823E+03  0.19546433561E+03  0.80874350047E+02 0.  0.
        254    2    1    2    0    0 -0.12923756376E+03 -0.53638170999E+02  0.15489710210E+04  0.17957183790E+04  0.89761565915E+03 0.  0.
         23    2    4    4    0    0 -0.12085548220E+03 -0.29095887573E+03  0.15018396778E+04  0.15371202489E+04  0.89180304041E+02 0.  0.
         23    2    4    4    0    0 -0.83820815631E+01  0.23732070473E+03  0.47131343175E+02  0.25859813015E+03  0.90885935211E+02 0.  0.
          4    1    3    3  502    0  0.54622260271E+02  0.51921791440E+01  0.88216333626E+02  0.10388778350E+03  0.00000000000E+00 0. -1.
         -3    1    3    3    0  502  0.74615303492E+02  0.48445991854E+02  0.21721124607E+02  0.91576552109E+02  0.00000000000E+00 0.  1.
         11    1    5    5    0    0 -0.21599577812E+02 -0.11608657499E+02  0.22418410694E+03  0.22552121074E+03  0.00000000000E+00 0. -1.
        -11    1    5    5    0    0 -0.99255904388E+02 -0.27935021823E+03  0.12776555709E+04  0.13115990381E+04  0.00000000000E+00 0.  1.
          3    1    6    6  503    0  0.32602581053E+02  0.40982588419E+02  0.20625130444E+02  0.56284072797E+02  0.00000000000E+00 0. -1.
         -3    1    6    6    0  503 -0.40984662616E+02  0.19633811632E+03  0.26506212732E+02  0.20231405735E+03  0.00000000000E+00 0.  1.
<mgrwt>
<rscale>  0 0.11012862E+04</rscale>
<asrwt>0</asrwt>
<pdfrwt beam="1">  1        2 0.28077623E+00 0.11012862E+04</pdfrwt>
<pdfrwt beam="2">  1       -1 0.25559558E-01 0.11012862E+04</pdfrwt>
<totfact> 0.12753900E+02</totfact>
</mgrwt>
</event>
<event>
12    6  0.1542110E-007  0.1639779E+04  0.7818608E-02  0.8796476E-01
         -1   -1    0    0    0  501 -0.00000000000E+00  0.00000000000E+00  0.69081425623E+03  0.69081425623E+03  0.00000000000E+00 0.  1.
          2   -1    0    0  501    0  0.00000000000E+00 -0.00000000000E+00 -0.97308220850E+03  0.97308220850E+03  0.00000000000E+00 0. -1.
         24    2    1    2    0    0 -0.23280322266E+03 -0.17281383946E+03  0.39797978716E+03  0.50002908676E+03  0.87058675791E+02 0.  0.
        254    2    1    2    0    0  0.23280322266E+03  0.17281383946E+03 -0.68024773943E+03  0.11638673780E+04  0.89877045063E+03 0.  0.
         23    2    4    4    0    0  0.41110946244E+03  0.33947098825E+03 -0.13197299492E+03  0.55667131649E+03  0.90634106431E+02 0.  0.
         23    2    4    4    0    0 -0.17830623978E+03 -0.16665714879E+03 -0.54827474451E+03  0.60719606148E+03  0.92272104237E+02 0.  0.
          4    1    3    3  502    0 -0.13604911273E+03 -0.83996395015E+02  0.14910947169E+03  0.21862842907E+03  0.00000000000E+00 0. -1.
         -1    1    3    3    0  502 -0.96754109925E+02 -0.88817444441E+02  0.24887031547E+03  0.28140065769E+03  0.00000000000E+00 0.  1.
         11    1    5    5    0    0  0.25240657933E+02 -0.66338986910E+00  0.13802448975E+01  0.25287071301E+02  0.00000000000E+00 0. -1.
        -11    1    5    5    0    0  0.38586880450E+03  0.34013437812E+03 -0.13335323982E+03  0.53138424519E+03  0.00000000000E+00 0.  1.
          3    1    6    6  503    0 -0.10889565243E+03 -0.55852882866E+02 -0.19200979838E+03  0.22769622377E+03  0.00000000000E+00 0. -1.
         -3    1    6    6    0  503 -0.69410587346E+02 -0.11080426593E+03 -0.35626494613E+03  0.37949983772E+03  0.00000000000E+00 0.  1.
<mgrwt>
<rscale>  0 0.16397793E+04</rscale>
<asrwt>0</asrwt>
<pdfrwt beam="1">  1        2 0.14970495E+00 0.16397793E+04</pdfrwt>
<pdfrwt beam="2">  1       -1 0.10627912E+00 0.16397793E+04</pdfrwt>
<totfact> 0.23675869E+01</totfact>
</mgrwt>
</event>
<event>
12    6  0.1542110E-007  0.1873014E+04  0.7818608E-02  0.8668407E-01
          2   -1    0    0  501    0  0.00000000000E+00  0.00000000000E+00  0.29510921793E+04  0.29510921793E+04  0.00000000000E+00 0. -1.
         -3   -1    0    0    0  501 -0.00000000000E+00 -0.00000000000E+00 -0.29719336113E+03  0.29719336113E+03  0.00000000000E+00 0.  1.
         24    2    1    2    0    0 -0.44589633810E+03 -0.22491529492E+03  0.13001077945E+03  0.52248319150E+03  0.81703417415E+02 0.  0.
        254    2    1    2    0    0  0.44589633810E+03  0.22491529492E+03  0.25238880387E+04  0.27258023489E+04  0.90032059800E+03 0.  0.
         23    2    4    4    0    0  0.12729867703E+03 -0.22244529023E+03  0.17580701567E+04  0.17788891480E+04  0.89157528286E+02 0.  0.
         23    2    4    4    0    0  0.31859766107E+03  0.44736058514E+03  0.76581788204E+03  0.94691320089E+03  0.92366762420E+02 0.  0.
          4    1    3    3  502    0 -0.44370546417E+02 -0.44512296532E+02  0.35774295639E+02  0.72317979510E+02  0.00000000000E+00 0. -1.
         -3    1    3    3    0  502 -0.40152579168E+03 -0.18040299838E+03  0.94236483808E+02  0.45016521199E+03  0.00000000000E+00 0.  1.
         11    1    5    5    0    0  0.36176800653E+02 -0.17762499584E+02  0.15139890952E+03  0.15667130274E+03  0.00000000000E+00 0.  1.
        -11    1    5    5    0    0  0.91121876373E+02 -0.20468279064E+03  0.16066712471E+04  0.16222178453E+04  0.00000000000E+00 0. -1.
          1    1    6    6  503    0  0.20772902798E+03  0.23805457068E+03  0.49382166262E+03  0.58624326193E+03  0.00000000000E+00 0. -1.
         -1    1    6    6    0  503  0.11086863309E+03  0.20930601446E+03  0.27199621941E+03  0.36066993896E+03  0.00000000000E+00 0.  1.
<mgrwt>
<rscale>  0 0.18730136E+04</rscale>
<asrwt>0</asrwt>
<pdfrwt beam="1">  1        2 0.45401416E+00 0.18730136E+04</pdfrwt>
<pdfrwt beam="2">  1       -3 0.45722058E-01 0.18730136E+04</pdfrwt>
<totfact> 0.54054914E+00</totfact>
</mgrwt>
</event>
<event>
12    6  0.1542110E-007  0.1631165E+04  0.7818608E-02  0.8801628E-01
         -1   -1    0    0    0  501 -0.00000000000E+00  0.00000000000E+00  0.68328388356E+03  0.68328388356E+03  0.00000000000E+00 0.  1.
          2   -1    0    0  501    0  0.00000000000E+00 -0.00000000000E+00 -0.97349663080E+03  0.97349663080E+03  0.00000000000E+00 0. -1.
         24    2    1    2    0    0 -0.11856652644E+03 -0.53191835481E+03  0.33839879803E+02  0.55208349927E+03  0.81583670700E+02 0.  0.
        254    2    1    2    0    0  0.11856652644E+03  0.53191835481E+03 -0.32405262704E+03  0.11046970151E+04  0.90462712356E+03 0.  0.
         23    2    4    4    0    0 -0.82921432991E+02  0.38537627841E+03  0.24789701185E+03  0.47415073450E+03  0.89303698313E+02 0.  0.
         23    2    4    4    0    0  0.20148795943E+03  0.14654207640E+03 -0.57194963889E+03  0.63054628059E+03  0.91598278299E+02 0.  0.
          4    1    3    3  502    0 -0.47440979903E+02 -0.91450078413E+02  0.24094632000E+02  0.10580318855E+03  0.00000000000E+00 0. -1.
         -3    1    3    3    0  502 -0.71125546540E+02 -0.44046827640E+03  0.97452478029E+01  0.44628031072E+03  0.00000000000E+00 0.  1.
         11    1    5    5    0    0 -0.10028588036E+03  0.33681618680E+03  0.22779846656E+03  0.41880131668E+03  0.00000000000E+00 0.  1.
        -11    1    5    5    0    0  0.17364447370E+02  0.48560091615E+02  0.20098545290E+02  0.55349417819E+02  0.00000000000E+00 0. -1.
          4    1    6    6  503    0  0.16555455234E+02 -0.83192422308E+01 -0.86632745586E+02  0.88591904241E+02  0.00000000000E+00 0. -1.
         -4    1    6    6    0  503  0.18493250420E+03  0.15486131863E+03 -0.48531689330E+03  0.54195437635E+03  0.00000000000E+00 0.  1.
<mgrwt>
<rscale>  0 0.16311647E+04</rscale>
<asrwt>0</asrwt>
<pdfrwt beam="1">  1        2 0.14976871E+00 0.16311647E+04</pdfrwt>
<pdfrwt beam="2">  1       -1 0.10512060E+00 0.16311647E+04</pdfrwt>
<totfact> 0.24291496E+01</totfact>
</mgrwt>
</event>
<event>
12    6  0.1542110E-007  0.1838860E+04  0.7818608E-02  0.8685903E-01
          2   -1    0    0  501    0  0.00000000000E+00  0.00000000000E+00  0.27058343273E+04  0.27058343273E+04  0.00000000000E+00 0. -1.
         -1   -1    0    0    0  501 -0.00000000000E+00 -0.00000000000E+00 -0.31241807007E+03  0.31241807007E+03  0.00000000000E+00 0.  1.
         24    2    1    2    0    0  0.64694066909E+03 -0.21397414971E+03  0.11488466911E+04  0.13380972588E+04  0.79613996607E+02 0.  0.
        254    2    1    2    0    0 -0.64694066909E+03  0.21397414971E+03  0.12445695662E+04  0.16801551385E+04  0.89980593376E+03 0.  0.
         23    2    4    4    0    0  0.75365237178E+02  0.36518440672E+03  0.40054624308E+03  0.55510379990E+03  0.93077204138E+02 0.  0.
         23    2    4    4    0    0 -0.72230590627E+03 -0.15121025701E+03  0.84402332307E+03  0.11250513386E+04  0.93673798823E+02 0.  0.
          2    1    3    3  502    0  0.60143514816E+03 -0.20951536732E+03  0.11008582936E+04  0.12718136299E+04  0.00000000000E+00 0. -1.
         -1    1    3    3    0  502  0.45505520930E+02 -0.44587823981E+01  0.47988397516E+02  0.66283628987E+02  0.00000000000E+00 0.  1.
         11    1    5    5    0    0  0.62169356489E+01  0.70181123360E+02  0.30343541129E+02  0.76712260123E+02  0.00000000000E+00 0. -1.
        -11    1    5    5    0    0  0.69148301529E+02  0.29500328336E+03  0.37020270195E+03  0.47839153978E+03  0.00000000000E+00 0.  1.
          3    1    6    6  503    0 -0.38446814002E+03 -0.11791700966E+03  0.41373503751E+03  0.57697214242E+03  0.00000000000E+00 0. -1.
         -3    1    6    6    0  503 -0.33783776625E+03 -0.33293247350E+02  0.43028828556E+03  0.54807919620E+03  0.00000000000E+00 0.  1.
<mgrwt>
<rscale>  0 0.18388600E+04</rscale>
<asrwt>0</asrwt>
<pdfrwt beam="1">  1        2 0.41628219E+00 0.18388600E+04</pdfrwt>
<pdfrwt beam="2">  1       -1 0.48064320E-01 0.18388600E+04</pdfrwt>
<totfact> 0.12234967E+01</totfact>
</mgrwt>
</event>
<event>
12    6  0.1542110E-007  0.1331914E+04  0.7818608E-02  0.9004633E-01
         -1   -1    0    0    0  501 -0.00000000000E+00  0.00000000000E+00  0.57036837375E+03  0.57036837375E+03  0.00000000000E+00 0.  1.
          2   -1    0    0  501    0  0.00000000000E+00 -0.00000000000E+00 -0.77756545920E+03  0.77756545920E+03  0.00000000000E+00 0. -1.
         24    2    1    2    0    0 -0.23400202218E+02  0.90696063587E+02 -0.37350414159E+03  0.39455279567E+03  0.85983832027E+02 0.  0.
        254    2    1    2    0    0  0.23400202218E+02 -0.90696063587E+02  0.16630705615E+03  0.95338103728E+03  0.93407923642E+03 0.  0.
         23    2    4    4    0    0  0.21592867270E+03  0.29051397809E+03 -0.16240435676E+03  0.40679270175E+03  0.89897519122E+02 0.  0.
         23    2    4    4    0    0 -0.19252847048E+03 -0.38121004167E+03  0.32871141292E+03  0.54658833553E+03  0.91210239199E+02 0.  0.
          2    1    3    3  502    0 -0.10356274083E+02  0.49475930197E+02 -0.32766527022E+03  0.33154132381E+03  0.00000000000E+00 0. -1.
         -1    1    3    3    0  502 -0.13043928135E+02  0.41220133390E+02 -0.45838871372E+02  0.63011471864E+02  0.00000000000E+00 0.  1.
         11    1    5    5    0    0  0.60327124342E+01  0.23450481519E+02  0.96033461290E+01  0.26048857166E+02  0.00000000000E+00 0.  1.
        -11    1    5    5    0    0  0.20989596027E+03  0.26706349657E+03 -0.17200770289E+03  0.38074384459E+03  0.00000000000E+00 0. -1.
          4    1    6    6  503    0 -0.13854193045E+03 -0.23737110592E+03  0.25981916446E+03  0.37821277958E+03  0.00000000000E+00 0. -1.
         -4    1    6    6    0  503 -0.53986540036E+02 -0.14383893575E+03  0.68892248461E+02  0.16837555595E+03  0.00000000000E+00 0.  1.
<mgrwt>
<rscale>  0 0.13319140E+04</rscale>
<asrwt>0</asrwt>
<pdfrwt beam="1">  1        2 0.11962546E+00 0.13319140E+04</pdfrwt>
<pdfrwt beam="2">  1       -1 0.87748980E-01 0.13319140E+04</pdfrwt>
<totfact> 0.51040823E+01</totfact>
</mgrwt>
</event>
<event>
12    6  0.1542110E-007  0.2495143E+04  0.7818608E-02  0.8404718E-01
         -1   -1    0    0    0  501 -0.00000000000E+00  0.00000000000E+00  0.59660113603E+03  0.59660113603E+03  0.00000000000E+00 0.  1.
          2   -1    0    0  501    0  0.00000000000E+00 -0.00000000000E+00 -0.26088352881E+04  0.26088352881E+04  0.00000000000E+00 0. -1.
         24    2    1    2    0    0 -0.90959744713E+03  0.50530344689E+03 -0.12758526173E+04  0.16484097487E+04  0.82193121499E+02 0.  0.
        254    2    1    2    0    0  0.90959744713E+03 -0.50530344689E+03 -0.73638153478E+03  0.15570266754E+04  0.89407785681E+03 0.  0.
         23    2    4    4    0    0  0.75271122577E+03 -0.74140791426E+03 -0.66285612333E+03  0.12504911935E+04  0.89944983646E+02 0.  0.
         23    2    4    4    0    0  0.15688622136E+03  0.23610446737E+03 -0.73525411451E+02  0.30653548194E+03  0.90550591339E+02 0.  0.
          2    1    3    3  502    0 -0.16385972379E+01 -0.25870511862E+01 -0.17950306277E+01  0.35496436022E+01  0.00000000000E+00 0. -1.
         -1    1    3    3    0  502 -0.90795884989E+03  0.50789049808E+03 -0.12740575867E+04  0.16448601051E+04  0.00000000000E+00 0.  1.
         11    1    5    5    0    0  0.54926811363E+03 -0.49325187471E+03 -0.48936952360E+03  0.88570616075E+03  0.00000000000E+00 0. -1.
        -11    1    5    5    0    0  0.20344311214E+03 -0.24815603955E+03 -0.17348659973E+03  0.36478503277E+03  0.00000000000E+00 0.  1.
          3    1    6    6  503    0  0.15138520198E+03  0.22857693737E+03 -0.89191116144E+02  0.28830530844E+03  0.00000000000E+00 0. -1.
         -3    1    6    6    0  503  0.55010193782E+01  0.75275300002E+01  0.15665704693E+02  0.18230173494E+02  0.00000000000E+00 0.  1.
<mgrwt>
<rscale>  0 0.24951426E+04</rscale>
<asrwt>0</asrwt>
<pdfrwt beam="1">  1        2 0.40135928E+00 0.24951426E+04</pdfrwt>
<pdfrwt beam="2">  1       -1 0.91784789E-01 0.24951426E+04</pdfrwt>
<totfact> 0.35284039E+00</totfact>
</mgrwt>
</event>
<event>
12    6  0.1542110E-007  0.1885434E+04  0.7818608E-02  0.8662141E-01
          2   -1    0    0  501    0  0.00000000000E+00  0.00000000000E+00  0.10413408390E+04  0.10413408390E+04  0.00000000000E+00 0. -1.
         -1   -1    0    0    0  501 -0.00000000000E+00 -0.00000000000E+00 -0.85343384581E+03  0.85343384581E+03  0.00000000000E+00 0.  1.
         24    2    1    2    0    0 -0.39750792923E+03 -0.11591105254E+03  0.67807604625E+03  0.79845313569E+03  0.79324394050E+02 0.  0.
        254    2    1    2    0    0  0.39750792923E+03  0.11591105254E+03 -0.49016905308E+03  0.10963215491E+04  0.88893605649E+03 0.  0.
         23    2    4    4    0    0  0.15222486648E+03  0.10835290334E+03 -0.71908344732E+03  0.74893493107E+03  0.94391552207E+02 0.  0.
         23    2    4    4    0    0  0.24528306275E+03  0.75581491970E+01  0.22891439423E+03  0.34738661804E+03  0.89748292536E+02 0.  0.
          2    1    3    3  502    0 -0.39941555611E+03 -0.11821252396E+03  0.66231966119E+03  0.78241569570E+03  0.00000000000E+00 0. -1.
         -1    1    3    3    0  502  0.19076268871E+01  0.23014714178E+01  0.15756385060E+02  0.16037439983E+02  0.00000000000E+00 0.  1.
         11    1    5    5    0    0  0.75005817599E+02  0.51296920392E+01 -0.18904909161E+03  0.20344961404E+03  0.00000000000E+00 0. -1.
        -11    1    5    5    0    0  0.77219048877E+02  0.10322321130E+03 -0.53003435571E+03  0.54548531703E+03  0.00000000000E+00 0.  1.
          3    1    6    6  503    0  0.74592696757E+02  0.18548433865E+02  0.24120826345E+02  0.80560096027E+02  0.00000000000E+00 0. -1.
         -3    1    6    6    0  503  0.17069036599E+03 -0.10990284668E+02  0.20479356789E+03  0.26682652201E+03  0.00000000000E+00 0.  1.
<mgrwt>
<rscale>  0 0.18854342E+04</rscale>
<asrwt>0</asrwt>
<pdfrwt beam="1">  1        2 0.16020628E+00 0.18854342E+04</pdfrwt>
<pdfrwt beam="2">  1       -1 0.13129751E+00 0.18854342E+04</pdfrwt>
<totfact> 0.12539703E+01</totfact>
</mgrwt>
</event>
<event>
12    6  0.1542110E-007  0.2808641E+04  0.7818608E-02  0.8300591E-01
         -1   -1    0    0    0  501 -0.00000000000E+00  0.00000000000E+00  0.61102190206E+03  0.61102190206E+03  0.00000000000E+00 0.  1.
          2   -1    0    0  501    0  0.00000000000E+00 -0.00000000000E+00 -0.32275700811E+04  0.32275700811E+04  0.00000000000E+00 0. -1.
         24    2    1    2    0    0  0.11582907898E+04 -0.37127065759E+03 -0.15908015701E+04  0.20041883749E+04  0.81498168761E+02 0.  0.
        254    2    1    2    0    0 -0.11582907898E+04  0.37127065759E+03 -0.10257466089E+04  0.18344036083E+04  0.91290801143E+03 0.  0.
         23    2    4    4    0    0 -0.68671965059E+03  0.32716820280E+03 -0.11068364664E+04  0.13461323465E+04  0.91446265830E+02 0.  0.
         23    2    4    4    0    0 -0.47157113925E+03  0.44102454797E+02  0.81089857460E+02  0.48827126179E+03  0.86653875923E+02 0.  0.
          4    1    3    3  502    0  0.75789972842E+03 -0.22327810026E+03 -0.10880517744E+04  0.13446641856E+04  0.00000000000E+00 0. -1.
         -3    1    3    3    0  502  0.40039106142E+03 -0.14799255733E+03 -0.50274979575E+03  0.65952418926E+03  0.00000000000E+00 0.  1.
         11    1    5    5    0    0 -0.78676552217E+02  0.25377367627E+02 -0.78843052637E+02  0.11423763655E+03  0.00000000000E+00 0. -1.
        -11    1    5    5    0    0 -0.60804309837E+03  0.30179083517E+03 -0.10279934137E+04  0.12318947099E+04  0.00000000000E+00 0.  1.
          1    1    6    6  503    0 -0.29248533175E+02  0.18686661691E+02 -0.96448927960E+01  0.36023491989E+02  0.00000000000E+00 0. -1.
         -1    1    6    6    0  503 -0.44232260607E+03  0.25415793106E+02  0.90734750256E+02  0.45224776980E+03  0.00000000000E+00 0.  1.
<mgrwt>
<rscale>  0 0.28086410E+04</rscale>
<asrwt>0</asrwt>
<pdfrwt beam="1">  1        2 0.49654925E+00 0.28086410E+04</pdfrwt>
<pdfrwt beam="2">  1       -1 0.94003368E-01 0.28086410E+04</pdfrwt>
<totfact> 0.13473117E+00</totfact>
</mgrwt>
</event>
<event>
12    6  0.1542110E-007  0.1368277E+04  0.7818608E-02  0.8977107E-01
          2   -1    0    0  501    0  0.00000000000E+00  0.00000000000E+00  0.35767846307E+03  0.35767846307E+03  0.00000000000E+00 0. -1.
         -1   -1    0    0    0  501 -0.00000000000E+00 -0.00000000000E+00 -0.13085656098E+04  0.13085656098E+04  0.00000000000E+00 0.  1.
         24    2    1    2    0    0 -0.12299297666E+03  0.11397631610E+03  0.14488979635E+03  0.23583092640E+03  0.80655438856E+02 0.  0.
        254    2    1    2    0    0  0.12299297666E+03 -0.11397631610E+03 -0.10957769430E+04  0.14304131464E+04  0.90401149752E+03 0.  0.
         23    2    4    4    0    0 -0.10087825547E+03  0.32939681365E+03 -0.70198417834E+03  0.78817601372E+03  0.98797564243E+02 0.  0.
         23    2    4    4    0    0  0.22387123213E+03 -0.44337312975E+03 -0.39379276470E+03  0.64223713271E+03  0.10342984261E+03 0.  0.
          4    1    3    3  502    0 -0.12502140560E+03  0.83550401328E+02  0.96618784798E+02  0.17873503013E+03  0.00000000000E+00 0. -1.
         -3    1    3    3    0  502  0.20284289366E+01  0.30425914774E+02  0.48271011554E+02  0.57095896265E+02  0.00000000000E+00 0.  1.
         11    1    5    5    0    0 -0.61041060453E+02  0.25017821986E+03 -0.42081530217E+03  0.49335653568E+03  0.00000000000E+00 0. -1.
        -11    1    5    5    0    0 -0.39837195017E+02  0.79218593782E+02 -0.28116887617E+03  0.29481947804E+03  0.00000000000E+00 0.  1.
          3    1    6    6  503    0  0.15495900507E+03 -0.39149853378E+03 -0.32972781760E+03  0.53479325810E+03  0.00000000000E+00 0. -1.
         -3    1    6    6    0  503  0.68912227062E+02 -0.51874595968E+02 -0.64064947093E+02  0.10744387461E+03  0.00000000000E+00 0.  1.
<mgrwt>
<rscale>  0 0.13682774E+04</rscale>
<asrwt>0</asrwt>
<pdfrwt beam="1">  1        2 0.55027454E-01 0.13682774E+04</pdfrwt>
<pdfrwt beam="2">  1       -1 0.20131779E+00 0.13682774E+04</pdfrwt>
<totfact> 0.14843415E+01</totfact>
</mgrwt>
</event>
<event>
12    6  0.1542110E-007  0.2266057E+04  0.7818608E-02  0.8491426E-01
          2   -1    0    0  501    0  0.00000000000E+00  0.00000000000E+00  0.19180216294E+04  0.19180216294E+04  0.00000000000E+00 0. -1.
         -1   -1    0    0    0  501 -0.00000000000E+00 -0.00000000000E+00 -0.66931146215E+03  0.66931146215E+03  0.00000000000E+00 0.  1.
         24    2    1    2    0    0 -0.11808330313E+03 -0.11813866440E+03  0.15979275853E+04  0.16083271453E+04  0.73778234736E+02 0.  0.
        254    2    1    2    0    0  0.11808330313E+03  0.11813866440E+03 -0.34921741803E+03  0.97900594629E+03  0.89922156742E+03 0.  0.
         23    2    4    4    0    0 -0.29296439279E+02  0.31880287923E+03  0.18620087503E+03  0.38102754871E+03  0.89541442101E+02 0.  0.
         23    2    4    4    0    0  0.14737974241E+03 -0.20066421483E+03 -0.53541829305E+03  0.59797839758E+03  0.94437809420E+02 0.  0.
          4    1    3    3  502    0 -0.10546830364E+03 -0.12777439389E+03  0.14014639750E+04  0.14112232750E+04  0.00000000000E+00 0. -1.
         -3    1    3    3    0  502 -0.12614999488E+02  0.96357294859E+01  0.19646361028E+03  0.19710387023E+03  0.00000000000E+00 0.  1.
         11    1    5    5    0    0  0.27384932391E+02  0.16280375224E+03  0.75612736256E+02  0.18158271435E+03  0.00000000000E+00 0.  1.
        -11    1    5    5    0    0 -0.56681371671E+02  0.15599912699E+03  0.11058813877E+03  0.19944483436E+03  0.00000000000E+00 0. -1.
          1    1    6    6  503    0  0.14731543401E+03 -0.13502315149E+03 -0.38212180544E+03  0.43121939049E+03  0.00000000000E+00 0. -1.
         -1    1    6    6    0  503  0.64308390759E-01 -0.65641063338E+02 -0.15329648761E+03  0.16675900709E+03  0.00000000000E+00 0.  1.
<mgrwt>
<rscale>  0 0.22660572E+04</rscale>
<asrwt>0</asrwt>
<pdfrwt beam="1">  1        2 0.29508025E+00 0.22660572E+04</pdfrwt>
<pdfrwt beam="2">  1       -1 0.10297099E+00 0.22660572E+04</pdfrwt>
<totfact> 0.68406802E+00</totfact>
</mgrwt>
</event>
<event>
12    6  0.1542110E-007  0.1922507E+04  0.7818608E-02  0.8643734E-01
          2   -1    0    0  501    0  0.00000000000E+00  0.00000000000E+00  0.17320269090E+04  0.17320269090E+04  0.00000000000E+00 0. -1.
         -1   -1    0    0    0  501 -0.00000000000E+00 -0.00000000000E+00 -0.53348372718E+03  0.53348372718E+03  0.00000000000E+00 0.  1.
         24    2    1    2    0    0  0.37019512198E+03  0.23850170112E+03 -0.23256021545E+03  0.50466496683E+03  0.81700582379E+02 0.  0.
        254    2    1    2    0    0 -0.37019512198E+03 -0.23850170112E+03  0.14311033972E+04  0.17608456693E+04  0.92660296125E+03 0.  0.
         23    2    4    4    0    0 -0.24721034523E+03  0.25312081653E+03  0.17755098633E+03  0.40571145048E+03  0.88850018291E+02 0.  0.
         23    2    4    4    0    0 -0.12298477675E+03 -0.49162251766E+03  0.12535524109E+04  0.13551342188E+04  0.90427589838E+02 0.  0.
          4    1    3    3  502    0  0.34799891133E+02  0.53388265536E+02 -0.21347972420E+02  0.67209190192E+02  0.00000000000E+00 0. -1.
         -3    1    3    3    0  502  0.33539523085E+03  0.18511343559E+03 -0.21121224303E+03  0.43745577664E+03  0.00000000000E+00 0.  1.
         11    1    5    5    0    0 -0.89852617538E+02  0.39822750412E+02  0.64445254248E+02  0.11752674216E+03  0.00000000000E+00 0.  1.
        -11    1    5    5    0    0 -0.15735772770E+03  0.21329806612E+03  0.11310573208E+03  0.28818470831E+03  0.00000000000E+00 0. -1.
          3    1    6    6  503    0 -0.28892653946E+02 -0.26285148143E+03  0.57471559507E+03  0.63263235924E+03  0.00000000000E+00 0. -1.
         -3    1    6    6    0  503 -0.94092122805E+02 -0.22877103623E+03  0.67883681583E+03  0.72250185960E+03  0.00000000000E+00 0.  1.
<mgrwt>
<rscale>  0 0.19225069E+04</rscale>
<asrwt>0</asrwt>
<pdfrwt beam="1">  1        2 0.26646568E+00 0.19225069E+04</pdfrwt>
<pdfrwt beam="2">  1       -1 0.82074420E-01 0.19225069E+04</pdfrwt>
<totfact> 0.14799621E+01</totfact>
</mgrwt>
</event>
<event>
12    6  0.1542110E-007  0.1707103E+04  0.7818608E-02  0.8757324E-01
         -1   -1    0    0    0  501 -0.00000000000E+00  0.00000000000E+00  0.32457059490E+03  0.32457059490E+03  0.00000000000E+00 0.  1.
          2   -1    0    0  501    0  0.00000000000E+00 -0.00000000000E+00 -0.22446582936E+04  0.22446582936E+04  0.00000000000E+00 0. -1.
         24    2    1    2    0    0  0.24041411919E+03  0.52743435493E+03 -0.99087232600E+03  0.11507681140E+04  0.80332672758E+02 0.  0.
        254    2    1    2    0    0 -0.24041411919E+03 -0.52743435493E+03 -0.92921537274E+03  0.14184607745E+04  0.90144540182E+03 0.  0.
         23    2    4    4    0    0  0.30593459179E+03 -0.26405727918E+03 -0.58025586928E+03  0.71273173957E+03  0.89260504184E+02 0.  0.
         23    2    4    4    0    0 -0.54634871099E+03 -0.26337707575E+03 -0.34895950346E+03  0.70572903496E+03  0.91740600063E+02 0.  0.
          2    1    3    3  502    0  0.16468620703E+03  0.35485580007E+03 -0.59156308349E+03  0.70921863158E+03  0.00000000000E+00 0. -1.
         -1    1    3    3    0  502  0.75727912163E+02  0.17257855485E+03 -0.39930924251E+03  0.44154948242E+03  0.00000000000E+00 0.  1.
         11    1    5    5    0    0  0.18189798363E+02 -0.62479699167E+01 -0.51603736042E+01  0.19913195331E+02  0.00000000000E+00 0. -1.
        -11    1    5    5    0    0  0.28774479343E+03 -0.25780930926E+03 -0.57509549568E+03  0.69281854424E+03  0.00000000000E+00 0.  1.
          1    1    6    6  503    0 -0.35272949523E+03 -0.20742531419E+03 -0.26427515656E+03  0.48711879059E+03  0.00000000000E+00 0. -1.
         -1    1    6    6    0  503 -0.19361921576E+03 -0.55951761559E+02 -0.84684346901E+02  0.21861024437E+03  0.00000000000E+00 0.  1.
<mgrwt>
<rscale>  0 0.17071029E+04</rscale>
<asrwt>0</asrwt>
<pdfrwt beam="1">  1        2 0.34533204E+00 0.17071029E+04</pdfrwt>
<pdfrwt beam="2">  1       -1 0.49933938E-01 0.17071029E+04</pdfrwt>
<totfact> 0.21249879E+01</totfact>
</mgrwt>
</event>
<event>
12    6  0.1542110E-007  0.1770132E+04  0.7818608E-02  0.8722346E-01
         -1   -1    0    0    0  501 -0.00000000000E+00  0.00000000000E+00  0.35752845055E+03  0.35752845055E+03  0.00000000000E+00 0.  1.
          2   -1    0    0  501    0  0.00000000000E+00 -0.00000000000E+00 -0.21909911079E+04  0.21909911079E+04  0.00000000000E+00 0. -1.
         24    2    1    2    0    0 -0.25295404143E+03 -0.39857636678E+03 -0.13212777451E+04  0.14054330330E+04  0.81352710375E+02 0.  0.
        254    2    1    2    0    0  0.25295404143E+03  0.39857636678E+03 -0.51218491231E+03  0.11430865254E+04  0.90634681718E+03 0.  0.
         23    2    4    4    0    0 -0.66384236230E+02  0.10905727379E+03  0.23089002134E+03  0.27927289798E+03  0.91557598282E+02 0.  0.
         23    2    4    4    0    0  0.31933827766E+03  0.28951909299E+03 -0.74307493365E+03  0.86381362746E+03  0.90638762046E+02 0.  0.
          2    1    3    3  502    0 -0.25900148432E+03 -0.39162825351E+03 -0.13018548543E+04  0.13839366024E+04  0.00000000000E+00 0. -1.
         -1    1    3    3    0  502  0.60474428898E+01 -0.69481132741E+01 -0.19422890758E+02  0.21496430610E+02  0.00000000000E+00 0.  1.
         11    1    5    5    0    0 -0.48168626685E+02  0.97029593062E+02  0.23338701621E+03  0.25730226945E+03  0.00000000000E+00 0. -1.
        -11    1    5    5    0    0 -0.18215609545E+02  0.12027680728E+02 -0.24969948665E+01  0.21970628533E+02  0.00000000000E+00 0.  1.
          2    1    6    6  503    0  0.28808180652E+03  0.25737180504E+03 -0.70931470500E+03  0.80768726869E+03  0.00000000000E+00 0. -1.
         -2    1    6    6    0  503  0.31256471134E+02  0.32147287948E+02 -0.33760228655E+02  0.56126358772E+02  0.00000000000E+00 0.  1.
<mgrwt>
<rscale>  0 0.17701318E+04</rscale>
<asrwt>0</asrwt>
<pdfrwt beam="1">  1        2 0.33707555E+00 0.17701318E+04</pdfrwt>
<pdfrwt beam="2">  1       -1 0.55004378E-01 0.17701318E+04</pdfrwt>
<totfact> 0.18813794E+01</totfact>
</mgrwt>
</event>
<event>
12    6  0.1542110E-007  0.2251942E+04  0.7818608E-02  0.8497115E-01
          2   -1    0    0  501    0  0.00000000000E+00  0.00000000000E+00  0.17564028486E+04  0.17564028486E+04  0.00000000000E+00 0. -1.
         -1   -1    0    0    0  501 -0.00000000000E+00 -0.00000000000E+00 -0.72182209063E+03  0.72182209063E+03  0.00000000000E+00 0.  1.
         24    2    1    2    0    0 -0.30440977675E+02 -0.73140146011E+03  0.11225405550E+04  0.13425197008E+04  0.79919337783E+02 0.  0.
        254    2    1    2    0    0  0.30440977675E+02  0.73140146011E+03 -0.87959797062E+02  0.11357052384E+04  0.86383720316E+03 0.  0.
         23    2    4    4    0    0 -0.40156221964E+03  0.31140069469E+03  0.13576677417E+02  0.51729519865E+03  0.95850860605E+02 0.  0.
         23    2    4    4    0    0  0.43200319731E+03  0.42000076542E+03 -0.10153647448E+03  0.61841003971E+03  0.95362026652E+02 0.  0.
          4    1    3    3  502    0 -0.49171856542E+02 -0.60795328481E+03  0.96331408896E+03  0.11401750313E+04  0.00000000000E+00 0. -1.
         -3    1    3    3    0  502  0.18730878867E+02 -0.12344817530E+03  0.15922646603E+03  0.20234466954E+03  0.00000000000E+00 0.  1.
         11    1    5    5    0    0 -0.11771018903E+03  0.12534214435E+03 -0.31846436145E+02  0.17487291742E+03  0.00000000000E+00 0. -1.
        -11    1    5    5    0    0 -0.28385203061E+03  0.18605855034E+03  0.45423113562E+02  0.34242228123E+03  0.00000000000E+00 0.  1.
          4    1    6    6  503    0  0.31958692329E+02  0.74288190838E+02 -0.21302204124E+02  0.83629404003E+02  0.00000000000E+00 0. -1.
         -4    1    6    6    0  503  0.40004450498E+03  0.34571257458E+03 -0.80234270356E+02  0.53478063571E+03  0.00000000000E+00 0.  1.
<mgrwt>
<rscale>  0 0.22519417E+04</rscale>
<asrwt>0</asrwt>
<pdfrwt beam="1">  1        2 0.27021582E+00 0.22519417E+04</pdfrwt>
<pdfrwt beam="2">  1       -1 0.11104955E+00 0.22519417E+04</pdfrwt>
<totfact> 0.70548953E+00</totfact>
</mgrwt>
</event>
<event>
12    6  0.1542110E-007  0.1303103E+04  0.7818608E-02  0.9027108E-01
          2   -1    0    0  501    0  0.00000000000E+00  0.00000000000E+00  0.15143939168E+04  0.15143939168E+04  0.00000000000E+00 0. -1.
         -1   -1    0    0    0  501 -0.00000000000E+00 -0.00000000000E+00 -0.28032280072E+03  0.28032280072E+03  0.00000000000E+00 0.  1.
         24    2    1    2    0    0  0.32486975749E+03  0.89380486280E+02  0.32976177959E+03  0.47786866712E+03  0.78015389995E+02 0.  0.
        254    2    1    2    0    0 -0.32486975749E+03 -0.89380486280E+02  0.90430933647E+03  0.13168480504E+04  0.89598224373E+03 0.  0.
         23    2    4    4    0    0 -0.37328712823E+03 -0.15534782998E+03  0.94831409568E+01  0.41360557127E+03  0.86622227173E+02 0.  0.
         23    2    4    4    0    0  0.48417370736E+02  0.65967343698E+02  0.89482619551E+03  0.90324247910E+03  0.91853816809E+02 0.  0.
          4    1    3    3  502    0  0.45695319529E+01  0.15103333304E+02  0.24923082786E+02  0.29498327999E+02  0.00000000000E+00 0. -1.
         -3    1    3    3    0  502  0.32030022554E+03  0.74277152976E+02  0.30483869680E+03  0.44837033912E+03  0.00000000000E+00 0.  1.
         11    1    5    5    0    0 -0.35574021032E+03 -0.15941133867E+03  0.23868793276E+02  0.39055446666E+03  0.00000000000E+00 0.  1.
        -11    1    5    5    0    0 -0.17546917911E+02  0.40635086918E+01 -0.14385652320E+02  0.23051104610E+02  0.00000000000E+00 0. -1.
          1    1    6    6  503    0 -0.58049028758E+01  0.41955984366E+02  0.14458504986E+03  0.15066133600E+03  0.00000000000E+00 0. -1.
         -1    1    6    6    0  503  0.54222273612E+02  0.24011359332E+02  0.75024114565E+03  0.75258114310E+03  0.00000000000E+00 0.  1.
<mgrwt>
<rscale>  0 0.13031027E+04</rscale>
<asrwt>0</asrwt>
<pdfrwt beam="1">  1        2 0.23298367E+00 0.13031027E+04</pdfrwt>
<pdfrwt beam="2">  1       -1 0.43126586E-01 0.13031027E+04</pdfrwt>
<totfact> 0.73727269E+01</totfact>
</mgrwt>
</event>
<event>
12    6  0.1542110E-007  0.1619498E+04  0.7818608E-02  0.8808659E-01
         -1   -1    0    0    0  501 -0.00000000000E+00  0.00000000000E+00  0.13147989124E+04  0.13147989124E+04  0.00000000000E+00 0.  1.
          2   -1    0    0  501    0  0.00000000000E+00 -0.00000000000E+00 -0.49870219100E+03  0.49870219100E+03  0.00000000000E+00 0. -1.
         24    2    1    2    0    0 -0.11815268592E+03 -0.51862974554E+02 -0.32345763709E+03  0.35331463179E+03  0.59636907445E+02 0.  0.
        254    2    1    2    0    0  0.11815268592E+03  0.51862974554E+02  0.11395543584E+04  0.14601864716E+04  0.90383105201E+03 0.  0.
         23    2    4    4    0    0  0.20194696807E+03 -0.42259142257E+01  0.12581446371E+04  0.12777037417E+04  0.93800253751E+02 0.  0.
         23    2    4    4    0    0 -0.83794282154E+02  0.56088888780E+02 -0.11859027861E+03  0.18248272984E+03  0.95230495868E+02 0.  0.
          2    1    3    3  502    0 -0.89107096529E+02 -0.10567289547E+02 -0.17788610376E+03  0.19923656334E+03  0.00000000000E+00 0. -1.
         -1    1    3    3    0  502 -0.29045589388E+02 -0.41295685007E+02 -0.14557153333E+03  0.15407806846E+03  0.00000000000E+00 0.  1.
         11    1    5    5    0    0  0.12576932831E+03 -0.48265049618E+02  0.75712524654E+03  0.76901630535E+03  0.00000000000E+00 0.  1.
        -11    1    5    5    0    0  0.76177639760E+02  0.44039135392E+02  0.50101939052E+03  0.50868743637E+03  0.00000000000E+00 0. -1.
          3    1    6    6  503    0 -0.22450694435E+02 -0.10063956561E+02  0.90179558019E+01  0.26203824704E+02  0.00000000000E+00 0. -1.
         -3    1    6    6    0  503 -0.61343587719E+02  0.66152845341E+02 -0.12760823441E+03  0.15627890514E+03  0.00000000000E+00 0.  1.
<mgrwt>
<rscale>  0 0.16194976E+04</rscale>
<asrwt>0</asrwt>
<pdfrwt beam="1">  1        2 0.76723414E-01 0.16194976E+04</pdfrwt>
<pdfrwt beam="2">  1       -1 0.20227675E+00 0.16194976E+04</pdfrwt>
<totfact> 0.98120783E+00</totfact>
</mgrwt>
</event>
<event>
12    6  0.1542110E-007  0.1724265E+04  0.7818608E-02  0.8747645E-01
         -1   -1    0    0    0  501 -0.00000000000E+00  0.00000000000E+00  0.30021527490E+03  0.30021527490E+03  0.00000000000E+00 0.  1.
          2   -1    0    0  501    0  0.00000000000E+00 -0.00000000000E+00 -0.24757981904E+04  0.24757981904E+04  0.00000000000E+00 0. -1.
         24    2    1    2    0    0  0.29053629806E+03 -0.25581904771E+03 -0.53301125065E+01  0.39518931813E+03  0.79318733034E+02 0.  0.
        254    2    1    2    0    0 -0.29053629806E+03  0.25581904771E+03 -0.21702528030E+04  0.23808241472E+04  0.89915052422E+03 0.  0.
         23    2    4    4    0    0 -0.60768800062E+03  0.17620643186E+03 -0.14133528772E+04  0.15513513014E+04  0.93760824028E+02 0.  0.
         23    2    4    4    0    0  0.31715170256E+03  0.79612615844E+02 -0.75689992581E+03  0.82947284580E+03  0.90577774220E+02 0.  0.
          2    1    3    3  502    0  0.20634283960E+03 -0.13814934120E+03 -0.23203322901E+02  0.24940128733E+03  0.00000000000E+00 0. -1.
         -1    1    3    3    0  502  0.84193458454E+02 -0.11766970650E+03  0.17873210394E+02  0.14578803080E+03  0.00000000000E+00 0.  1.
         11    1    5    5    0    0 -0.43508186237E+02 -0.83843560416E+01 -0.13045735207E+03  0.13777655970E+03  0.00000000000E+00 0. -1.
        -11    1    5    5    0    0 -0.56417981438E+03  0.18459078790E+03 -0.12828955251E+04  0.14135747417E+04  0.00000000000E+00 0.  1.
          4    1    6    6  503    0  0.45336642043E+02  0.37685305513E+01 -0.20055037446E+03  0.20564548531E+03  0.00000000000E+00 0. -1.
         -4    1    6    6    0  503  0.27181506052E+03  0.75844085293E+02 -0.55634955136E+03  0.62382736049E+03  0.00000000000E+00 0.  1.
<mgrwt>
<rscale>  0 0.17242650E+04</rscale>
<asrwt>0</asrwt>
<pdfrwt beam="1">  1        2 0.38089201E+00 0.17242650E+04</pdfrwt>
<pdfrwt beam="2">  1       -1 0.46186968E-01 0.17242650E+04</pdfrwt>
<totfact> 0.18160819E+01</totfact>
</mgrwt>
</event>
<event>
12    6  0.1542110E-007  0.1580496E+04  0.7818608E-02  0.8832620E-01
         -1   -1    0    0    0  501 -0.00000000000E+00  0.00000000000E+00  0.54701330954E+03  0.54701330954E+03  0.00000000000E+00 0.  1.
          2   -1    0    0  501    0  0.00000000000E+00 -0.00000000000E+00 -0.11416393813E+04  0.11416393813E+04  0.00000000000E+00 0. -1.
         24    2    1    2    0    0 -0.45726483613E+02 -0.41472600421E+03  0.14088627993E+03  0.44816166974E+03  0.83134640676E+02 0.  0.
        254    2    1    2    0    0  0.45726483613E+02  0.41472600421E+03 -0.73551235172E+03  0.12404910211E+04  0.90760728517E+03 0.  0.
         23    2    4    4    0    0  0.92322021658E+02 -0.27372605485E+03 -0.22561773021E+03  0.37765455310E+03  0.90941148584E+02 0.  0.
         23    2    4    4    0    0 -0.46595538044E+02  0.68845205906E+03 -0.50989462151E+03  0.86283646803E+03  0.91415883405E+02 0.  0.
          2    1    3    3  502    0 -0.11844814505E+02 -0.29642503226E+01  0.54978199154E+01  0.13390759293E+02  0.00000000000E+00 0. -1.
         -1    1    3    3    0  502 -0.33881669109E+02 -0.41176175389E+03  0.13538846002E+03  0.43477091045E+03  0.00000000000E+00 0.  1.
         11    1    5    5    0    0  0.82385002743E+02 -0.13069492855E+03 -0.82794644023E+02  0.17528093480E+03  0.00000000000E+00 0. -1.
        -11    1    5    5    0    0  0.99370189143E+01 -0.14303112629E+03 -0.14282308619E+03  0.20237361830E+03  0.00000000000E+00 0.  1.
          4    1    6    6  503    0 -0.27114712435E+00  0.34003151629E+03 -0.20160275656E+03  0.39530390467E+03  0.00000000000E+00 0. -1.
         -4    1    6    6    0  503 -0.46324390920E+02  0.34842054277E+03 -0.30829186494E+03  0.46753256336E+03  0.00000000000E+00 0.  1.
<mgrwt>
<rscale>  0 0.15804960E+04</rscale>
<asrwt>0</asrwt>
<pdfrwt beam="1">  1        2 0.17563682E+00 0.15804960E+04</pdfrwt>
<pdfrwt beam="2">  1       -1 0.84155896E-01 0.15804960E+04</pdfrwt>
<totfact> 0.31480428E+01</totfact>
</mgrwt>
</event>
<event>
12    6  0.1542110E-007  0.1797072E+04  0.7818608E-02  0.8707858E-01
         -1   -1    0    0    0  501 -0.00000000000E+00  0.00000000000E+00  0.35921474458E+03  0.35921474458E+03  0.00000000000E+00 0.  1.
          2   -1    0    0  501    0  0.00000000000E+00 -0.00000000000E+00 -0.22475880934E+04  0.22475880934E+04  0.00000000000E+00 0. -1.
         24    2    1    2    0    0  0.13872918671E+03  0.11356329351E+03 -0.16457332800E+04  0.16573357742E+04  0.78622073148E+02 0.  0.
        254    2    1    2    0    0 -0.13872918671E+03 -0.11356329351E+03 -0.24264006880E+03  0.94946706385E+03  0.90026168055E+03 0.  0.
         23    2    4    4    0    0  0.98235774709E+02 -0.45963659137E+03 -0.19276116741E+03  0.51627623869E+03  0.92022950521E+02 0.  0.
         23    2    4    4    0    0 -0.23696496142E+03  0.34607329786E+03 -0.49878901390E+02  0.43319082515E+03  0.96162704631E+02 0.  0.
          2    1    3    3  502    0  0.39965508049E+02  0.51274573976E+02 -0.32418583246E+03  0.33063995182E+03  0.00000000000E+00 0. -1.
         -3    1    3    3    0  502  0.98763678664E+02  0.62288719532E+02 -0.13215474476E+04  0.13266958223E+04  0.00000000000E+00 0.  1.
         11    1    5    5    0    0  0.13671317635E+02 -0.22809956996E+03 -0.12579087182E+03  0.26084413387E+03  0.00000000000E+00 0.  1.
        -11    1    5    5    0    0  0.84564457074E+02 -0.23153702141E+03 -0.66970295585E+02  0.25543210482E+03  0.00000000000E+00 0. -1.
          3    1    6    6  503    0  0.13288172166E+01 -0.54599599810E+01 -0.47720561333E+00  0.56395605668E+01  0.00000000000E+00 0. -1.
         -3    1    6    6    0  503 -0.23829377864E+03  0.35153325784E+03 -0.49401695776E+02  0.42755126459E+03  0.00000000000E+00 0.  1.
<mgrwt>
<rscale>  0 0.17970718E+04</rscale>
<asrwt>0</asrwt>
<pdfrwt beam="1">  1        2 0.34578278E+00 0.17970718E+04</pdfrwt>
<pdfrwt beam="2">  1       -1 0.55263807E-01 0.17970718E+04</pdfrwt>
<totfact> 0.17284994E+01</totfact>
</mgrwt>
</event>
<event>
12    6  0.1542110E-007  0.1327363E+04  0.7818608E-02  0.9008143E-01
          2   -1    0    0  501    0  0.00000000000E+00  0.00000000000E+00  0.11033412655E+04  0.11033412655E+04  0.00000000000E+00 0. -1.
         -1   -1    0    0    0  501 -0.00000000000E+00 -0.00000000000E+00 -0.39921754966E+03  0.39921754966E+03  0.00000000000E+00 0.  1.
         24    2    1    2    0    0 -0.45300298153E+02 -0.95193962096E+02  0.57049793581E+03  0.58534237537E+03  0.77741843329E+02 0.  0.
        254    2    1    2    0    0  0.45300298153E+02  0.95193962096E+02  0.13362578000E+03  0.91721643977E+03  0.90128582640E+03 0.  0.
         23    2    4    4    0    0 -0.30406765202E+03  0.12548626267E+03 -0.22376812993E+03  0.40877388259E+03  0.93914705928E+02 0.  0.
         23    2    4    4    0    0  0.34936795017E+03 -0.30292300576E+02  0.35739390993E+03  0.50844255718E+03  0.88361977246E+02 0.  0.
          2    1    3    3  502    0 -0.50184839309E+02 -0.10091670755E+03  0.56471683569E+03  0.57585397843E+03  0.00000000000E+00 0. -1.
         -1    1    3    3    0  502  0.48845411568E+01  0.57227454581E+01  0.57811001242E+01  0.94883969424E+01  0.00000000000E+00 0.  1.
         11    1    5    5    0    0 -0.23460052338E+03  0.97327323150E+02 -0.12037888927E+03  0.28107132615E+03  0.00000000000E+00 0. -1.
        -11    1    5    5    0    0 -0.69467128632E+02  0.28158939521E+02 -0.10338924066E+03  0.12770255643E+03  0.00000000000E+00 0.  1.
          4    1    6    6  503    0  0.30596539662E+03 -0.34343211252E+02  0.34646937408E+03  0.46350329801E+03  0.00000000000E+00 0. -1.
         -4    1    6    6    0  503  0.43402553548E+02  0.40509106760E+01  0.10924535847E+02  0.44939259176E+02  0.00000000000E+00 0.  1.
<mgrwt>
<rscale>  0 0.13273631E+04</rscale>
<asrwt>0</asrwt>
<pdfrwt beam="1">  1        2 0.16974481E+00 0.13273631E+04</pdfrwt>
<pdfrwt beam="2">  1       -1 0.61418085E-01 0.13273631E+04</pdfrwt>
<totfact> 0.65047735E+01</totfact>
</mgrwt>
</event>
<event>
12    6  0.1542110E-007  0.1608980E+04  0.7818608E-02  0.8815050E-01
         -1   -1    0    0    0  501 -0.00000000000E+00  0.00000000000E+00  0.40219867769E+03  0.40219867769E+03  0.00000000000E+00 0.  1.
          2   -1    0    0  501    0  0.00000000000E+00 -0.00000000000E+00 -0.16091644102E+04  0.16091644102E+04  0.00000000000E+00 0. -1.
         24    2    1    2    0    0 -0.16909629363E+03 -0.23008384690E+03  0.16777776092E+03  0.34065977045E+03  0.79797048958E+02 0.  0.
        254    2    1    2    0    0  0.16909629363E+03  0.23008384690E+03 -0.13747434934E+04  0.16707033174E+04  0.90542684357E+03 0.  0.
         23    2    4    4    0    0 -0.36157396281E+03  0.15024525486E+03 -0.52684701677E+03  0.66304303797E+03  0.93535682680E+02 0.  0.
         23    2    4    4    0    0  0.53067025643E+03  0.79838592040E+02 -0.84789647665E+03  0.10076602795E+04  0.92009140033E+02 0.  0.
          2    1    3    3  502    0 -0.36290118984E+02 -0.96728298644E+02  0.30537909993E+02  0.10773068477E+03  0.00000000000E+00 0. -1.
         -1    1    3    3    0  502 -0.13280617464E+03 -0.13335554826E+03  0.13723985092E+03  0.23292908568E+03  0.00000000000E+00 0.  1.
         11    1    5    5    0    0 -0.14112218864E+03  0.46931607012E+02 -0.13032013051E+03  0.19774069960E+03  0.00000000000E+00 0.  1.
        -11    1    5    5    0    0 -0.22045177417E+03  0.10331364785E+03 -0.39652688626E+03  0.46530233837E+03  0.00000000000E+00 0. -1.
          3    1    6    6  503    0  0.43296334615E+03  0.58211281325E+02 -0.74821532112E+03  0.86641328426E+03  0.00000000000E+00 0. -1.
         -3    1    6    6    0  503  0.97706910284E+02  0.21627310715E+02 -0.99681155525E+02  0.14124699520E+03  0.00000000000E+00 0.  1.
<mgrwt>
<rscale>  0 0.16089795E+04</rscale>
<asrwt>0</asrwt>
<pdfrwt beam="1">  1        2 0.24756375E+00 0.16089795E+04</pdfrwt>
<pdfrwt beam="2">  1       -1 0.61876721E-01 0.16089795E+04</pdfrwt>
<totfact> 0.31874210E+01</totfact>
</mgrwt>
</event>
<event>
12    6  0.1542110E-007  0.1409034E+04  0.7818608E-02  0.8947305E-01
          2   -1    0    0  501    0  0.00000000000E+00  0.00000000000E+00  0.16870668630E+04  0.16870668630E+04  0.00000000000E+00 0. -1.
         -1   -1    0    0    0  501 -0.00000000000E+00 -0.00000000000E+00 -0.29420522384E+03  0.29420522384E+03  0.00000000000E+00 0.  1.
         24    2    1    2    0    0 -0.17748445324E+03  0.22357556651E+03  0.83574965868E+03  0.88651778240E+03  0.77133141001E+02 0.  0.
        254    2    1    2    0    0  0.17748445324E+03 -0.22357556651E+03  0.55711198045E+03  0.10947543044E+04  0.89812385738E+03 0.  0.
         23    2    4    4    0    0 -0.20887739292E+03 -0.38499757570E+03  0.48436667390E+03  0.65949894250E+03  0.92059121264E+02 0.  0.
         23    2    4    4    0    0  0.38636184616E+03  0.16142200919E+03  0.72745306550E+02  0.43525536191E+03  0.93929810140E+02 0.  0.
          2    1    3    3  502    0 -0.15058844960E+03  0.20998958992E+03  0.67102653255E+03  0.71906127446E+03  0.00000000000E+00 0. -1.
         -1    1    3    3    0  502 -0.26896003633E+02  0.13585976589E+02  0.16472312613E+03  0.16745650794E+03  0.00000000000E+00 0.  1.
         11    1    5    5    0    0 -0.64973325167E+02 -0.18301636414E+03  0.16286324899E+03  0.25345800520E+03  0.00000000000E+00 0. -1.
        -11    1    5    5    0    0 -0.14390406775E+03 -0.20198121156E+03  0.32150342491E+03  0.40604093730E+03  0.00000000000E+00 0.  1.
          3    1    6    6  503    0  0.18884607767E+03  0.42351044963E+02  0.37566744144E+00  0.19353705895E+03  0.00000000000E+00 0. -1.
         -3    1    6    6    0  503  0.19751576848E+03  0.11907096423E+03  0.72369639108E+02  0.24171830296E+03  0.00000000000E+00 0.  1.
<mgrwt>
<rscale>  0 0.14090335E+04</rscale>
<asrwt>0</asrwt>
<pdfrwt beam="1">  1        2 0.25954874E+00 0.14090335E+04</pdfrwt>
<pdfrwt beam="2">  1       -1 0.45262343E-01 0.14090335E+04</pdfrwt>
<totfact> 0.53524112E+01</totfact>
</mgrwt>
</event>
<event>
12    6  0.1542110E-007  0.1886458E+04  0.7818608E-02  0.8661627E-01
          2   -1    0    0  501    0  0.00000000000E+00  0.00000000000E+00  0.60657908142E+03  0.60657908142E+03  0.00000000000E+00 0. -1.
         -3   -1    0    0    0  501 -0.00000000000E+00 -0.00000000000E+00 -0.14667186498E+04  0.14667186498E+04  0.00000000000E+00 0.  1.
         24    2    1    2    0    0  0.61740382000E+02 -0.38679373476E+03  0.33972773787E+03  0.52457758698E+03  0.79658275525E+02 0.  0.
        254    2    1    2    0    0 -0.61740382000E+02  0.38679373476E+03 -0.11998673063E+04  0.15487201443E+04  0.89745822443E+03 0.  0.
         23    2    4    4    0    0  0.20338710024E+03 -0.15946111329E+03 -0.71716166623E+03  0.76762193218E+03  0.90157728725E+02 0.  0.
         23    2    4    4    0    0 -0.26512748224E+03  0.54625484805E+03 -0.48270564007E+03  0.78109821212E+03  0.91775493269E+02 0.  0.
          2    1    3    3  502    0  0.12786641206E+02 -0.29144174873E+03  0.26285967768E+03  0.39267926001E+03  0.00000000000E+00 0. -1.
         -1    1    3    3    0  502  0.48953740794E+02 -0.95351986032E+02  0.76868060195E+02  0.13189832696E+03  0.00000000000E+00 0.  1.
         11    1    5    5    0    0  0.11119437402E+03 -0.30949781349E+02 -0.29056848112E+03  0.31265335437E+03  0.00000000000E+00 0.  1.
        -11    1    5    5    0    0  0.92192726218E+02 -0.12851133194E+03 -0.42659318512E+03  0.45496857781E+03  0.00000000000E+00 0. -1.
          3    1    6    6  503    0 -0.88099434473E+02  0.25685894499E+03 -0.17471550015E+03  0.32289864349E+03  0.00000000000E+00 0. -1.
         -3    1    6    6    0  503 -0.17702804776E+03  0.28939590306E+03 -0.30799013992E+03  0.45819956863E+03  0.00000000000E+00 0.  1.
<mgrwt>
<rscale>  0 0.18864579E+04</rscale>
<asrwt>0</asrwt>
<pdfrwt beam="1">  1        2 0.93319860E-01 0.18864579E+04</pdfrwt>
<pdfrwt beam="2">  1       -3 0.22564902E+00 0.18864579E+04</pdfrwt>
<totfact> 0.29238181E+00</totfact>
</mgrwt>
</event>
<event>
12    6  0.1542110E-007  0.1145677E+04  0.7818608E-02  0.9161781E-01
         -1   -1    0    0    0  501 -0.00000000000E+00  0.00000000000E+00  0.33478039041E+03  0.33478039041E+03  0.00000000000E+00 0.  1.
          2   -1    0    0  501    0  0.00000000000E+00 -0.00000000000E+00 -0.98017624927E+03  0.98017624927E+03  0.00000000000E+00 0. -1.
         24    2    1    2    0    0  0.14699728654E+02 -0.20969376321E+03 -0.11380154237E+03  0.25061490486E+03  0.75295970288E+02 0.  0.
        254    2    1    2    0    0 -0.14699728654E+02  0.20969376321E+03 -0.53159431649E+03  0.10643417348E+04  0.89779911718E+03 0.  0.
         23    2    4    4    0    0 -0.33653064151E+03  0.29363538585E+03 -0.55577089747E+03  0.71857815321E+03  0.89435224062E+02 0.  0.
         23    2    4    4    0    0  0.32183091285E+03 -0.83941622637E+02  0.24176580980E+02  0.34576358161E+03  0.91359809663E+02 0.  0.
          2    1    3    3  502    0  0.41548800561E+02 -0.17234415412E+03 -0.89573868537E+02  0.19862600085E+03  0.00000000000E+00 0. -1.
         -1    1    3    3    0  502 -0.26849071907E+02 -0.37349609091E+02 -0.24227673832E+02  0.51988904017E+02  0.00000000000E+00 0.  1.
         11    1    5    5    0    0 -0.23844658415E+02  0.61220534315E+02 -0.87674164490E+02  0.10955948465E+03  0.00000000000E+00 0. -1.
        -11    1    5    5    0    0 -0.31268598309E+03  0.23241485153E+03 -0.46809673298E+03  0.60901866856E+03  0.00000000000E+00 0.  1.
          3    1    6    6  503    0  0.83150386874E+02 -0.44891594593E+02  0.41677007284E+02  0.10327736944E+03  0.00000000000E+00 0. -1.
         -3    1    6    6    0  503  0.23868052598E+03 -0.39050028044E+02 -0.17500426304E+02  0.24248621217E+03  0.00000000000E+00 0.  1.
<mgrwt>
<rscale>  0 0.11456767E+04</rscale>
<asrwt>0</asrwt>
<pdfrwt beam="1">  1        2 0.15079634E+00 0.11456767E+04</pdfrwt>
<pdfrwt beam="2">  1       -1 0.51504677E-01 0.11456767E+04</pdfrwt>
<totfact> 0.11109689E+02</totfact>
</mgrwt>
</event>
<event>
12    6  0.1542110E-007  0.1738456E+04  0.7818608E-02  0.8739731E-01
         -1   -1    0    0    0  501 -0.00000000000E+00  0.00000000000E+00  0.87107886320E+03  0.87107886320E+03  0.00000000000E+00 0.  1.
          2   -1    0    0  501    0  0.00000000000E+00 -0.00000000000E+00 -0.86738073875E+03  0.86738073875E+03  0.00000000000E+00 0. -1.
         24    2    1    2    0    0  0.28278731276E+03  0.47540037486E+03 -0.28898443017E+03  0.62906074896E+03  0.78938231032E+02 0.  0.
        254    2    1    2    0    0 -0.28278731276E+03 -0.47540037486E+03  0.29268255462E+03  0.11093988530E+04  0.91603960426E+03 0.  0.
         23    2    4    4    0    0  0.22219669409E+03 -0.14411504043E+03 -0.18332645422E+03  0.33508520528E+03  0.92374185990E+02 0.  0.
         23    2    4    4    0    0 -0.50498400686E+03 -0.33128533443E+03  0.47600900884E+03  0.77431364772E+03  0.90654445851E+02 0.  0.
          4    1    3    3  502    0  0.24036826594E+03  0.37588154724E+03 -0.19981446901E+03  0.48886568999E+03  0.00000000000E+00 0. -1.
         -3    1    3    3    0  502  0.42419046824E+02  0.99518827622E+02 -0.89169961158E+02  0.14019505896E+03  0.00000000000E+00 0.  1.
         11    1    5    5    0    0  0.21212588838E+03 -0.12161979158E+03 -0.18987614179E+03  0.30958313172E+03  0.00000000000E+00 0.  1.
        -11    1    5    5    0    0  0.10070805710E+02 -0.22495248853E+02  0.65496875695E+01  0.25502073560E+02  0.00000000000E+00 0. -1.
          4    1    6    6  503    0 -0.41235999250E+03 -0.25770424149E+03  0.33617993314E+03  0.59115918918E+03  0.00000000000E+00 0.  1.
         -4    1    6    6    0  503 -0.92624014356E+02 -0.73581092943E+02  0.13982907569E+03  0.18315445854E+03  0.00000000000E+00 0. -1.
<mgrwt>
<rscale>  0 0.17384557E+04</rscale>
<asrwt>0</asrwt>
<pdfrwt beam="1">  1        2 0.13344319E+00 0.17384557E+04</pdfrwt>
<pdfrwt beam="2">  1       -1 0.13401213E+00 0.17384557E+04</pdfrwt>
<totfact> 0.15690646E+01</totfact>
</mgrwt>
</event>
<event>
12    6  0.1542110E-007  0.2236186E+04  0.7818608E-02  0.8503516E-01
          2   -1    0    0  501    0  0.00000000000E+00  0.00000000000E+00  0.16178863193E+04  0.16178863193E+04  0.00000000000E+00 0. -1.
         -1   -1    0    0    0  501 -0.00000000000E+00 -0.00000000000E+00 -0.77269479253E+03  0.77269479253E+03  0.00000000000E+00 0.  1.
         24    2    1    2    0    0 -0.40523778794E+03 -0.79741395744E+03  0.67422644243E+02  0.90055957951E+03  0.79843966566E+02 0.  0.
        254    2    1    2    0    0  0.40523778794E+03  0.79741395744E+03  0.77776888252E+03  0.14900215323E+04  0.90285826564E+03 0.  0.
         23    2    4    4    0    0 -0.19781043479E+03  0.15921585706E+03 -0.55592159406E+02  0.27570325024E+03  0.91886542843E+02 0.  0.
         23    2    4    4    0    0  0.60304822273E+03  0.63819810037E+03  0.83336104193E+03  0.12143182821E+04  0.95468789112E+02 0.  0.
          2    1    3    3  502    0 -0.13505950276E+03 -0.23911383103E+03  0.55690491903E+02  0.28021050009E+03  0.00000000000E+00 0. -1.
         -1    1    3    3    0  502 -0.27017828518E+03 -0.55830012641E+03  0.11732152340E+02  0.62034907941E+03  0.00000000000E+00 0.  1.
         11    1    5    5    0    0 -0.20092390308E+03  0.13019764290E+03 -0.40411383107E+02  0.24280634450E+03  0.00000000000E+00 0. -1.
        -11    1    5    5    0    0  0.31134682957E+01  0.29018214165E+02 -0.15180776299E+02  0.32896905739E+02  0.00000000000E+00 0.  1.
          2    1    6    6  503    0  0.57175826197E+03  0.62792370188E+03  0.79000487955E+03  0.11598721461E+04  0.00000000000E+00 0. -1.
         -2    1    6    6    0  503  0.31289960765E+02  0.10274398494E+02  0.43356162372E+02  0.54446135994E+02  0.00000000000E+00 0.  1.
<mgrwt>
<rscale>  0 0.22361863E+04</rscale>
<asrwt>0</asrwt>
<pdfrwt beam="1">  1        2 0.24890559E+00 0.22361863E+04</pdfrwt>
<pdfrwt beam="2">  1       -1 0.11887612E+00 0.22361863E+04</pdfrwt>
<totfact> 0.71659555E+00</totfact>
</mgrwt>
</event>
<event>
12    6  0.1542110E-007  0.1160787E+04  0.7818608E-02  0.9147889E-01
          2   -1    0    0  501    0  0.00000000000E+00  0.00000000000E+00  0.69613530666E+03  0.69613530666E+03  0.00000000000E+00 0. -1.
         -1   -1    0    0    0  501 -0.00000000000E+00 -0.00000000000E+00 -0.48389547133E+03  0.48389547133E+03  0.00000000000E+00 0.  1.
         24    2    1    2    0    0  0.15858076515E+03  0.15058589087E+03  0.16402926323E+03  0.28720374462E+03  0.88070551976E+02 0.  0.
        254    2    1    2    0    0 -0.15858076515E+03 -0.15058589087E+03  0.48210572096E+02  0.89282703337E+03  0.86428692148E+03 0.  0.
         23    2    4    4    0    0 -0.35377555956E+03 -0.40085520619E+03  0.12176901784E+03  0.55578950952E+03  0.90731705170E+02 0.  0.
         23    2    4    4    0    0  0.19519479441E+03  0.25026931532E+03 -0.73558445744E+02  0.33703752384E+03  0.86300113455E+02 0.  0.
          4    1    3    3  502    0  0.16170771493E+03  0.12810185523E+03  0.12264565113E+03  0.24000297107E+03  0.00000000000E+00 0. -1.
         -3    1    3    3    0  502 -0.31269497794E+01  0.22484035638E+02  0.41383612104E+02  0.47200773556E+02  0.00000000000E+00 0.  1.
         11    1    5    5    0    0 -0.23990743742E+03 -0.31922676512E+03  0.11485334167E+03  0.41551485676E+03  0.00000000000E+00 0. -1.
        -11    1    5    5    0    0 -0.11386812213E+03 -0.81628441071E+02  0.69156761649E+01  0.14027465276E+03  0.00000000000E+00 0.  1.
          4    1    6    6  503    0  0.19423836069E+03  0.25696538573E+03 -0.71382708869E+02  0.32993217690E+03  0.00000000000E+00 0. -1.
         -4    1    6    6    0  503  0.95643371788E+00 -0.66960704039E+01 -0.21757368750E+01  0.71053469486E+01  0.00000000000E+00 0.  1.
<mgrwt>
<rscale>  0 0.11607872E+04</rscale>
<asrwt>0</asrwt>
<pdfrwt beam="1">  1        2 0.10709774E+00 0.11607872E+04</pdfrwt>
<pdfrwt beam="2">  1       -1 0.74445457E-01 0.11607872E+04</pdfrwt>
<totfact> 0.84693287E+01</totfact>
</mgrwt>
</event>
<event>
12    6  0.1542110E-007  0.1897296E+04  0.7818608E-02  0.8656203E-01
          2   -1    0    0  501    0  0.00000000000E+00  0.00000000000E+00  0.21133055126E+04  0.21133055126E+04  0.00000000000E+00 0. -1.
         -1   -1    0    0    0  501 -0.00000000000E+00 -0.00000000000E+00 -0.42584156639E+03  0.42584156639E+03  0.00000000000E+00 0.  1.
         24    2    1    2    0    0 -0.70194867996E+03  0.11947698046E+03  0.94063676368E+03  0.11825727275E+04  0.81694777012E+02 0.  0.
        254    2    1    2    0    0  0.70194867996E+03 -0.11947698046E+03  0.74682718255E+03  0.13565743515E+04  0.88064546347E+03 0.  0.
         23    2    4    4    0    0  0.13950094918E+03  0.24433375672E+03  0.59385368158E+03  0.66335848156E+03  0.90679548095E+02 0.  0.
         23    2    4    4    0    0  0.56244773078E+03 -0.36381073718E+03  0.15297350097E+03  0.69321586991E+03  0.91878441117E+02 0.  0.
          2    1    3    3  502    0 -0.37005264907E+03  0.37202317950E+02  0.43722718130E+03  0.57401270335E+03  0.00000000000E+00 0. -1.
         -1    1    3    3    0  502 -0.33189603089E+03  0.82274662510E+02  0.50340958238E+03  0.60856002419E+03  0.00000000000E+00 0.  1.
         11    1    5    5    0    0  0.89477541636E+02  0.22118414246E+03  0.50938784021E+03  0.56249855741E+03  0.00000000000E+00 0.  1.
        -11    1    5    5    0    0  0.50023407541E+02  0.23149614263E+02  0.84465841370E+02  0.10085992416E+03  0.00000000000E+00 0. -1.
          1    1    6    6  503    0  0.14906569982E+03 -0.13670570374E+03  0.20435046597E+02  0.20328950644E+03  0.00000000000E+00 0. -1.
         -1    1    6    6    0  503  0.41338203096E+03 -0.22710503344E+03  0.13253845437E+03  0.48992636347E+03  0.00000000000E+00 0.  1.
<mgrwt>
<rscale>  0 0.18972963E+04</rscale>
<asrwt>0</asrwt>
<pdfrwt beam="1">  1        2 0.32512392E+00 0.18972963E+04</pdfrwt>
<pdfrwt beam="2">  1       -1 0.65514088E-01 0.18972963E+04</pdfrwt>
<totfact> 0.14551357E+01</totfact>
</mgrwt>
</event>
<event>
12    6  0.1542110E-007  0.1958780E+04  0.7818608E-02  0.8626138E-01
          2   -1    0    0  501    0  0.00000000000E+00  0.00000000000E+00  0.14391081838E+04  0.14391081838E+04  0.00000000000E+00 0. -1.
         -1   -1    0    0    0  501 -0.00000000000E+00 -0.00000000000E+00 -0.66652738512E+03  0.66652738512E+03  0.00000000000E+00 0.  1.
         24    2    1    2    0    0  0.47247765207E+03  0.17628241081E+03 -0.32271521526E+03  0.60427446740E+03  0.81804044699E+02 0.  0.
        254    2    1    2    0    0 -0.47247765207E+03 -0.17628241081E+03  0.10952960139E+04  0.15013611015E+04  0.89448374993E+03 0.  0.
         23    2    4    4    0    0 -0.58630828960E+03 -0.13545217174E+03  0.11803410389E+04  0.13274553773E+04  0.82632374715E+02 0.  0.
         23    2    4    4    0    0  0.11383063753E+03 -0.40830239067E+02 -0.85045024980E+02  0.17390572418E+03  0.91575226822E+02 0.  0.
          2    1    3    3  502    0  0.22262342724E+02  0.28110888821E+02 -0.13289758414E+02  0.38242014233E+02  0.00000000000E+00 0. -1.
         -1    1    3    3    0  502  0.45021530935E+03  0.14817152198E+03 -0.30942545685E+03  0.56603245317E+03  0.00000000000E+00 0.  1.
         11    1    5    5    0    0 -0.58886235178E+03 -0.13285250357E+03  0.11712940778E+04  0.13177019670E+04  0.00000000000E+00 0. -1.
        -11    1    5    5    0    0  0.25540621823E+01 -0.25996681703E+01  0.90469610705E+01  0.97534103184E+01  0.00000000000E+00 0.  1.
          2    1    6    6  503    0  0.80331273859E+02 -0.65915359110E+02 -0.81204724749E+02  0.13187932153E+03  0.00000000000E+00 0. -1.
         -2    1    6    6    0  503  0.33499363671E+02  0.25085120043E+02 -0.38403002308E+01  0.42026402651E+02  0.00000000000E+00 0.  1.
<mgrwt>
<rscale>  0 0.19587802E+04</rscale>
<asrwt>0</asrwt>
<pdfrwt beam="1">  1        2 0.22140126E+00 0.19587802E+04</pdfrwt>
<pdfrwt beam="2">  1       -1 0.10254267E+00 0.19587802E+04</pdfrwt>
<totfact> 0.13133818E+01</totfact>
</mgrwt>
</event>
<event>
12    6  0.1542110E-007  0.1880508E+04  0.7818608E-02  0.8664620E-01
          2   -1    0    0  501    0  0.00000000000E+00  0.00000000000E+00  0.14003772461E+04  0.14003772461E+04  0.00000000000E+00 0. -1.
         -1   -1    0    0    0  501 -0.00000000000E+00 -0.00000000000E+00 -0.63131379053E+03  0.63131379053E+03  0.00000000000E+00 0.  1.
         24    2    1    2    0    0 -0.40660103261E+03  0.85496237401E+02 -0.33901454561E+03  0.54210035836E+03  0.79422478331E+02 0.  0.
        254    2    1    2    0    0  0.40660103261E+03 -0.85496237401E+02  0.11080780012E+04  0.14895906783E+04  0.90465989508E+03 0.  0.
         23    2    4    4    0    0  0.21339133878E+03 -0.46491042562E+03  0.80691977088E+03  0.96000393370E+03  0.93864097312E+02 0.  0.
         23    2    4    4    0    0  0.19320969383E+03  0.37941418822E+03  0.30115823031E+03  0.52958674458E+03  0.92090869996E+02 0.  0.
          2    1    3    3  502    0 -0.16392294528E+03  0.53138151119E+02 -0.96528922931E+02  0.19751513374E+03  0.00000000000E+00 0. -1.
         -1    1    3    3    0  502 -0.24267808733E+03  0.32358086282E+02 -0.24248562268E+03  0.34458522462E+03  0.00000000000E+00 0.  1.
         11    1    5    5    0    0  0.17348550082E+02 -0.48322128333E+02  0.38360849974E+02  0.64090210542E+02  0.00000000000E+00 0. -1.
        -11    1    5    5    0    0  0.19604278870E+03 -0.41658829729E+03  0.76855892091E+03  0.89591372316E+03  0.00000000000E+00 0.  1.
          3    1    6    6  503    0  0.14962147750E+02  0.11548992406E+02  0.40728811159E+02  0.44900792301E+02  0.00000000000E+00 0. -1.
         -3    1    6    6    0  503  0.17824754608E+03  0.36786519582E+03  0.26042941915E+03  0.48468595228E+03  0.00000000000E+00 0.  1.
<mgrwt>
<rscale>  0 0.18805079E+04</rscale>
<asrwt>0</asrwt>
<pdfrwt beam="1">  1        2 0.21544265E+00 0.18805079E+04</pdfrwt>
<pdfrwt beam="2">  1       -1 0.97125199E-01 0.18805079E+04</pdfrwt>
<totfact> 0.15750133E+01</totfact>
</mgrwt>
</event>
<event>
12    6  0.1542110E-007  0.1690027E+04  0.7818608E-02  0.8767073E-01
         -1   -1    0    0    0  501 -0.00000000000E+00  0.00000000000E+00  0.24644918037E+03  0.24644918037E+03  0.00000000000E+00 0.  1.
          2   -1    0    0  501    0  0.00000000000E+00 -0.00000000000E+00 -0.28973426632E+04  0.28973426632E+04  0.00000000000E+00 0. -1.
         24    2    1    2    0    0  0.15570560365E+03 -0.77349123217E+01  0.12862703514E+03  0.21691529778E+03  0.78760830143E+02 0.  0.
        254    2    1    2    0    0 -0.15570560365E+03  0.77349123217E+01 -0.27795205180E+04  0.29268765458E+04  0.90364148895E+03 0.  0.
         23    2    4    4    0    0  0.30328559992E+02  0.43268984313E+03 -0.13856069186E+04  0.14549011124E+04  0.93222271475E+02 0.  0.
         23    2    4    4    0    0 -0.18603416364E+03 -0.42495493081E+03 -0.13939135994E+04  0.14719754335E+04  0.92310080212E+02 0.  0.
          4    1    3    3  502    0  0.21342913808E+02 -0.15728702250E+02 -0.53001908815E+01  0.27037086893E+02  0.00000000000E+00 0. -1.
         -3    1    3    3    0  502  0.13436268984E+03  0.79937899287E+01  0.13392722603E+03  0.18987821088E+03  0.00000000000E+00 0.  1.
         11    1    5    5    0    0 -0.13825983603E+02  0.15729837508E+02 -0.35847520646E+02  0.41516627357E+02  0.00000000000E+00 0.  1.
        -11    1    5    5    0    0  0.44154543595E+02  0.41696000562E+03 -0.13497593980E+04  0.14133844850E+04  0.00000000000E+00 0. -1.
          3    1    6    6  503    0 -0.93824979268E+02 -0.24420508493E+03 -0.64434153556E+03  0.69542452121E+03  0.00000000000E+00 0. -1.
         -3    1    6    6    0  503 -0.92209184369E+02 -0.18074984588E+03 -0.74957206384E+03  0.77655091227E+03  0.00000000000E+00 0.  1.
<mgrwt>
<rscale>  0 0.16900269E+04</rscale>
<asrwt>0</asrwt>
<pdfrwt beam="1">  1        2 0.44574499E+00 0.16900269E+04</pdfrwt>
<pdfrwt beam="2">  1       -1 0.37915262E-01 0.16900269E+04</pdfrwt>
<totfact> 0.14746085E+01</totfact>
</mgrwt>
</event>
<event>
12    6  0.1542110E-007  0.1309431E+04  0.7818608E-02  0.9022120E-01
         -1   -1    0    0    0  501 -0.00000000000E+00  0.00000000000E+00  0.50866883717E+03  0.50866883717E+03  0.00000000000E+00 0.  1.
          2   -1    0    0  501    0  0.00000000000E+00 -0.00000000000E+00 -0.84269407088E+03  0.84269407088E+03  0.00000000000E+00 0. -1.
         24    2    1    2    0    0  0.24231058713E+03  0.60393136509E+02 -0.29871465087E+03  0.39704354433E+03  0.77790628471E+02 0.  0.
        254    2    1    2    0    0 -0.24231058713E+03 -0.60393136509E+02 -0.35310582842E+02  0.95431936371E+03  0.92038951489E+03 0.  0.
         23    2    4    4    0    0 -0.51870750057E+03  0.19035474512E+03  0.43076801882E+02  0.56164728004E+03  0.91102448851E+02 0.  0.
         23    2    4    4    0    0  0.27639691344E+03 -0.25074788163E+03 -0.78387384724E+02  0.39267208367E+03  0.93685801010E+02 0.  0.
          4    1    3    3  502    0  0.18639910761E+03  0.23307646394E+02 -0.17721360660E+03  0.25824898076E+03  0.00000000000E+00 0. -1.
         -3    1    3    3    0  502  0.55911479522E+02  0.37085490116E+02 -0.12150104427E+03  0.13879456357E+03  0.00000000000E+00 0.  1.
         11    1    5    5    0    0 -0.99419688889E+02  0.67518675812E+02  0.32969992744E+02  0.12461968762E+03  0.00000000000E+00 0. -1.
        -11    1    5    5    0    0 -0.41928781168E+03  0.12283606930E+03  0.10106809138E+02  0.43702759242E+03  0.00000000000E+00 0.  1.
          4    1    6    6  503    0  0.11505384211E+01  0.72852882881E+01 -0.28223411129E+01  0.78971370418E+01  0.00000000000E+00 0. -1.
         -4    1    6    6    0  503  0.27524637502E+03 -0.25803316991E+03 -0.75565043611E+02  0.38477494663E+03  0.00000000000E+00 0.  1.
<mgrwt>
<rscale>  0 0.13094307E+04</rscale>
<asrwt>0</asrwt>
<pdfrwt beam="1">  1        2 0.12964524E+00 0.13094307E+04</pdfrwt>
<pdfrwt beam="2">  1       -1 0.78256745E-01 0.13094307E+04</pdfrwt>
<totfact> 0.58722572E+01</totfact>
</mgrwt>
</event>
<event>
12    6  0.1542110E-007  0.1557371E+04  0.7818608E-02  0.8847173E-01
         -1   -1    0    0    0  501 -0.00000000000E+00  0.00000000000E+00  0.42039634890E+03  0.42039634890E+03  0.00000000000E+00 0.  1.
          2   -1    0    0  501    0  0.00000000000E+00 -0.00000000000E+00 -0.14423317687E+04  0.14423317687E+04  0.00000000000E+00 0. -1.
         24    2    1    2    0    0 -0.28343993825E+03  0.32877289864E+03 -0.66915111181E+03  0.80177526579E+03  0.81550897745E+02 0.  0.
        254    2    1    2    0    0  0.28343993825E+03 -0.32877289864E+03 -0.35278430797E+03  0.10609528518E+04  0.90151781363E+03 0.  0.
         23    2    4    4    0    0  0.28729073357E+03  0.21419664036E+03 -0.35184498883E+03  0.51042971191E+03  0.91254743960E+02 0.  0.
         23    2    4    4    0    0 -0.38507953147E+01 -0.54296953900E+03 -0.93931913913E+00  0.55052313988E+03  0.90797006096E+02 0.  0.
          4    1    3    3  502    0 -0.20751215161E+03  0.18288022520E+03 -0.39897405711E+03  0.48547581617E+03  0.00000000000E+00 0. -1.
         -3    1    3    3    0  502 -0.75927786642E+02  0.14589267343E+03 -0.27017705470E+03  0.31629944963E+03  0.00000000000E+00 0.  1.
         11    1    5    5    0    0  0.20108616057E+03  0.95500493148E+02 -0.22471183274E+03  0.31630901969E+03  0.00000000000E+00 0. -1.
        -11    1    5    5    0    0  0.86204573003E+02  0.11869614721E+03 -0.12713315609E+03  0.19412069222E+03  0.00000000000E+00 0.  1.
          3    1    6    6  503    0 -0.20993738126E+02 -0.58223992268E+02  0.19938385176E+02  0.65025452859E+02  0.00000000000E+00 0. -1.
         -3    1    6    6    0  503  0.17142942811E+02 -0.48474554673E+03 -0.20877704315E+02  0.48549768702E+03  0.00000000000E+00 0.  1.
<mgrwt>
<rscale>  0 0.15573709E+04</rscale>
<asrwt>0</asrwt>
<pdfrwt beam="1">  1        2 0.22189720E+00 0.15573709E+04</pdfrwt>
<pdfrwt beam="2">  1       -1 0.64676360E-01 0.15573709E+04</pdfrwt>
<totfact> 0.36373299E+01</totfact>
</mgrwt>
</event>
<event>
12    6  0.1542110E-007  0.1293918E+04  0.7818608E-02  0.9034402E-01
         -1   -1    0    0    0  501 -0.00000000000E+00  0.00000000000E+00  0.18148145268E+03  0.18148145268E+03  0.00000000000E+00 0.  1.
          2   -1    0    0  501    0  0.00000000000E+00 -0.00000000000E+00 -0.23063282664E+04  0.23063282664E+04  0.00000000000E+00 0. -1.
         24    2    1    2    0    0  0.29208598356E+03  0.53090057528E+02 -0.35167575459E+03  0.46690714958E+03  0.78699898078E+02 0.  0.
        254    2    1    2    0    0 -0.29208598356E+03 -0.53090057528E+02 -0.17731710591E+04  0.20209025695E+04  0.92291863918E+03 0.  0.
         23    2    4    4    0    0 -0.42268180741E+03  0.21885457696E+03 -0.44983462246E+03  0.66053924982E+03  0.86044621089E+02 0.  0.
         23    2    4    4    0    0  0.13059582385E+03 -0.27194463449E+03 -0.13233364367E+04  0.13603633197E+04  0.91432398629E+02 0.  0.
          4    1    3    3  502    0 -0.15742891997E+01  0.15155502306E+01  0.29030337740E+01  0.36335773115E+01  0.00000000000E+00 0. -1.
         -3    1    3    3    0  502  0.29366027276E+03  0.51574507298E+02 -0.35457878837E+03  0.46327357227E+03  0.00000000000E+00 0.  1.
         11    1    5    5    0    0 -0.24571605377E+03  0.15514143236E+03 -0.22573286486E+03  0.36796816356E+03  0.00000000000E+00 0. -1.
        -11    1    5    5    0    0 -0.17696575364E+03  0.63713144598E+02 -0.22410175761E+03  0.29257108626E+03  0.00000000000E+00 0.  1.
          4    1    6    6  503    0 -0.50821351064E+01 -0.72420028198E+02 -0.25607695760E+03  0.26616892530E+03  0.00000000000E+00 0. -1.
         -4    1    6    6    0  503  0.13567795895E+03 -0.19952460629E+03 -0.10672594791E+04  0.10941943944E+04  0.00000000000E+00 0.  1.
<mgrwt>
<rscale>  0 0.12939178E+04</rscale>
<asrwt>0</asrwt>
<pdfrwt beam="1">  1        2 0.35481971E+00 0.12939178E+04</pdfrwt>
<pdfrwt beam="2">  1       -1 0.27920226E-01 0.12939178E+04</pdfrwt>
<totfact> 0.58281355E+01</totfact>
</mgrwt>
</event>
<event>
12    6  0.1542110E-007  0.2725614E+04  0.7818608E-02  0.8326742E-01
          2   -1    0    0  501    0  0.00000000000E+00  0.00000000000E+00  0.16497642160E+04  0.16497642160E+04  0.00000000000E+00 0. -1.
         -1   -1    0    0    0  501 -0.00000000000E+00 -0.00000000000E+00 -0.11257626604E+04  0.11257626604E+04  0.00000000000E+00 0.  1.
         24    2    1    2    0    0 -0.11148469842E+04  0.16893838762E+03 -0.20038252753E+03  0.11479377093E+04  0.78637459961E+02 0.  0.
        254    2    1    2    0    0  0.11148469842E+04 -0.16893838762E+03  0.72438408314E+03  0.16275891672E+04  0.92352055754E+03 0.  0.
         23    2    4    4    0    0  0.51270859610E+01  0.12853301310E+03  0.40089514842E+03  0.43055864021E+03  0.90093285897E+02 0.  0.
         23    2    4    4    0    0  0.11097198982E+04 -0.29747140072E+03  0.32348893472E+03  0.11970305270E+04  0.90936817605E+02 0.  0.
          4    1    3    3  502    0 -0.80116184526E+02  0.26189920335E+02 -0.30749654424E+02  0.89722105400E+02  0.00000000000E+00 0. -1.
         -3    1    3    3    0  502 -0.10347307997E+04  0.14274846728E+03 -0.16963287310E+03  0.10582156039E+04  0.00000000000E+00 0.  1.
         11    1    5    5    0    0 -0.34905425294E+02  0.10281647474E+03  0.29891040250E+03  0.31802051021E+03  0.00000000000E+00 0.  1.
        -11    1    5    5    0    0  0.40032511255E+02  0.25716538362E+02  0.10198474592E+03  0.11253813000E+03  0.00000000000E+00 0. -1.
          1    1    6    6  503    0  0.44533720856E+02 -0.18487164309E+02  0.32388816077E+02  0.58086684742E+02  0.00000000000E+00 0. -1.
         -1    1    6    6    0  503  0.10651861774E+04 -0.27898423641E+03  0.29110011864E+03  0.11389438422E+04  0.00000000000E+00 0.  1.
<mgrwt>
<rscale>  0 0.27256140E+04</rscale>
<asrwt>0</asrwt>
<pdfrwt beam="1">  1        2 0.25380988E+00 0.27256140E+04</pdfrwt>
<pdfrwt beam="2">  1       -1 0.17319426E+00 0.27256140E+04</pdfrwt>
<totfact> 0.24308264E+00</totfact>
</mgrwt>
</event>
<event>
12    6  0.1542110E-007  0.2176463E+04  0.7818608E-02  0.8528289E-01
          2   -1    0    0  501    0  0.00000000000E+00  0.00000000000E+00  0.52772599145E+03  0.52772599145E+03  0.00000000000E+00 0. -1.
         -1   -1    0    0    0  501 -0.00000000000E+00 -0.00000000000E+00 -0.22440585124E+04  0.22440585124E+04  0.00000000000E+00 0.  1.
         24    2    1    2    0    0 -0.16207400694E+03  0.77806715829E+03 -0.17668705094E+03  0.81809001458E+03  0.79977943560E+02 0.  0.
        254    2    1    2    0    0  0.16207400694E+03 -0.77806715829E+03 -0.15396454700E+04  0.19536944893E+04  0.90263918458E+03 0.  0.
         23    2    4    4    0    0  0.11323318377E+03 -0.21818027569E+03 -0.13160582862E+04  0.13419706674E+04  0.91931893192E+02 0.  0.
         23    2    4    4    0    0  0.48840823164E+02 -0.55988688260E+03 -0.22358718383E+03  0.61172382184E+03  0.91411476994E+02 0.  0.
          4    1    3    3  502    0 -0.93609512706E+02  0.44985520583E+03 -0.61555139872E+02  0.46359624926E+03  0.00000000000E+00 0. -1.
         -1    1    3    3    0  502 -0.68464494231E+02  0.32821195246E+03 -0.11513191107E+03  0.35449376532E+03  0.00000000000E+00 0.  1.
         11    1    5    5    0    0  0.51032563728E+02 -0.79877636443E+02 -0.74943909230E+03  0.75540963221E+03  0.00000000000E+00 0. -1.
        -11    1    5    5    0    0  0.62200620045E+02 -0.13830263925E+03 -0.56661919390E+03  0.58656103523E+03  0.00000000000E+00 0.  1.
          4    1    6    6  503    0  0.10668734592E+02 -0.13465076430E+03 -0.97376484763E+02  0.16651375321E+03  0.00000000000E+00 0. -1.
         -4    1    6    6    0  503  0.38172088572E+02 -0.42523611830E+03 -0.12621069907E+03  0.44521006863E+03  0.00000000000E+00 0.  1.
<mgrwt>
<rscale>  0 0.21764632E+04</rscale>
<asrwt>0</asrwt>
<pdfrwt beam="1">  1        2 0.81188614E-01 0.21764632E+04</pdfrwt>
<pdfrwt beam="2">  1       -1 0.34523977E+00 0.21764632E+04</pdfrwt>
<totfact> 0.10109784E+00</totfact>
</mgrwt>
</event>
<event>
12    6  0.1542110E-007  0.1508971E+04  0.7818608E-02  0.8878509E-01
          2   -1    0    0  501    0  0.00000000000E+00  0.00000000000E+00  0.74108671496E+03  0.74108671496E+03  0.00000000000E+00 0. -1.
         -1   -1    0    0    0  501 -0.00000000000E+00 -0.00000000000E+00 -0.76812626059E+03  0.76812626059E+03  0.00000000000E+00 0.  1.
         24    2    1    2    0    0  0.13794589404E+02  0.17202847388E+03  0.43568500834E+03  0.47553154162E+03  0.80775825984E+02 0.  0.
        254    2    1    2    0    0 -0.13794589404E+02 -0.17202847388E+03 -0.46272455396E+03  0.10336814339E+04  0.90807445041E+03 0.  0.
         23    2    4    4    0    0 -0.62868822234E+02 -0.25342211869E+03 -0.70562677509E+03  0.75757003753E+03  0.88475742373E+02 0.  0.
         23    2    4    4    0    0  0.49074232830E+02  0.81393644812E+02  0.24290222113E+03  0.27611139640E+03  0.90569357119E+02 0.  0.
          4    1    3    3  502    0  0.20055173570E+02  0.16672933288E+03  0.43610308051E+03  0.46731871058E+03  0.00000000000E+00 0. -1.
         -3    1    3    3    0  502 -0.62605841664E+01  0.52991409943E+01 -0.41807216679E+00  0.82128310417E+01  0.00000000000E+00 0.  1.
         11    1    5    5    0    0 -0.29669115853E+02 -0.19276658549E+03 -0.41087121446E+03  0.45481245343E+03  0.00000000000E+00 0. -1.
        -11    1    5    5    0    0 -0.33199706382E+02 -0.60655533197E+02 -0.29475556063E+03  0.30275758410E+03  0.00000000000E+00 0.  1.
          3    1    6    6  503    0  0.66475177551E+02  0.86977937600E+02  0.22644532379E+03  0.25151857889E+03  0.00000000000E+00 0. -1.
         -3    1    6    6    0  503 -0.17400944720E+02 -0.55842927880E+01  0.16456897336E+02  0.24592817509E+02  0.00000000000E+00 0.  1.
<mgrwt>
<rscale>  0 0.15089707E+04</rscale>
<asrwt>0</asrwt>
<pdfrwt beam="1">  1        2 0.11401334E+00 0.15089707E+04</pdfrwt>
<pdfrwt beam="2">  1       -1 0.11817327E+00 0.15089707E+04</pdfrwt>
<totfact> 0.26999907E+01</totfact>
</mgrwt>
</event>
<event>
12    6  0.1542110E-007  0.4895508E+04  0.7818608E-02  0.7844831E-01
          2   -1    0    0  501    0  0.00000000000E+00  0.00000000000E+00  0.31140956771E+04  0.31140956771E+04  0.00000000000E+00 0. -1.
         -1   -1    0    0    0  501 -0.00000000000E+00 -0.00000000000E+00 -0.19239932789E+04  0.19239932789E+04  0.00000000000E+00 0.  1.
         24    2    1    2    0    0 -0.67323159753E+03 -0.37889238631E+03 -0.17240651355E+04  0.18911140977E+04  0.84330983889E+02 0.  0.
        254    2    1    2    0    0  0.67323159753E+03  0.37889238631E+03  0.29141675337E+04  0.31469748582E+04  0.90237360320E+03 0.  0.
         23    2    4    4    0    0 -0.60565554504E+02 -0.12937869663E+03  0.10827078699E+03  0.20103736124E+03  0.91029796032E+02 0.  0.
         23    2    4    4    0    0  0.73379715203E+03  0.50827108295E+03  0.28058967467E+04  0.29459374970E+04  0.93238559961E+02 0.  0.
          2    1    3    3  502    0 -0.41882498556E+03 -0.22240986070E+03 -0.95980035521E+03  0.10705593101E+04  0.00000000000E+00 0. -1.
         -1    1    3    3    0  502 -0.25440661197E+03 -0.15648252561E+03 -0.76426478025E+03  0.82055478755E+03  0.00000000000E+00 0.  1.
         11    1    5    5    0    0 -0.67464601686E+02 -0.13284570952E+03  0.74855704432E+02  0.16674181091E+03  0.00000000000E+00 0. -1.
        -11    1    5    5    0    0  0.68990471820E+01  0.34670128902E+01  0.33415082558E+02  0.34295550335E+02  0.00000000000E+00 0.  1.
          1    1    6    6  503    0  0.28615685127E+03  0.25284076614E+03  0.12283488551E+04  0.12863339793E+04  0.00000000000E+00 0. -1.
         -1    1    6    6    0  503  0.44764030076E+03  0.25543031681E+03  0.15775478916E+04  0.16596035177E+04  0.00000000000E+00 0.  1.
<mgrwt>
<rscale>  0 0.48955078E+04</rscale>
<asrwt>0</asrwt>
<pdfrwt beam="1">  1        2 0.47909164E+00 0.48955078E+04</pdfrwt>
<pdfrwt beam="2">  1       -1 0.29599897E+00 0.48955078E+04</pdfrwt>
<totfact> 0.43069188E-02</totfact>
</mgrwt>
</event>
<event>
12    6  0.1542110E-007  0.1521764E+04  0.7818608E-02  0.8870108E-01
          2   -1    0    0  501    0  0.00000000000E+00  0.00000000000E+00  0.77435650759E+03  0.77435650759E+03  0.00000000000E+00 0. -1.
         -1   -1    0    0    0  501 -0.00000000000E+00 -0.00000000000E+00 -0.74764216388E+03  0.74764216388E+03  0.00000000000E+00 0.  1.
         24    2    1    2    0    0  0.35554941798E+03 -0.30335294720E+03  0.14216237090E+03  0.49511623196E+03  0.80570120054E+02 0.  0.
        254    2    1    2    0    0 -0.35554941798E+03  0.30335294720E+03 -0.11544802719E+03  0.10268824395E+04  0.90703963441E+03 0.  0.
         23    2    4    4    0    0 -0.44256328542E+03  0.56579030499E+03 -0.12779084853E+03  0.73543193461E+03  0.92459172918E+02 0.  0.
         23    2    4    4    0    0  0.87013867442E+02 -0.26243735779E+03  0.12342821338E+02  0.29145050489E+03  0.91357931650E+02 0.  0.
          2    1    3    3  502    0  0.26145911346E+02 -0.22890957300E+02 -0.10567980524E+02  0.36321988086E+02  0.00000000000E+00 0. -1.
         -1    1    3    3    0  502  0.32940350664E+03 -0.28046198990E+03  0.15273035142E+03  0.45879424387E+03  0.00000000000E+00 0.  1.
         11    1    5    5    0    0 -0.25123632981E+03  0.25642718176E+03 -0.39771587871E+02  0.36118744741E+03  0.00000000000E+00 0.  1.
        -11    1    5    5    0    0 -0.19132695561E+03  0.30936312323E+03 -0.88019260660E+02  0.37424448721E+03  0.00000000000E+00 0. -1.
          4    1    6    6  503    0  0.65425078593E+02 -0.95875058076E+02 -0.26509487566E+02  0.11905973543E+03  0.00000000000E+00 0. -1.
         -4    1    6    6    0  503  0.21588788848E+02 -0.16656229971E+03  0.38852308904E+02  0.17239076946E+03  0.00000000000E+00 0.  1.
<mgrwt>
<rscale>  0 0.15217642E+04</rscale>
<asrwt>0</asrwt>
<pdfrwt beam="1">  1        2 0.11913177E+00 0.15217642E+04</pdfrwt>
<pdfrwt beam="2">  1       -1 0.11502187E+00 0.15217642E+04</pdfrwt>
<totfact> 0.27186099E+01</totfact>
</mgrwt>
</event>
<event>
12    6  0.1542110E-007  0.1298894E+04  0.7818608E-02  0.9030442E-01
         -1   -1    0    0    0  501 -0.00000000000E+00  0.00000000000E+00  0.18214538301E+03  0.18214538301E+03  0.00000000000E+00 0.  1.
          2   -1    0    0  501    0  0.00000000000E+00 -0.00000000000E+00 -0.23156318840E+04  0.23156318840E+04  0.00000000000E+00 0. -1.
         24    2    1    2    0    0  0.12342993796E+03  0.96158477932E+02  0.15923907627E+01  0.17326438479E+03  0.74408392450E+02 0.  0.
        254    2    1    2    0    0 -0.12342993796E+03 -0.96158477932E+02 -0.21350788917E+04  0.23245128822E+04  0.90571345530E+03 0.  0.
         23    2    4    4    0    0  0.35849586076E+03  0.70912729761E+02 -0.11774835272E+04  0.12357459722E+04  0.83980673362E+02 0.  0.
         23    2    4    4    0    0 -0.48192579872E+03 -0.16707120769E+03 -0.95759536453E+03  0.10887669100E+04  0.90880351372E+02 0.  0.
          4    1    3    3  502    0  0.36530818508E+02  0.50569958322E+02 -0.31262040625E+02  0.69779198688E+02  0.00000000000E+00 0. -1.
         -3    1    3    3    0  502  0.86899119449E+02  0.45588519610E+02  0.32854431388E+02  0.10348518610E+03  0.00000000000E+00 0.  1.
         11    1    5    5    0    0  0.13230248296E+03 -0.14663529874E+02 -0.41281421423E+03  0.43374478853E+03  0.00000000000E+00 0.  1.
        -11    1    5    5    0    0  0.22619337780E+03  0.85576259635E+02 -0.76466931298E+03  0.80200118366E+03  0.00000000000E+00 0. -1.
          4    1    6    6  503    0 -0.33864713508E+03 -0.10956282394E+03 -0.74882933193E+03  0.82911474649E+03  0.00000000000E+00 0. -1.
         -4    1    6    6    0  503 -0.14327866364E+03 -0.57508383755E+02 -0.20876603259E+03  0.25965216352E+03  0.00000000000E+00 0.  1.
<mgrwt>
<rscale>  0 0.12988944E+04</rscale>
<asrwt>0</asrwt>
<pdfrwt beam="1">  1        2 0.35625103E+00 0.12988944E+04</pdfrwt>
<pdfrwt beam="2">  1       -1 0.28022369E-01 0.12988944E+04</pdfrwt>
<totfact> 0.57193237E+01</totfact>
</mgrwt>
</event>
<event>
12    6  0.1542110E-007  0.1558297E+04  0.7818608E-02  0.8846585E-01
         -1   -1    0    0    0  501 -0.00000000000E+00  0.00000000000E+00  0.23321326711E+03  0.23321326711E+03  0.00000000000E+00 0.  1.
          2   -1    0    0  501    0  0.00000000000E+00 -0.00000000000E+00 -0.26030779128E+04  0.26030779128E+04  0.00000000000E+00 0. -1.
         24    2    1    2    0    0 -0.94441518222E+02  0.41832783464E+03 -0.12522318355E+04  0.13261163053E+04  0.81132655700E+02 0.  0.
        254    2    1    2    0    0  0.94441518222E+02 -0.41832783464E+03 -0.11176328102E+04  0.15101748746E+04  0.92065611159E+03 0.  0.
         23    2    4    4    0    0  0.43044251895E+03 -0.29192088830E+02 -0.27928653556E+03  0.52248803460E+03  0.94126708151E+02 0.  0.
         23    2    4    4    0    0 -0.33600100073E+03 -0.38913574581E+03 -0.83834627463E+03  0.98768683998E+03  0.91528774325E+02 0.  0.
          2    1    3    3  502    0 -0.62300146052E+02  0.37969732439E+03 -0.10699051896E+04  0.11369909767E+04  0.00000000000E+00 0. -1.
         -1    1    3    3    0  502 -0.32141372171E+02  0.38630510256E+02 -0.18232664588E+03  0.18912532862E+03  0.00000000000E+00 0.  1.
         11    1    5    5    0    0  0.16440151058E+02 -0.12503348851E+02  0.33583888782E+01  0.20925847059E+02  0.00000000000E+00 0. -1.
        -11    1    5    5    0    0  0.41400236789E+03 -0.16688739979E+02 -0.28264492444E+03  0.50156218754E+03  0.00000000000E+00 0.  1.
          1    1    6    6  503    0 -0.41973721045E+01  0.42703060739E+01 -0.20770730647E+02  0.21616583869E+02  0.00000000000E+00 0. -1.
         -1    1    6    6    0  503 -0.33180362862E+03 -0.39340605189E+03 -0.81757554398E+03  0.96607025611E+03  0.00000000000E+00 0.  1.
<mgrwt>
<rscale>  0 0.15582969E+04</rscale>
<asrwt>0</asrwt>
<pdfrwt beam="1">  1        2 0.40047355E+00 0.15582969E+04</pdfrwt>
<pdfrwt beam="2">  1       -1 0.35878962E-01 0.15582969E+04</pdfrwt>
<totfact> 0.24714076E+01</totfact>
</mgrwt>
</event>
<event>
12    6  0.1542110E-007  0.4861866E+04  0.7818608E-02  0.7850176E-01
         -1   -1    0    0    0  501 -0.00000000000E+00  0.00000000000E+00  0.47726365852E+04  0.47726365852E+04  0.00000000000E+00 0.  1.
          2   -1    0    0  501    0  0.00000000000E+00 -0.00000000000E+00 -0.12381910840E+04  0.12381910840E+04  0.00000000000E+00 0. -1.
         24    2    1    2    0    0 -0.12461204735E+04  0.70497981076E+03  0.40034045018E+04  0.42523978774E+04  0.76336980531E+02 0.  0.
        254    2    1    2    0    0  0.12461204735E+04 -0.70497981076E+03 -0.46895900054E+03  0.17584297918E+04  0.90682965350E+03 0.  0.
         23    2    4    4    0    0  0.11894747185E+04 -0.27253606027E+03 -0.47213859072E+03  0.13121114140E+04  0.97956642895E+02 0.  0.
         23    2    4    4    0    0  0.56645754994E+02 -0.43244375049E+03  0.31795901749E+01  0.44631837777E+03  0.94729328328E+02 0.  0.
          2    1    3    3  502    0 -0.30486967904E+02  0.60270014196E+01  0.10306720258E+03  0.10765049097E+03  0.00000000000E+00 0. -1.
         -1    1    3    3    0  502 -0.12156335056E+04  0.69895280934E+03  0.39003372992E+04  0.41447473864E+04  0.00000000000E+00 0.  1.
         11    1    5    5    0    0  0.10804579593E+04 -0.23428902528E+03 -0.39894446058E+03  0.11753456648E+04  0.00000000000E+00 0. -1.
        -11    1    5    5    0    0  0.10901675923E+03 -0.38247034990E+02 -0.73194130138E+02  0.13676574924E+03  0.00000000000E+00 0.  1.
          1    1    6    6  503    0  0.42367805710E+02 -0.23924460573E+03 -0.44026668177E+02  0.24692379359E+03  0.00000000000E+00 0. -1.
         -1    1    6    6    0  503  0.14277949284E+02 -0.19319914476E+03  0.47206258352E+02  0.19939458418E+03  0.00000000000E+00 0.  1.
<mgrwt>
<rscale>  0 0.48618663E+04</rscale>
<asrwt>0</asrwt>
<pdfrwt beam="1">  1        2 0.19049094E+00 0.48618663E+04</pdfrwt>
<pdfrwt beam="2">  1       -1 0.73425177E+00 0.48618663E+04</pdfrwt>
<totfact> 0.22585161E-03</totfact>
</mgrwt>
</event>
<event>
12    6  0.1542110E-007  0.2595984E+04  0.7818608E-02  0.8369567E-01
          2   -1    0    0  501    0  0.00000000000E+00  0.00000000000E+00  0.14374731724E+04  0.14374731724E+04  0.00000000000E+00 0. -1.
         -1   -1    0    0    0  501 -0.00000000000E+00 -0.00000000000E+00 -0.11720451831E+04  0.11720451831E+04  0.00000000000E+00 0.  1.
         24    2    1    2    0    0  0.64269982856E+03  0.22544200069E+03 -0.80178513328E+03  0.10550292263E+04  0.79624764425E+02 0.  0.
        254    2    1    2    0    0 -0.64269982856E+03 -0.22544200069E+03  0.10672131226E+04  0.15544891293E+04  0.90200079749E+03 0.  0.
         23    2    4    4    0    0 -0.41310999444E+03 -0.43081238669E+02 -0.18503467666E+02  0.42561017803E+03  0.91026285750E+02 0.  0.
         23    2    4    4    0    0 -0.22958983412E+03 -0.18236076202E+03  0.10857165903E+04  0.11288789512E+04  0.98082785082E+02 0.  0.
          2    1    3    3  502    0  0.11521800516E+03  0.30435544484E+02 -0.18778276084E+03  0.22240475793E+03  0.00000000000E+00 0. -1.
         -1    1    3    3    0  502  0.52748182340E+03  0.19500645621E+03 -0.61400237244E+03  0.83262446838E+03  0.00000000000E+00 0.  1.
         11    1    5    5    0    0 -0.13330407108E+03 -0.20529496874E+02  0.36127458385E+02  0.13963032929E+03  0.00000000000E+00 0.  1.
        -11    1    5    5    0    0 -0.27980592336E+03 -0.22551741796E+02 -0.54630926050E+02  0.28597984874E+03  0.00000000000E+00 0. -1.
          1    1    6    6  503    0 -0.11966495927E+03 -0.15399383977E+03  0.65111366320E+03  0.67969317164E+03  0.00000000000E+00 0. -1.
         -1    1    6    6    0  503 -0.10992487484E+03 -0.28366922256E+02  0.43460292705E+03  0.44918577959E+03  0.00000000000E+00 0.  1.
<mgrwt>
<rscale>  0 0.25959842E+04</rscale>
<asrwt>0</asrwt>
<pdfrwt beam="1">  1        2 0.22114972E+00 0.25959842E+04</pdfrwt>
<pdfrwt beam="2">  1       -1 0.18031464E+00 0.25959842E+04</pdfrwt>
<totfact> 0.28743905E+00</totfact>
</mgrwt>
</event>
<event>
12    6  0.1542110E-007  0.2199578E+04  0.7818608E-02  0.8518604E-01
          2   -1    0    0  501    0  0.00000000000E+00  0.00000000000E+00  0.24280200465E+04  0.24280200465E+04  0.00000000000E+00 0. -1.
         -1   -1    0    0    0  501 -0.00000000000E+00 -0.00000000000E+00 -0.49815731221E+03  0.49815731221E+03  0.00000000000E+00 0.  1.
         24    2    1    2    0    0 -0.11316152194E+03 -0.32681518330E+03  0.19275924441E+04  0.19600422365E+04  0.80865594669E+02 0.  0.
        254    2    1    2    0    0  0.11316152194E+03  0.32681518330E+03  0.22702902590E+01  0.96613512223E+03  0.90210765771E+03 0.  0.
         23    2    4    4    0    0  0.42396451707E+03  0.22165337688E+03 -0.24540147706E+03  0.54520618510E+03  0.90287142549E+02 0.  0.
         23    2    4    4    0    0 -0.31080299513E+03  0.10516180642E+03  0.24767176732E+03  0.42092893713E+03  0.90456389891E+02 0.  0.
          2    1    3    3  502    0 -0.78273231151E+02 -0.26496289093E+03  0.13408594899E+04  0.13690274664E+04  0.00000000000E+00 0. -1.
         -1    1    3    3    0  502 -0.34888290787E+02 -0.61852292373E+02  0.58673295419E+03  0.59101477007E+03  0.00000000000E+00 0.  1.
         11    1    5    5    0    0  0.10124305366E+02  0.98116542621E+01 -0.29322804684E+02  0.32536087550E+02  0.00000000000E+00 0. -1.
        -11    1    5    5    0    0  0.41384021170E+03  0.21184172262E+03 -0.21607867238E+03  0.51267009755E+03  0.00000000000E+00 0.  1.
          3    1    6    6  503    0 -0.57649017016E+01  0.79992531944E+01  0.35549597586E+02  0.36891679710E+02  0.00000000000E+00 0. -1.
         -3    1    6    6    0  503 -0.30503809343E+03  0.97162553225E+02  0.21212216973E+03  0.38403725742E+03  0.00000000000E+00 0.  1.
<mgrwt>
<rscale>  0 0.21995781E+04</rscale>
<asrwt>0</asrwt>
<pdfrwt beam="1">  1        2 0.37354154E+00 0.21995781E+04</pdfrwt>
<pdfrwt beam="2">  1       -1 0.76639588E-01 0.21995781E+04</pdfrwt>
<totfact> 0.68082695E+00</totfact>
</mgrwt>
</event>
<event>
12    6  0.1542110E-007  0.1299061E+04  0.7818608E-02  0.9030310E-01
         -1   -1    0    0    0  501 -0.00000000000E+00  0.00000000000E+00  0.22718304801E+03  0.22718304801E+03  0.00000000000E+00 0.  1.
          2   -1    0    0  501    0  0.00000000000E+00 -0.00000000000E+00 -0.18570487192E+04  0.18570487192E+04  0.00000000000E+00 0. -1.
         24    2    1    2    0    0  0.22662842920E+03  0.14328204394E+03 -0.73675524537E+03  0.78830713696E+03  0.82034514426E+02 0.  0.
        254    2    1    2    0    0 -0.22662842920E+03 -0.14328204394E+03 -0.89311042581E+03  0.12959246302E+04  0.89993567857E+03 0.  0.
         23    2    4    4    0    0 -0.27529130909E+03  0.14371497449E+03 -0.93383040957E+03  0.98825876069E+03  0.90425911598E+02 0.  0.
         23    2    4    4    0    0  0.48662879890E+02 -0.28699701843E+03  0.40719983767E+02  0.30766586955E+03  0.90910977036E+02 0.  0.
          4    1    3    3  502    0  0.19914880483E+03  0.14736794821E+03 -0.69768806541E+03  0.74036895885E+03  0.00000000000E+00 0. -1.
         -3    1    3    3    0  502  0.27479624377E+02 -0.40859042657E+01 -0.39067179964E+02  0.47938178104E+02  0.00000000000E+00 0.  1.
         11    1    5    5    0    0 -0.13509198876E+03  0.61324588775E+02 -0.31138611808E+03  0.34492298437E+03  0.00000000000E+00 0.  1.
        -11    1    5    5    0    0 -0.14019932033E+03  0.82390385711E+02 -0.62244429150E+03  0.64333577632E+03  0.00000000000E+00 0. -1.
          2    1    6    6  503    0  0.39695589640E+02 -0.28751668315E+03  0.50259068162E+02  0.29456333251E+03  0.00000000000E+00 0. -1.
         -2    1    6    6    0  503  0.89672902500E+01  0.51966472519E+00 -0.95390843959E+01  0.13102537043E+02  0.00000000000E+00 0.  1.
<mgrwt>
<rscale>  0 0.12990612E+04</rscale>
<asrwt>0</asrwt>
<pdfrwt beam="1">  1        2 0.28569981E+00 0.12990612E+04</pdfrwt>
<pdfrwt beam="2">  1       -1 0.34951238E-01 0.12990612E+04</pdfrwt>
<totfact> 0.69707588E+01</totfact>
</mgrwt>
</event>
<event>
12    6  0.1542110E-007  0.1231674E+04  0.7818608E-02  0.9085575E-01
         -1   -1    0    0    0  501 -0.00000000000E+00  0.00000000000E+00  0.34010888301E+03  0.34010888301E+03  0.00000000000E+00 0.  1.
          2   -1    0    0  501    0  0.00000000000E+00 -0.00000000000E+00 -0.11151000211E+04  0.11151000211E+04  0.00000000000E+00 0. -1.
         24    2    1    2    0    0 -0.25458961469E+03  0.81467943543E+02 -0.84009343871E+02  0.29145633991E+03  0.80226744179E+02 0.  0.
        254    2    1    2    0    0  0.25458961469E+03 -0.81467943543E+02 -0.69098179420E+03  0.11637525642E+04  0.89744709759E+03 0.  0.
         23    2    4    4    0    0  0.28740474008E+03  0.21493338200E+03  0.35231017438E+02  0.37339041631E+03  0.96857292366E+02 0.  0.
         23    2    4    4    0    0 -0.32815125387E+02 -0.29640132554E+03 -0.72621281164E+03  0.79036214787E+03  0.91414981041E+02 0.  0.
          2    1    3    3  502    0 -0.14106636566E+03  0.32723070349E+02 -0.84982979668E+02  0.16790659810E+03  0.00000000000E+00 0. -1.
         -1    1    3    3    0  502 -0.11352324903E+03  0.48744873194E+02  0.97363579705E+00  0.12354974181E+03  0.00000000000E+00 0.  1.
         11    1    5    5    0    0  0.28706436183E+03  0.19077732153E+03  0.20918972625E+02  0.34531078417E+03  0.00000000000E+00 0.  1.
        -11    1    5    5    0    0  0.34037824636E+00  0.24156060465E+02  0.14312044813E+02  0.28079632142E+02  0.00000000000E+00 0. -1.
          3    1    6    6  503    0  0.23561537733E+02 -0.54866058922E+02 -0.95467768199E+02  0.11260339803E+03  0.00000000000E+00 0. -1.
         -3    1    6    6    0  503 -0.56376663120E+02 -0.24153526662E+03 -0.63074504344E+03  0.67775874985E+03  0.00000000000E+00 0.  1.
<mgrwt>
<rscale>  0 0.12316743E+04</rscale>
<asrwt>0</asrwt>
<pdfrwt beam="1">  1        2 0.17155385E+00 0.12316743E+04</pdfrwt>
<pdfrwt beam="2">  1       -1 0.52324444E-01 0.12316743E+04</pdfrwt>
<totfact> 0.88079024E+01</totfact>
</mgrwt>
</event>
<event>
12    6  0.1542110E-007  0.2206768E+04  0.7818608E-02  0.8515617E-01
          2   -1    0    0  501    0  0.00000000000E+00  0.00000000000E+00  0.13558768029E+04  0.13558768029E+04  0.00000000000E+00 0. -1.
         -1   -1    0    0    0  501 -0.00000000000E+00 -0.00000000000E+00 -0.89791045106E+03  0.89791045106E+03  0.00000000000E+00 0.  1.
         24    2    1    2    0    0 -0.43237265377E+03 -0.76222461288E+03  0.48747306197E+03  0.10060019625E+04  0.80482856372E+02 0.  0.
        254    2    1    2    0    0  0.43237265377E+03  0.76222461288E+03 -0.29506710154E+02  0.12477852915E+04  0.88778658213E+03 0.  0.
         23    2    4    4    0    0  0.56883160501E+03  0.87230059162E+03  0.16063950684E+02  0.10455790123E+04  0.92193836593E+02 0.  0.
         23    2    4    4    0    0 -0.13645895124E+03 -0.11007597873E+03 -0.45570660837E+02  0.20220627913E+03  0.89849472580E+02 0.  0.
          2    1    3    3  502    0 -0.17113806775E+02 -0.48474075065E+02  0.10774325144E+02  0.52523370208E+02  0.00000000000E+00 0. -1.
         -1    1    3    3    0  502 -0.41525884700E+03 -0.71375053782E+03  0.47669873683E+03  0.95347859228E+03  0.00000000000E+00 0.  1.
         11    1    5    5    0    0  0.20513008949E+03  0.23819950090E+03  0.11527791760E+02  0.31456357994E+03  0.00000000000E+00 0.  1.
        -11    1    5    5    0    0  0.36370151551E+03  0.63410109072E+03  0.45361589234E+01  0.73101543238E+03  0.00000000000E+00 0. -1.
          1    1    6    6  503    0 -0.12611052925E+02 -0.63207771902E+02 -0.11466734408E+02  0.65465617561E+02  0.00000000000E+00 0. -1.
         -1    1    6    6    0  503 -0.12384789831E+03 -0.46868206832E+02 -0.34103926430E+02  0.13674066157E+03  0.00000000000E+00 0.  1.
<mgrwt>
<rscale>  0 0.22067677E+04</rscale>
<asrwt>0</asrwt>
<pdfrwt beam="1">  1        2 0.20859643E+00 0.22067677E+04</pdfrwt>
<pdfrwt beam="2">  1       -1 0.13814007E+00 0.22067677E+04</pdfrwt>
<totfact> 0.69328754E+00</totfact>
</mgrwt>
</event>
<event>
12    6  0.1618768E-007  0.1299716E+04  0.7818608E-02  0.9029791E-01
         -1   -1    0    0    0  501 -0.00000000000E+00  0.00000000000E+00  0.20115085911E+03  0.20115085911E+03  0.00000000000E+00 0.  1.
          2   -1    0    0  501    0  0.00000000000E+00 -0.00000000000E+00 -0.20994943832E+04  0.20994943832E+04  0.00000000000E+00 0. -1.
         24    2    1    2    0    0  0.59776968019E+02 -0.32653887820E+03 -0.45610697423E+03  0.56976467900E+03  0.79983077062E+02 0.  0.
        254    2    1    2    0    0 -0.59776968019E+02  0.32653887820E+03 -0.14422365499E+04  0.17308805633E+04  0.89760811818E+03 0.  0.
         23    2    4    4    0    0 -0.81681289669E+02  0.34976488572E+03 -0.97050718420E+02  0.38218475651E+03  0.87401589238E+02 0.  0.
         23    2    4    4    0    0  0.21904321649E+02 -0.23226007519E+02 -0.13451858314E+04  0.13486958068E+04  0.91848851115E+02 0.  0.
          2    1    3    3  502    0 -0.24134918764E+01 -0.78512823007E+01  0.18105560379E+01  0.84110457120E+01  0.00000000000E+00 0. -1.
         -1    1    3    3    0  502  0.62190459896E+02 -0.31868759590E+03 -0.45791753027E+03  0.56135363329E+03  0.00000000000E+00 0.  1.
         11    1    5    5    0    0 -0.54334547060E+01  0.48296308262E+02 -0.46270190343E+02  0.67104294469E+02  0.00000000000E+00 0. -1.
        -11    1    5    5    0    0 -0.76247834963E+02  0.30146857745E+03 -0.50780528077E+02  0.31508046204E+03  0.00000000000E+00 0.  1.
          1    1    6    6  503    0  0.24053491595E+02 -0.15748885379E+02 -0.11683948500E+03  0.12032482331E+03  0.00000000000E+00 0. -1.
         -1    1    6    6    0  503 -0.21491699457E+01 -0.74771221400E+01 -0.12283463464E+04  0.12283709835E+04  0.00000000000E+00 0.  1.
<mgrwt>
<rscale>  0 0.12997155E+04</rscale>
<asrwt>0</asrwt>
<pdfrwt beam="1">  1        2 0.32299912E+00 0.12997155E+04</pdfrwt>
<pdfrwt beam="2">  1       -1 0.30946288E-01 0.12997155E+04</pdfrwt>
<totfact> 0.63512200E+01</totfact>
</mgrwt>
</event>
<event>
12    6  0.1542110E-007  0.1605066E+04  0.7818608E-02  0.8817442E-01
         -3   -1    0    0    0  501 -0.00000000000E+00  0.00000000000E+00  0.15930355172E+04  0.15930355172E+04  0.00000000000E+00 0.  1.
          2   -1    0    0  501    0  0.00000000000E+00 -0.00000000000E+00 -0.40429679991E+03  0.40429679991E+03  0.00000000000E+00 0. -1.
         24    2    1    2    0    0  0.17092630931E+03 -0.47839626969E+03  0.14569808939E+03  0.53439963780E+03  0.79222759143E+02 0.  0.
        254    2    1    2    0    0 -0.17092630931E+03  0.47839626969E+03  0.10430406279E+04  0.14629326793E+04  0.89115625937E+03 0.  0.
         23    2    4    4    0    0  0.26857100209E+03  0.13589220001E+03  0.46345848390E+02  0.31752222553E+03  0.89862967127E+02 0.  0.
         23    2    4    4    0    0 -0.43949731139E+03  0.34250406968E+03  0.99669477948E+03  0.11454104537E+04  0.89987219129E+02 0.  0.
          2    1    3    3  502    0  0.42236724822E+01 -0.17338346807E+02  0.22814192866E+02  0.28964548596E+02  0.00000000000E+00 0. -1.
         -1    1    3    3    0  502  0.16670263683E+03 -0.46105792288E+03  0.12288389652E+03  0.50543508920E+03  0.00000000000E+00 0.  1.
         11    1    5    5    0    0  0.26708357363E+03  0.11510835994E+03  0.53054044274E+02  0.29563203724E+03  0.00000000000E+00 0.  1.
        -11    1    5    5    0    0  0.14874284590E+01  0.20783840073E+02 -0.67081958839E+01  0.21890188295E+02  0.00000000000E+00 0. -1.
          3    1    6    6  503    0 -0.69292696214E+02  0.23664301842E+02  0.17057969288E+03  0.18563110880E+03  0.00000000000E+00 0. -1.
         -3    1    6    6    0  503 -0.37020461518E+03  0.31883976784E+03  0.82611508660E+03  0.95977934493E+03  0.00000000000E+00 0.  1.
<mgrwt>
<rscale>  0 0.16050659E+04</rscale>
<asrwt>0</asrwt>
<pdfrwt beam="1">  1        2 0.62199508E-01 0.16050659E+04</pdfrwt>
<pdfrwt beam="2">  1       -3 0.24508238E+00 0.16050659E+04</pdfrwt>
<totfact> 0.36700921E+00</totfact>
</mgrwt>
</event>
<event>
12    6  0.1542110E-007  0.1533972E+04  0.7818608E-02  0.8862171E-01
          2   -1    0    0  501    0  0.00000000000E+00  0.00000000000E+00  0.25323560322E+04  0.25323560322E+04  0.00000000000E+00 0. -1.
         -1   -1    0    0    0  501 -0.00000000000E+00 -0.00000000000E+00 -0.23230033277E+03  0.23230033277E+03  0.00000000000E+00 0.  1.
         24    2    1    2    0    0  0.21975158566E+03  0.36752924730E+03  0.30797121335E+03  0.53364189913E+03  0.80987043595E+02 0.  0.
        254    2    1    2    0    0 -0.21975158566E+03 -0.36752924730E+03  0.19920844860E+04  0.22310144658E+04  0.90865639278E+03 0.  0.
         23    2    4    4    0    0  0.20328244096E+03 -0.50241794943E+03  0.10333753626E+04  0.11705569231E+04  0.92689392489E+02 0.  0.
         23    2    4    4    0    0 -0.42303402662E+03  0.13488870213E+03  0.95870912348E+03  0.10604575427E+04  0.91072865825E+02 0.  0.
          2    1    3    3  502    0  0.12864035786E+03  0.15645987404E+03  0.11140460048E+03  0.23116881031E+03  0.00000000000E+00 0. -1.
         -1    1    3    3    0  502  0.91111227805E+02  0.21106937325E+03  0.19656661288E+03  0.30247308881E+03  0.00000000000E+00 0.  1.
         11    1    5    5    0    0  0.12835464986E+03 -0.34105262615E+03  0.59869531566E+03  0.70087651619E+03  0.00000000000E+00 0. -1.
        -11    1    5    5    0    0  0.74927791100E+02 -0.16136532328E+03  0.43468004689E+03  0.46968040688E+03  0.00000000000E+00 0.  1.
          2    1    6    6  503    0 -0.90329039940E+02  0.78384536239E+01  0.27488013117E+03  0.28944751393E+03  0.00000000000E+00 0. -1.
         -2    1    6    6    0  503 -0.33270498668E+03  0.12705024851E+03  0.68382899231E+03  0.77101002881E+03  0.00000000000E+00 0.  1.
<mgrwt>
<rscale>  0 0.15339715E+04</rscale>
<asrwt>0</asrwt>
<pdfrwt beam="1">  1        2 0.38959322E+00 0.15339715E+04</pdfrwt>
<pdfrwt beam="2">  1       -1 0.35738515E-01 0.15339715E+04</pdfrwt>
<totfact> 0.27419988E+01</totfact>
</mgrwt>
</event>
<event>
12    6  0.1645004E-007  0.2605821E+04  0.7818608E-02  0.8366227E-01
          2   -1    0    0  501    0  0.00000000000E+00  0.00000000000E+00  0.13016432103E+04  0.13016432103E+04  0.00000000000E+00 0. -1.
         -1   -1    0    0    0  501 -0.00000000000E+00 -0.00000000000E+00 -0.13041791108E+04  0.13041791108E+04  0.00000000000E+00 0.  1.
         24    2    1    2    0    0 -0.49274766019E+03  0.90441336180E+03  0.46122350175E+03  0.11313905639E+04  0.80954949236E+02 0.  0.
        254    2    1    2    0    0  0.49274766019E+03 -0.90441336180E+03 -0.46375940224E+03  0.14744317572E+04  0.94768794335E+03 0.  0.
         23    2    4    4    0    0  0.41237281397E+03 -0.48536433651E+03  0.20562882545E+03  0.67541422146E+03  0.90946576782E+02 0.  0.
         23    2    4    4    0    0  0.80374846215E+02 -0.41904902528E+03 -0.66938822769E+03  0.79901753578E+03  0.91028685711E+02 0.  0.
          4    1    3    3  502    0 -0.39553127146E+03  0.78546821943E+03  0.39682494431E+03  0.96481881557E+03  0.00000000000E+00 0. -1.
         -1    1    3    3    0  502 -0.97216388729E+02  0.11894514236E+03  0.64398557431E+02  0.16657174829E+03  0.00000000000E+00 0.  1.
         11    1    5    5    0    0 -0.31406447325E+01 -0.15943611710E+01 -0.27993165123E+01  0.44990898875E+01  0.00000000000E+00 0. -1.
        -11    1    5    5    0    0  0.41551345871E+03 -0.48376997534E+03  0.20842814196E+03  0.67091513157E+03  0.00000000000E+00 0.  1.
          1    1    6    6  503    0  0.62141353976E+02 -0.11608065064E+03 -0.22932151356E+03  0.26443264153E+03  0.00000000000E+00 0. -1.
         -1    1    6    6    0  503  0.18233492238E+02 -0.30296837464E+03 -0.44006671413E+03  0.53458489425E+03  0.00000000000E+00 0.  1.
<mgrwt>
<rscale>  0 0.26058211E+04</rscale>
<asrwt>0</asrwt>
<pdfrwt beam="1">  1        2 0.20025280E+00 0.26058211E+04</pdfrwt>
<pdfrwt beam="2">  1       -1 0.20064294E+00 0.26058211E+04</pdfrwt>
<totfact> 0.24754413E+00</totfact>
</mgrwt>
</event>
<event>
12    6  0.1542110E-007  0.1129279E+04  0.7818608E-02  0.9177115E-01
          2   -1    0    0  501    0  0.00000000000E+00  0.00000000000E+00  0.83834743381E+03  0.83834743381E+03  0.00000000000E+00 0. -1.
         -1   -1    0    0    0  501 -0.00000000000E+00 -0.00000000000E+00 -0.38029316723E+03  0.38029316723E+03  0.00000000000E+00 0.  1.
         24    2    1    2    0    0  0.57046642362E+01  0.19147270089E+03  0.46180443221E+02  0.21233425112E+03  0.79112972897E+02 0.  0.
        254    2    1    2    0    0 -0.57046642362E+01 -0.19147270089E+03  0.41187382335E+03  0.10063063499E+04  0.89795216195E+03 0.  0.
         23    2    4    4    0    0 -0.57621616998E+01 -0.53967757766E+03  0.32296897722E+03  0.63553859121E+03  0.91187994478E+02 0.  0.
         23    2    4    4    0    0  0.57497463581E-01  0.34820487677E+03  0.88904846135E+02  0.37076775871E+03  0.91203178239E+02 0.  0.
          2    1    3    3  502    0  0.20388394685E+02  0.24319355727E+02 -0.13157175784E+02  0.34354460779E+02  0.00000000000E+00 0. -1.
         -1    1    3    3    0  502 -0.14683730449E+02  0.16715334517E+03  0.59337619005E+02  0.17797979034E+03  0.00000000000E+00 0.  1.
         11    1    5    5    0    0 -0.24929100692E+02 -0.49905983953E+03  0.31272053967E+03  0.58947122018E+03  0.00000000000E+00 0.  1.
        -11    1    5    5    0    0  0.19166938992E+02 -0.40617738133E+02  0.10248437545E+02  0.46067371029E+02  0.00000000000E+00 0. -1.
          4    1    6    6  503    0  0.41052208977E+02  0.12386936335E+03  0.48206650091E+02  0.13911428450E+03  0.00000000000E+00 0. -1.
         -4    1    6    6    0  503 -0.40994711513E+02  0.22433551342E+03  0.40698196044E+02  0.23165347421E+03  0.00000000000E+00 0.  1.
<mgrwt>
<rscale>  0 0.11292791E+04</rscale>
<asrwt>0</asrwt>
<pdfrwt beam="1">  1        2 0.12897653E+00 0.11292791E+04</pdfrwt>
<pdfrwt beam="2">  1       -1 0.58506641E-01 0.11292791E+04</pdfrwt>
<totfact> 0.10830999E+02</totfact>
</mgrwt>
</event>
<event>
12    6  0.1542110E-007  0.2471898E+04  0.7818608E-02  0.8413066E-01
          2   -1    0    0  501    0  0.00000000000E+00  0.00000000000E+00  0.12777743189E+04  0.12777743189E+04  0.00000000000E+00 0. -1.
         -1   -1    0    0    0  501 -0.00000000000E+00 -0.00000000000E+00 -0.11954931759E+04  0.11954931759E+04  0.00000000000E+00 0.  1.
         24    2    1    2    0    0  0.83715370254E+03 -0.24257747907E+02  0.70005482921E+03  0.10944383622E+04  0.79396503958E+02 0.  0.
        254    2    1    2    0    0 -0.83715370254E+03  0.24257747907E+02 -0.61777368622E+03  0.13788291326E+04  0.90449471510E+03 0.  0.
         23    2    4    4    0    0 -0.77307916711E+03 -0.20413776679E+03 -0.74331129894E+03  0.10954072534E+04  0.89898482511E+02 0.  0.
         23    2    4    4    0    0 -0.64074535425E+02  0.22839551470E+03  0.12553761272E+03  0.28342187927E+03  0.91094523537E+02 0.  0.
          4    1    3    3  502    0  0.70444122445E+03 -0.35882168913E+02  0.55529133945E+03  0.89770453960E+03  0.00000000000E+00 0. -1.
         -1    1    3    3    0  502  0.13271247809E+03  0.11624421007E+02  0.14476348976E+03  0.19673382264E+03  0.00000000000E+00 0.  1.
         11    1    5    5    0    0 -0.38131149064E+03 -0.90429921841E+02 -0.30461398827E+03  0.49635240053E+03  0.00000000000E+00 0. -1.
        -11    1    5    5    0    0 -0.39176767647E+03 -0.11370784495E+03 -0.43869731066E+03  0.59905485284E+03  0.00000000000E+00 0.  1.
          3    1    6    6  503    0  0.93514198273E+01  0.92408249900E+02  0.16625641803E+02  0.94356481853E+02  0.00000000000E+00 0. -1.
         -3    1    6    6    0  503 -0.73425955253E+02  0.13598726480E+03  0.10891197092E+03  0.18906539742E+03  0.00000000000E+00 0.  1.
<mgrwt>
<rscale>  0 0.24718984E+04</rscale>
<asrwt>0</asrwt>
<pdfrwt beam="1">  1        2 0.19658066E+00 0.24718984E+04</pdfrwt>
<pdfrwt beam="2">  1       -1 0.18392203E+00 0.24718984E+04</pdfrwt>
<totfact> 0.33853244E+00</totfact>
</mgrwt>
</event>
<event>
12    6  0.1542110E-007  0.1999516E+04  0.7818608E-02  0.8606847E-01
         -1   -1    0    0    0  501 -0.00000000000E+00  0.00000000000E+00  0.19299919686E+04  0.19299919686E+04  0.00000000000E+00 0.  1.
          2   -1    0    0  501    0  0.00000000000E+00 -0.00000000000E+00 -0.51788598907E+03  0.51788598907E+03  0.00000000000E+00 0. -1.
         24    2    1    2    0    0  0.25873893567E+03 -0.54510900460E+03  0.11826883904E+04  0.13300852787E+04  0.79280237089E+02 0.  0.
        254    2    1    2    0    0 -0.25873893567E+03  0.54510900460E+03  0.22941758916E+03  0.11177926790E+04  0.91254500129E+03 0.  0.
         23    2    4    4    0    0 -0.32976118204E+03 -0.13479583521E+03 -0.53346554122E+02  0.37151476224E+03  0.90912096853E+02 0.  0.
         23    2    4    4    0    0  0.71022246371E+02  0.67990483981E+03  0.28276414328E+03  0.74627791680E+03  0.98287423910E+02 0.  0.
          2    1    3    3  502    0  0.86358536707E+02 -0.16829405607E+03  0.45378624552E+03  0.49163262991E+03  0.00000000000E+00 0. -1.
         -1    1    3    3    0  502  0.17238039897E+03 -0.37681494853E+03  0.72890214487E+03  0.83845264874E+03  0.00000000000E+00 0.  1.
         11    1    5    5    0    0 -0.32374690491E+02  0.94983104330E+01 -0.20172597500E+02  0.39309950081E+02  0.00000000000E+00 0.  1.
        -11    1    5    5    0    0 -0.29738649155E+03 -0.14429414564E+03 -0.33173956622E+02  0.33220481216E+03  0.00000000000E+00 0. -1.
          4    1    6    6  503    0  0.79491364199E+02  0.44632397769E+03  0.22194238157E+03  0.50475973569E+03  0.00000000000E+00 0. -1.
         -4    1    6    6    0  503 -0.84691178271E+01  0.23358086213E+03  0.60821761717E+02  0.24151818111E+03  0.00000000000E+00 0.  1.
<mgrwt>
<rscale>  0 0.19995157E+04</rscale>
<asrwt>0</asrwt>
<pdfrwt beam="1">  1        2 0.79674769E-01 0.19995157E+04</pdfrwt>
<pdfrwt beam="2">  1       -1 0.29692184E+00 0.19995157E+04</pdfrwt>
<totfact> 0.21702734E+00</totfact>
</mgrwt>
</event>
<event>
12    6  0.1542110E-007  0.1804115E+04  0.7818608E-02  0.8704114E-01
         -1   -1    0    0    0  501 -0.00000000000E+00  0.00000000000E+00  0.37488720469E+03  0.37488720469E+03  0.00000000000E+00 0.  1.
          2   -1    0    0  501    0  0.00000000000E+00 -0.00000000000E+00 -0.21705405479E+04  0.21705405479E+04  0.00000000000E+00 0. -1.
         24    2    1    2    0    0  0.19254675458E+03  0.83516604037E+02  0.22981125345E+03  0.32098600770E+03  0.78546349864E+02 0.  0.
        254    2    1    2    0    0 -0.19254675458E+03 -0.83516604037E+02 -0.20254645967E+04  0.22244417449E+04  0.89531277678E+03 0.  0.
         23    2    4    4    0    0  0.35997535720E+02 -0.79171073567E+01 -0.19551898283E+04  0.19576308519E+04  0.90514002264E+02 0.  0.
         23    2    4    4    0    0 -0.22854429030E+03 -0.75599496680E+02 -0.70274768434E+02  0.26681089303E+03  0.91113846549E+02 0.  0.
          4    1    3    3  502    0  0.72193060589E+02  0.70712517840E+02  0.83403586932E+02  0.13102769360E+03  0.00000000000E+00 0. -1.
         -3    1    3    3    0  502  0.12035369399E+03  0.12804086197E+02  0.14640766652E+03  0.18995831410E+03  0.00000000000E+00 0.  1.
         11    1    5    5    0    0 -0.11413103553E+02 -0.32252896915E+01 -0.14822462101E+04  0.14822936581E+04  0.00000000000E+00 0. -1.
        -11    1    5    5    0    0  0.47410639273E+02 -0.46918176652E+01 -0.47294361813E+03  0.47533719379E+03  0.00000000000E+00 0.  1.
          3    1    6    6  503    0 -0.12095336422E+03 -0.87291816262E+02 -0.40146438489E+02  0.15447107829E+03  0.00000000000E+00 0. -1.
         -3    1    6    6    0  503 -0.10759092608E+03  0.11692319581E+02 -0.30128329945E+02  0.11233981474E+03  0.00000000000E+00 0.  1.
<mgrwt>
<rscale>  0 0.18041152E+04</rscale>
<asrwt>0</asrwt>
<pdfrwt beam="1">  1        2 0.33392931E+00 0.18041152E+04</pdfrwt>
<pdfrwt beam="2">  1       -1 0.57674955E-01 0.18041152E+04</pdfrwt>
<totfact> 0.17559652E+01</totfact>
</mgrwt>
</event>
<event>
12    6  0.1542110E-007  0.1365924E+04  0.7818608E-02  0.8978860E-01
          2   -1    0    0  501    0  0.00000000000E+00  0.00000000000E+00  0.13412855923E+04  0.13412855923E+04  0.00000000000E+00 0. -1.
         -1   -1    0    0    0  501 -0.00000000000E+00 -0.00000000000E+00 -0.34775399030E+03  0.34775399030E+03  0.00000000000E+00 0.  1.
         24    2    1    2    0    0  0.42460663382E+02  0.20822881440E+03  0.67024140132E+03  0.70761311556E+03  0.79565307671E+02 0.  0.
        254    2    1    2    0    0 -0.42460663382E+02 -0.20822881440E+03  0.32329020067E+03  0.98142646704E+03  0.90195299727E+03 0.  0.
         23    2    4    4    0    0 -0.22900251734E+03 -0.65443378508E+02  0.57246674754E+03  0.62650743264E+03  0.89824258317E+02 0.  0.
         23    2    4    4    0    0  0.18654185396E+03 -0.14278543589E+03 -0.24917654687E+03  0.35491903439E+03  0.93236395696E+02 0.  0.
          4    1    3    3  502    0  0.63195653150E+02  0.17687314396E+03  0.52502796189E+03  0.55761291269E+03  0.00000000000E+00 0. -1.
         -3    1    3    3    0  502 -0.20734989768E+02  0.31355670436E+02  0.14521343943E+03  0.15000020286E+03  0.00000000000E+00 0.  1.
         11    1    5    5    0    0 -0.18742676046E+03 -0.20673227201E+02  0.37395359125E+03  0.41880480091E+03  0.00000000000E+00 0.  1.
        -11    1    5    5    0    0 -0.41575756882E+02 -0.44770151307E+02  0.19851315629E+03  0.20770263173E+03  0.00000000000E+00 0. -1.
          2    1    6    6  503    0 -0.60421095680E+01 -0.26310797568E+02 -0.35292935697E+02  0.44433731182E+02  0.00000000000E+00 0. -1.
         -2    1    6    6    0  503  0.19258396353E+03 -0.11647463832E+03 -0.21388361117E+03  0.31048530321E+03  0.00000000000E+00 0.  1.
<mgrwt>
<rscale>  0 0.13659245E+04</rscale>
<asrwt>0</asrwt>
<pdfrwt beam="1">  1        2 0.20635163E+00 0.13659245E+04</pdfrwt>
<pdfrwt beam="2">  1       -1 0.53500615E-01 0.13659245E+04</pdfrwt>
<totfact> 0.61309860E+01</totfact>
</mgrwt>
</event>
<event>
12    6  0.1542110E-007  0.1674371E+04  0.7818608E-02  0.8776118E-01
         -1   -1    0    0    0  501 -0.00000000000E+00  0.00000000000E+00  0.14494289031E+04  0.14494289031E+04  0.00000000000E+00 0.  1.
          2   -1    0    0  501    0  0.00000000000E+00 -0.00000000000E+00 -0.48355577560E+03  0.48355577560E+03  0.00000000000E+00 0. -1.
         24    2    1    2    0    0 -0.37921632753E+03  0.44748012448E+03  0.43722596774E+03  0.73588607996E+03  0.79487677991E+02 0.  0.
        254    2    1    2    0    0  0.37921632753E+03 -0.44748012448E+03  0.52864715975E+03  0.11970985987E+04  0.89974093532E+03 0.  0.
         23    2    4    4    0    0  0.57097520105E+03 -0.36190983540E+01  0.33034587869E+03  0.66638066140E+03  0.94387542806E+02 0.  0.
         23    2    4    4    0    0 -0.19175887352E+03 -0.44386102612E+03  0.19830128106E+03  0.53071793732E+03  0.92488133528E+02 0.  0.
          2    1    3    3  502    0 -0.28332360846E+02  0.34322381397E+02  0.63272587425E+02  0.77357409828E+02  0.00000000000E+00 0. -1.
         -1    1    3    3    0  502 -0.35088396668E+03  0.41315774308E+03  0.37395338032E+03  0.65852867014E+03  0.00000000000E+00 0.  1.
         11    1    5    5    0    0  0.20039693491E+03  0.43137552542E+02  0.10807037120E+03  0.23173041469E+03  0.00000000000E+00 0.  1.
        -11    1    5    5    0    0  0.37057826614E+03 -0.46756650896E+02  0.22227550749E+03  0.43465024671E+03  0.00000000000E+00 0. -1.
          3    1    6    6  503    0 -0.12340714499E+03 -0.17858876988E+03  0.68860404393E+02  0.22773894585E+03  0.00000000000E+00 0. -1.
         -3    1    6    6    0  503 -0.68351728529E+02 -0.26527225624E+03  0.12944087667E+03  0.30297899148E+03  0.00000000000E+00 0.  1.
<mgrwt>
<rscale>  0 0.16743712E+04</rscale>
<asrwt>0</asrwt>
<pdfrwt beam="1">  1        2 0.74393197E-01 0.16743712E+04</pdfrwt>
<pdfrwt beam="2">  1       -1 0.22298906E+00 0.16743712E+04</pdfrwt>
<totfact> 0.73323224E+00</totfact>
</mgrwt>
</event>
<event>
12    6  0.1542110E-007  0.1448132E+04  0.7818608E-02  0.8919696E-01
         -1   -1    0    0    0  501 -0.00000000000E+00  0.00000000000E+00  0.48668123682E+03  0.48668123682E+03  0.00000000000E+00 0.  1.
          2   -1    0    0  501    0  0.00000000000E+00 -0.00000000000E+00 -0.10772383137E+04  0.10772383137E+04  0.00000000000E+00 0. -1.
         24    2    1    2    0    0  0.22858066087E+03 -0.13949878371E+03  0.18948155595E+03  0.33747001202E+03  0.79206816565E+02 0.  0.
        254    2    1    2    0    0 -0.22858066087E+03  0.13949878371E+03 -0.78003863280E+03  0.12264495385E+04  0.90774950983E+03 0.  0.
         23    2    4    4    0    0  0.34076073746E+03  0.10449812859E+03 -0.33108595701E+03  0.49497126816E+03  0.91328562397E+02 0.  0.
         23    2    4    4    0    0 -0.56934139832E+03  0.35000655121E+02 -0.44895267579E+03  0.73147827031E+03  0.90151434464E+02 0.  0.
          4    1    3    3  502    0  0.53169723458E+02 -0.75881890586E+02  0.61711467772E+02  0.11132558586E+03  0.00000000000E+00 0. -1.
         -3    1    3    3    0  502  0.17541093741E+03 -0.63616893125E+02  0.12777008817E+03  0.22614442617E+03  0.00000000000E+00 0.  1.
         11    1    5    5    0    0  0.33999799742E+03  0.87973736670E+02 -0.31942961298E+03  0.47473497263E+03  0.00000000000E+00 0. -1.
        -11    1    5    5    0    0  0.76274003703E+00  0.16524391921E+02 -0.11656344030E+02  0.20236295532E+02  0.00000000000E+00 0.  1.
          2    1    6    6  503    0 -0.39790670807E+03  0.55787621072E+02 -0.27884985922E+03  0.48908000468E+03  0.00000000000E+00 0. -1.
         -2    1    6    6    0  503 -0.17143469026E+03 -0.20786965951E+02 -0.17010281657E+03  0.24239826564E+03  0.00000000000E+00 0.  1.
<mgrwt>
<rscale>  0 0.14481321E+04</rscale>
<asrwt>0</asrwt>
<pdfrwt beam="1">  1        2 0.16572897E+00 0.14481321E+04</pdfrwt>
<pdfrwt beam="2">  1       -1 0.74874037E-01 0.14481321E+04</pdfrwt>
<totfact> 0.44681537E+01</totfact>
</mgrwt>
</event>
<event>
12    6  0.1542110E-007  0.2036934E+04  0.7818608E-02  0.8589545E-01
          2   -1    0    0  501    0  0.00000000000E+00  0.00000000000E+00  0.60750013842E+03  0.60750013842E+03  0.00000000000E+00 0. -1.
         -1   -1    0    0    0  501 -0.00000000000E+00 -0.00000000000E+00 -0.17074480190E+04  0.17074480190E+04  0.00000000000E+00 0.  1.
         24    2    1    2    0    0  0.59353550304E+03 -0.15835066724E+03  0.18621095761E+03  0.64670855944E+03  0.78728094921E+02 0.  0.
        254    2    1    2    0    0 -0.59353550304E+03  0.15835066724E+03 -0.12861588382E+04  0.16682395980E+04  0.86686762080E+03 0.  0.
         23    2    4    4    0    0 -0.62355726573E+02 -0.90197294025E+02 -0.99894449427E+03  0.10091087787E+04  0.91578578812E+02 0.  0.
         23    2    4    4    0    0 -0.53117977647E+03  0.24854796127E+03 -0.28721434390E+03  0.65913081927E+03  0.89628754256E+02 0.  0.
          2    1    3    3  502    0  0.14544399215E+03 -0.33240576894E+02  0.80869105436E+02  0.16970180617E+03  0.00000000000E+00 0. -1.
         -1    1    3    3    0  502  0.44809151090E+03 -0.12511009035E+03  0.10534185218E+03  0.47700675327E+03  0.00000000000E+00 0.  1.
         11    1    5    5    0    0 -0.65003404545E+02 -0.10267874586E+03 -0.96855914434E+03  0.97615325822E+03  0.00000000000E+00 0.  1.
        -11    1    5    5    0    0  0.26476779724E+01  0.12481451833E+02 -0.30385349933E+02  0.32955520464E+02  0.00000000000E+00 0. -1.
          3    1    6    6  503    0 -0.69596434240E+02  0.66884581344E+02 -0.58779214288E+02  0.11301418899E+03  0.00000000000E+00 0. -1.
         -3    1    6    6    0  503 -0.46158334223E+03  0.18166337992E+03 -0.22843512961E+03  0.54611663028E+03  0.00000000000E+00 0.  1.
<mgrwt>
<rscale>  0 0.20369339E+04</rscale>
<asrwt>0</asrwt>
<pdfrwt beam="1">  1        2 0.93461560E-01 0.20369339E+04</pdfrwt>
<pdfrwt beam="2">  1       -1 0.26268431E+00 0.20369339E+04</pdfrwt>
<totfact> 0.29786460E+00</totfact>
</mgrwt>
</event>
<event>
12    6  0.1542110E-007  0.2147065E+04  0.7818608E-02  0.8540790E-01
          2   -1    0    0  501    0  0.00000000000E+00  0.00000000000E+00  0.14834758203E+04  0.14834758203E+04  0.00000000000E+00 0. -1.
         -1   -1    0    0    0  501 -0.00000000000E+00 -0.00000000000E+00 -0.77687278360E+03  0.77687278360E+03  0.00000000000E+00 0.  1.
         24    2    1    2    0    0 -0.19548894817E+03 -0.41841314698E+03 -0.50176576143E+03  0.68655114987E+03  0.79360642776E+02 0.  0.
        254    2    1    2    0    0  0.19548894817E+03  0.41841314698E+03  0.12083687981E+04  0.15737974540E+04  0.89632459721E+03 0.  0.
         23    2    4    4    0    0 -0.32129150809E+03  0.11216732052E+02  0.50152577123E+03  0.60387425849E+03  0.98903855351E+02 0.  0.
         23    2    4    4    0    0  0.51678045626E+03  0.40719641493E+03  0.70684302686E+03  0.96992319551E+03  0.90845914888E+02 0.  0.
          2    1    3    3  502    0 -0.13442204301E+02 -0.76944402624E+02 -0.55172095240E+02  0.95629985072E+02  0.00000000000E+00 0. -1.
         -1    1    3    3    0  502 -0.18204674387E+03 -0.34146874436E+03 -0.44659366619E+03  0.59092116480E+03  0.00000000000E+00 0.  1.
         11    1    5    5    0    0 -0.18333789981E+02  0.57895409977E+01  0.16032810563E+01  0.19292930057E+02  0.00000000000E+00 0.  1.
        -11    1    5    5    0    0 -0.30295771811E+03  0.54271910547E+01  0.49992249017E+03  0.58458132843E+03  0.00000000000E+00 0. -1.
          1    1    6    6  503    0  0.51444668778E+03  0.40756083436E+03  0.70940032458E+03  0.96644195314E+03  0.00000000000E+00 0. -1.
         -1    1    6    6    0  503  0.23337684817E+01 -0.36441942757E+00 -0.25572977147E+01  0.34812423712E+01  0.00000000000E+00 0.  1.
<mgrwt>
<rscale>  0 0.21470650E+04</rscale>
<asrwt>0</asrwt>
<pdfrwt beam="1">  1        2 0.22822705E+00 0.21470650E+04</pdfrwt>
<pdfrwt beam="2">  1       -1 0.11951889E+00 0.21470650E+04</pdfrwt>
<totfact> 0.84815408E+00</totfact>
</mgrwt>
</event>
<event>
12    6  0.1542110E-007  0.2649445E+04  0.7818608E-02  0.8351597E-01
         -1   -1    0    0    0  501 -0.00000000000E+00  0.00000000000E+00  0.82447644290E+03  0.82447644290E+03  0.00000000000E+00 0.  1.
          2   -1    0    0  501    0  0.00000000000E+00 -0.00000000000E+00 -0.21284902738E+04  0.21284902738E+04  0.00000000000E+00 0. -1.
         24    2    1    2    0    0  0.98294699606E+03 -0.47861041915E+03 -0.10328289333E+04  0.15061663805E+04  0.80924841433E+02 0.  0.
        254    2    1    2    0    0 -0.98294699606E+03  0.47861041915E+03 -0.27118489753E+03  0.14468003361E+04  0.90798526067E+03 0.  0.
         23    2    4    4    0    0  0.28687174308E+02 -0.11231669145E+03  0.13859287961E+03  0.20220959619E+03  0.90789544344E+02 0.  0.
         23    2    4    4    0    0 -0.10116341704E+04  0.59092711060E+03 -0.40977777714E+03  0.12445907399E+04  0.92139777584E+02 0.  0.
          4    1    3    3  502    0  0.46100113093E+03 -0.20703004146E+03 -0.52847318221E+03  0.73120953570E+03  0.00000000000E+00 0. -1.
         -1    1    3    3    0  502  0.52194586513E+03 -0.27158037769E+03 -0.50435575111E+03  0.77495684483E+03  0.00000000000E+00 0.  1.
         11    1    5    5    0    0  0.21026131868E+02 -0.13741566401E+02 -0.71298354305E+01  0.26110599797E+02  0.00000000000E+00 0.  1.
        -11    1    5    5    0    0  0.76610424399E+01 -0.98575125052E+02  0.14572271504E+03  0.17609899639E+03  0.00000000000E+00 0. -1.
          4    1    6    6  503    0 -0.70703866877E+03  0.37279737818E+03 -0.30561554529E+03  0.85573502081E+03  0.00000000000E+00 0. -1.
         -4    1    6    6    0  503 -0.30459550160E+03  0.21812973242E+03 -0.10416223185E+03  0.38885571913E+03  0.00000000000E+00 0.  1.
<mgrwt>
<rscale>  0 0.26494453E+04</rscale>
<asrwt>0</asrwt>
<pdfrwt beam="1">  1        2 0.32746004E+00 0.26494453E+04</pdfrwt>
<pdfrwt beam="2">  1       -1 0.12684253E+00 0.26494453E+04</pdfrwt>
<totfact> 0.30620623E+00</totfact>
</mgrwt>
</event>
<event>
12    6  0.1542110E-007  0.2177197E+04  0.7818608E-02  0.8527979E-01
          2   -1    0    0  501    0  0.00000000000E+00  0.00000000000E+00  0.59205597612E+03  0.59205597612E+03  0.00000000000E+00 0. -1.
         -1   -1    0    0    0  501 -0.00000000000E+00 -0.00000000000E+00 -0.20015795087E+04  0.20015795087E+04  0.00000000000E+00 0.  1.
         24    2    1    2    0    0 -0.54275257312E+03  0.28232590777E+03 -0.13651469518E+04  0.14980814831E+04  0.79584269516E+02 0.  0.
        254    2    1    2    0    0  0.54275257312E+03 -0.28232590777E+03 -0.44376580766E+02  0.10955540018E+04  0.90773400072E+03 0.  0.
         23    2    4    4    0    0  0.49419007497E+03  0.20968408003E+03 -0.18199807966E+03  0.57418742597E+03  0.91524070706E+02 0.  0.
         23    2    4    4    0    0  0.48562498156E+02 -0.49200998780E+03  0.13762149890E+03  0.52136657581E+03  0.91930871267E+02 0.  0.
          2    1    3    3  502    0 -0.11225885913E+03  0.48615533588E+02 -0.20444613013E+03  0.23825142536E+03  0.00000000000E+00 0. -1.
         -1    1    3    3    0  502 -0.43049371399E+03  0.23371037418E+03 -0.11607008217E+04  0.12598300577E+04  0.00000000000E+00 0.  1.
         11    1    5    5    0    0  0.88092315032E+02  0.19298865978E+02 -0.64581827580E-01  0.90181518985E+02  0.00000000000E+00 0.  1.
        -11    1    5    5    0    0  0.40609775994E+03  0.19038521406E+03 -0.18193349784E+03  0.48400590698E+03  0.00000000000E+00 0. -1.
          4    1    6    6  503    0  0.18837899089E+02 -0.44840257559E+03  0.11130472945E+03  0.46239428958E+03  0.00000000000E+00 0. -1.
         -4    1    6    6    0  503  0.29724599067E+02 -0.43607412216E+02  0.26316769448E+02  0.58972286237E+02  0.00000000000E+00 0.  1.
<mgrwt>
<rscale>  0 0.21771974E+04</rscale>
<asrwt>0</asrwt>
<pdfrwt beam="1">  1        2 0.91085535E-01 0.21771974E+04</pdfrwt>
<pdfrwt beam="2">  1       -1 0.30793531E+00 0.21771974E+04</pdfrwt>
<totfact> 0.15462654E+00</totfact>
</mgrwt>
</event>
<event>
12    6  0.1542110E-007  0.2477430E+04  0.7818608E-02  0.8411070E-01
          2   -1    0    0  501    0  0.00000000000E+00  0.00000000000E+00  0.16726857839E+04  0.16726857839E+04  0.00000000000E+00 0. -1.
         -1   -1    0    0    0  501 -0.00000000000E+00 -0.00000000000E+00 -0.91733620080E+03  0.91733620080E+03  0.00000000000E+00 0.  1.
         24    2    1    2    0    0  0.96948063963E+03 -0.30524421063E+03  0.67983693600E+03  0.12254176710E+04  0.80021684868E+02 0.  0.
        254    2    1    2    0    0 -0.96948063963E+03  0.30524421063E+03  0.75512647142E+02  0.13646043138E+04  0.90740070230E+03 0.  0.
         23    2    4    4    0    0 -0.84570671886E+03  0.53159013459E+03  0.25781930185E+03  0.10356619187E+04  0.91196995031E+02 0.  0.
         23    2    4    4    0    0 -0.12377392077E+03 -0.22634592397E+03 -0.18230665471E+03  0.32894239508E+03  0.91732884876E+02 0.  0.
          2    1    3    3  502    0  0.54230805582E+03 -0.14428503977E+03  0.41173991371E+03  0.69602152025E+03  0.00000000000E+00 0. -1.
         -1    1    3    3    0  502  0.42717258381E+03 -0.16095917086E+03  0.26809702229E+03  0.52939615072E+03  0.00000000000E+00 0.  1.
         11    1    5    5    0    0 -0.70894581587E+03  0.48117355857E+03  0.20889556786E+03  0.88191242285E+03  0.00000000000E+00 0.  1.
        -11    1    5    5    0    0 -0.13676090299E+03  0.50416576027E+02  0.48923733988E+02  0.15374949584E+03  0.00000000000E+00 0. -1.
          3    1    6    6  503    0 -0.57228637022E+02 -0.38344626749E+02 -0.77352722067E+02  0.10358026312E+03  0.00000000000E+00 0. -1.
         -3    1    6    6    0  503 -0.66545283749E+02 -0.18800129722E+03 -0.10495393264E+03  0.22536213196E+03  0.00000000000E+00 0.  1.
<mgrwt>
<rscale>  0 0.24774303E+04</rscale>
<asrwt>0</asrwt>
<pdfrwt beam="1">  1        2 0.25733627E+00 0.24774303E+04</pdfrwt>
<pdfrwt beam="2">  1       -1 0.14112865E+00 0.24774303E+04</pdfrwt>
<totfact> 0.42410104E+00</totfact>
</mgrwt>
</event>
<event>
12    6  0.1542110E-007  0.1387565E+04  0.7818608E-02  0.8962869E-01
         -1   -1    0    0    0  501 -0.00000000000E+00  0.00000000000E+00  0.13956625195E+04  0.13956625195E+04  0.00000000000E+00 0.  1.
          2   -1    0    0  501    0  0.00000000000E+00 -0.00000000000E+00 -0.34487850615E+03  0.34487850615E+03  0.00000000000E+00 0. -1.
         24    2    1    2    0    0 -0.82294181893E+02  0.17530058450E+03 -0.12732954651E+03  0.24494648574E+03  0.79267522720E+02 0.  0.
        254    2    1    2    0    0  0.82294181893E+02 -0.17530058450E+03  0.11781135599E+04  0.14955945399E+04  0.90074904419E+03 0.  0.
         23    2    4    4    0    0  0.99924937435E+02 -0.22457077861E+03 -0.46633446676E+02  0.26638082926E+03  0.91471526276E+02 0.  0.
         23    2    4    4    0    0 -0.17630755542E+02  0.49270194110E+02  0.12247470066E+04  0.12292137107E+04  0.90679219562E+02 0.  0.
          2    1    3    3  502    0 -0.29259348054E+02  0.37890109126E+02 -0.74328062927E+02  0.88410580569E+02  0.00000000000E+00 0. -1.
         -1    1    3    3    0  502 -0.53034833839E+02  0.13741047538E+03 -0.53001483585E+02  0.15653590517E+03  0.00000000000E+00 0.  1.
         11    1    5    5    0    0 -0.16552276531E+02 -0.39298728099E+02 -0.15305523140E+02  0.45305925960E+02  0.00000000000E+00 0.  1.
        -11    1    5    5    0    0  0.11647721397E+03 -0.18527205052E+03 -0.31327923535E+02  0.22107490330E+03  0.00000000000E+00 0. -1.
          3    1    6    6  503    0 -0.36048247094E+01  0.69060232969E+02  0.10974256321E+04  0.10996023502E+04  0.00000000000E+00 0. -1.
         -3    1    6    6    0  503 -0.14025930832E+02 -0.19790038859E+02  0.12732137450E+03  0.12961136053E+03  0.00000000000E+00 0.  1.
<mgrwt>
<rscale>  0 0.13875648E+04</rscale>
<asrwt>0</asrwt>
<pdfrwt beam="1">  1        2 0.53058232E-01 0.13875648E+04</pdfrwt>
<pdfrwt beam="2">  1       -1 0.21471731E+00 0.13875648E+04</pdfrwt>
<totfact> 0.12515944E+01</totfact>
</mgrwt>
</event>
<event>
12    6  0.1542110E-007  0.1753062E+04  0.7818608E-02  0.8731667E-01
         -1   -1    0    0    0  501 -0.00000000000E+00  0.00000000000E+00  0.59678525601E+03  0.59678525601E+03  0.00000000000E+00 0.  1.
          2   -1    0    0  501    0  0.00000000000E+00 -0.00000000000E+00 -0.12874081537E+04  0.12874081537E+04  0.00000000000E+00 0. -1.
         24    2    1    2    0    0  0.46094142790E+03 -0.85483018035E+01 -0.74175056716E+03  0.87698989750E+03  0.79858017852E+02 0.  0.
        254    2    1    2    0    0 -0.46094142790E+03  0.85483018035E+01  0.51127669443E+02  0.10072035122E+04  0.89403847964E+03 0.  0.
         23    2    4    4    0    0  0.19802231550E+03  0.35711462789E+02 -0.19753500240E+03  0.29650878862E+03  0.91701900431E+02 0.  0.
         23    2    4    4    0    0 -0.65896374339E+03 -0.27163160986E+02  0.24866267184E+03  0.71069472362E+03  0.91009963164E+02 0.  0.
          2    1    3    3  502    0  0.17843885439E+03 -0.16363898997E+02 -0.35872380681E+03  0.40098749547E+03  0.00000000000E+00 0. -1.
         -1    1    3    3    0  502  0.28250257350E+03  0.78155971930E+01 -0.38302676035E+03  0.47600240203E+03  0.00000000000E+00 0.  1.
         11    1    5    5    0    0  0.13562957508E+03  0.65151624108E+02 -0.15179843883E+03  0.21373554171E+03  0.00000000000E+00 0.  1.
        -11    1    5    5    0    0  0.62392740423E+02 -0.29440161319E+02 -0.45736563574E+02  0.82773246907E+02  0.00000000000E+00 0. -1.
          1    1    6    6  503    0 -0.31575564049E+03 -0.53001322408E+02  0.14304528769E+03  0.35067466262E+03  0.00000000000E+00 0. -1.
         -1    1    6    6    0  503 -0.34320810291E+03  0.25838161422E+02  0.10561738416E+03  0.36002006100E+03  0.00000000000E+00 0.  1.
<mgrwt>
<rscale>  0 0.17530616E+04</rscale>
<asrwt>0</asrwt>
<pdfrwt beam="1">  1        2 0.19806279E+00 0.17530616E+04</pdfrwt>
<pdfrwt beam="2">  1       -1 0.91813117E-01 0.17530616E+04</pdfrwt>
<totfact> 0.20993171E+01</totfact>
</mgrwt>
</event>
<event>
12    6  0.1542110E-007  0.1272371E+04  0.7818608E-02  0.9051767E-01
          2   -1    0    0  501    0  0.00000000000E+00  0.00000000000E+00  0.20419849358E+04  0.20419849358E+04  0.00000000000E+00 0. -1.
         -1   -1    0    0    0  501 -0.00000000000E+00 -0.00000000000E+00 -0.19820518509E+03  0.19820518509E+03  0.00000000000E+00 0.  1.
         24    2    1    2    0    0  0.91333331924E+02  0.15617651977E+03  0.88244633864E+03  0.90437096158E+03  0.80264641742E+02 0.  0.
        254    2    1    2    0    0 -0.91333331924E+02 -0.15617651977E+03  0.96133341206E+03  0.13358191593E+04  0.90968017147E+03 0.  0.
         23    2    4    4    0    0  0.32746577518E+03  0.53555358676E+02  0.11142064473E+03  0.36107644911E+03  0.88654563730E+02 0.  0.
         23    2    4    4    0    0 -0.41879910711E+03 -0.20973187845E+03  0.84991276733E+03  0.97474271019E+03  0.91605054726E+02 0.  0.
          2    1    3    3  502    0  0.77806986122E+02  0.14279380793E+03  0.85859832041E+03  0.87386215989E+03  0.00000000000E+00 0. -1.
         -1    1    3    3    0  502  0.13526345801E+02  0.13382711839E+02  0.23848018229E+02  0.30508801687E+02  0.00000000000E+00 0.  1.
         11    1    5    5    0    0  0.24975885756E+03  0.68073620704E+01  0.60495325012E+02  0.25707102414E+03  0.00000000000E+00 0. -1.
        -11    1    5    5    0    0  0.77706917627E+02  0.46747996606E+02  0.50925319721E+02  0.10400542497E+03  0.00000000000E+00 0.  1.
          2    1    6    6  503    0 -0.20346534918E+03 -0.15098082279E+03  0.47783347214E+03  0.54084950242E+03  0.00000000000E+00 0.  1.
         -2    1    6    6    0  503 -0.21533375793E+03 -0.58751055658E+02  0.37207929519E+03  0.43389320778E+03  0.00000000000E+00 0. -1.
<mgrwt>
<rscale>  0 0.12723710E+04</rscale>
<asrwt>0</asrwt>
<pdfrwt beam="1">  1        2 0.31415151E+00 0.12723710E+04</pdfrwt>
<pdfrwt beam="2">  1       -1 0.30493107E-01 0.12723710E+04</pdfrwt>
<totfact> 0.70305667E+01</totfact>
</mgrwt>
</event>
<event>
12    6  0.1542110E-007  0.2394201E+04  0.7818608E-02  0.8441678E-01
          2   -1    0    0  501    0  0.00000000000E+00  0.00000000000E+00  0.10993207444E+04  0.10993207444E+04  0.00000000000E+00 0. -1.
         -1   -1    0    0    0  501 -0.00000000000E+00 -0.00000000000E+00 -0.13035778025E+04  0.13035778025E+04  0.00000000000E+00 0.  1.
         24    2    1    2    0    0 -0.82900264154E+03  0.52647441526E+03 -0.38144809421E+03  0.10565602090E+04  0.79975852792E+02 0.  0.
        254    2    1    2    0    0  0.82900264154E+03 -0.52647441526E+03  0.17719103613E+03  0.13463383379E+04  0.90377517513E+03 0.  0.
         23    2    4    4    0    0  0.66543818011E+03 -0.36548670887E+03 -0.28998171075E+03  0.81800294888E+03  0.93010353753E+02 0.  0.
         23    2    4    4    0    0  0.16356446143E+03 -0.16098770639E+03  0.46717274688E+03  0.52833538900E+03  0.90650610529E+02 0.  0.
          2    1    3    3  502    0 -0.22344075229E+03  0.12030429007E+03 -0.66865270930E+02  0.26243066979E+03  0.00000000000E+00 0. -1.
         -1    1    3    3    0  502 -0.60556188925E+03  0.40617012519E+03 -0.31458282328E+03  0.79412953919E+03  0.00000000000E+00 0.  1.
         11    1    5    5    0    0  0.56872401153E+03 -0.32795436890E+03 -0.28019800880E+03  0.71380108819E+03  0.00000000000E+00 0.  1.
        -11    1    5    5    0    0  0.96714168580E+02 -0.37532339968E+02 -0.97837019550E+01  0.10420186069E+03  0.00000000000E+00 0. -1.
          2    1    6    6  503    0  0.52538960353E+02 -0.23021331279E+02  0.19791985835E+03  0.20606453936E+03  0.00000000000E+00 0. -1.
         -2    1    6    6    0  503  0.11102550107E+03 -0.13796637511E+03  0.26925288853E+03  0.32227084964E+03  0.00000000000E+00 0.  1.
<mgrwt>
<rscale>  0 0.23942014E+04</rscale>
<asrwt>0</asrwt>
<pdfrwt beam="1">  1        2 0.16912627E+00 0.23942014E+04</pdfrwt>
<pdfrwt beam="2">  1       -1 0.20055043E+00 0.23942014E+04</pdfrwt>
<totfact> 0.33368258E+00</totfact>
</mgrwt>
</event>
<event>
12    6  0.1542110E-007  0.1271072E+04  0.7818608E-02  0.9052825E-01
          2   -1    0    0  501    0  0.00000000000E+00  0.00000000000E+00  0.14955814069E+04  0.14955814069E+04  0.00000000000E+00 0. -1.
         -1   -1    0    0    0  501 -0.00000000000E+00 -0.00000000000E+00 -0.27006616170E+03  0.27006616170E+03  0.00000000000E+00 0.  1.
         24    2    1    2    0    0 -0.20797628610E+03 -0.25143292470E+03  0.35475230277E+03  0.48753838415E+03  0.73292758769E+02 0.  0.
        254    2    1    2    0    0  0.20797628610E+03  0.25143292470E+03  0.87076294246E+03  0.12781091845E+04  0.87684795392E+03 0.  0.
         23    2    4    4    0    0  0.41269933960E+03 -0.19239625725E+02  0.10528518144E+03  0.43592694453E+03  0.90864863577E+02 0.  0.
         23    2    4    4    0    0 -0.20472305350E+03  0.27067255043E+03  0.76547776102E+03  0.84218223995E+03  0.90219534956E+02 0.  0.
          4    1    3    3  502    0 -0.20332825342E+03 -0.22856771376E+03  0.34779122062E+03  0.46318928264E+03  0.00000000000E+00 0. -1.
         -3    1    3    3    0  502 -0.46480326794E+01 -0.22865210945E+02  0.69610821497E+01  0.24349101504E+02  0.00000000000E+00 0.  1.
         11    1    5    5    0    0  0.15188161944E+03  0.35639523247E+02  0.48984837794E+02  0.16351671558E+03  0.00000000000E+00 0. -1.
        -11    1    5    5    0    0  0.26081772016E+03 -0.54879148972E+02  0.56300343645E+02  0.27241022895E+03  0.00000000000E+00 0.  1.
          4    1    6    6  503    0 -0.15007344156E+03  0.21711571430E+03  0.49350060768E+03  0.55964642502E+03  0.00000000000E+00 0.  1.
         -4    1    6    6    0  503 -0.54649611937E+02  0.53556836132E+02  0.27197715334E+03  0.28253581494E+03  0.00000000000E+00 0. -1.
<mgrwt>
<rscale>  0 0.12710719E+04</rscale>
<asrwt>0</asrwt>
<pdfrwt beam="1">  1        2 0.23008944E+00 0.12710719E+04</pdfrwt>
<pdfrwt beam="2">  1       -1 0.41548641E-01 0.12710719E+04</pdfrwt>
<totfact> 0.81121764E+01</totfact>
</mgrwt>
</event>
<event>
12    6  0.1542110E-007  0.4335689E+04  0.7818608E-02  0.7940052E-01
         -1   -1    0    0    0  501 -0.00000000000E+00  0.00000000000E+00  0.15559842187E+04  0.15559842187E+04  0.00000000000E+00 0.  1.
          2   -1    0    0  501    0  0.00000000000E+00 -0.00000000000E+00 -0.30203067998E+04  0.30203067998E+04  0.00000000000E+00 0. -1.
         24    2    1    2    0    0  0.20506310771E+04 -0.20597771122E+03 -0.89561118954E+03  0.22485261898E+04  0.78968295589E+02 0.  0.
        254    2    1    2    0    0 -0.20506310771E+04  0.20597771122E+03 -0.56871139154E+03  0.23277648287E+04  0.92062034472E+03 0.  0.
         23    2    4    4    0    0 -0.14445651279E+04 -0.27699863656E+03 -0.31642763426E+03  0.15074308378E+04  0.93405725696E+02 0.  0.
         23    2    4    4    0    0 -0.60606594917E+03  0.48297634778E+03 -0.25228375728E+03  0.82033399091E+03  0.93373846439E+02 0.  0.
          2    1    3    3  502    0  0.15136663505E+04 -0.15155498285E+03 -0.69861405363E+03  0.16739821771E+04  0.00000000000E+00 0. -1.
         -1    1    3    3    0  502  0.53696472661E+03 -0.54422728368E+02 -0.19699713591E+03  0.57454401271E+03  0.00000000000E+00 0.  1.
         11    1    5    5    0    0 -0.14336940030E+04 -0.26647557971E+03 -0.30922359677E+03  0.14906733249E+04  0.00000000000E+00 0.  1.
        -11    1    5    5    0    0 -0.10871124965E+02 -0.10523056856E+02 -0.72040374928E+01  0.16757512936E+02  0.00000000000E+00 0. -1.
          1    1    6    6  503    0 -0.13604867419E+03  0.11206153687E+03 -0.17208249036E+02  0.17709645290E+03  0.00000000000E+00 0. -1.
         -1    1    6    6    0  503 -0.47001727498E+03  0.37091481091E+03 -0.23507550824E+03  0.64323753801E+03  0.00000000000E+00 0.  1.
<mgrwt>
<rscale>  0 0.43356890E+04</rscale>
<asrwt>0</asrwt>
<pdfrwt beam="1">  1        2 0.46466258E+00 0.43356890E+04</pdfrwt>
<pdfrwt beam="2">  1       -1 0.23938219E+00 0.43356890E+04</pdfrwt>
<totfact> 0.12059941E-01</totfact>
</mgrwt>
</event>
<event>
12    6  0.1542110E-007  0.2252155E+04  0.7818608E-02  0.8497028E-01
          2   -1    0    0  501    0  0.00000000000E+00  0.00000000000E+00  0.22665678399E+04  0.22665678399E+04  0.00000000000E+00 0. -1.
         -1   -1    0    0    0  501 -0.00000000000E+00 -0.00000000000E+00 -0.55945841468E+03  0.55945841468E+03  0.00000000000E+00 0.  1.
         24    2    1    2    0    0  0.85041144272E+03 -0.40814154145E+03  0.78331335513E+03  0.12287832206E+04  0.80927443178E+02 0.  0.
        254    2    1    2    0    0 -0.85041144272E+03  0.40814154145E+03  0.92379607006E+03  0.15972430340E+04  0.89889209073E+03 0.  0.
         23    2    4    4    0    0 -0.57794297680E+03  0.32354929506E+03  0.46357251597E+02  0.67017900964E+03  0.91042184854E+02 0.  0.
         23    2    4    4    0    0 -0.27246846592E+03  0.84592246396E+02  0.87743881846E+03  0.92706402434E+03  0.90299014425E+02 0.  0.
          2    1    3    3  502    0  0.83240809435E+03 -0.38574893462E+03  0.76642517575E+03  0.11954551544E+04  0.00000000000E+00 0. -1.
         -1    1    3    3    0  502  0.18003348363E+02 -0.22392606838E+02  0.16888179385E+02  0.33328066194E+02  0.00000000000E+00 0.  1.
         11    1    5    5    0    0 -0.37907167252E+03  0.21712628634E+03  0.73513994881E+02  0.44299375230E+03  0.00000000000E+00 0.  1.
        -11    1    5    5    0    0 -0.19887130428E+03  0.10642300871E+03 -0.27156743285E+02  0.22718525734E+03  0.00000000000E+00 0. -1.
          4    1    6    6  503    0 -0.21576241150E+03  0.99634621423E+02  0.64676798515E+03  0.68904956470E+03  0.00000000000E+00 0. -1.
         -4    1    6    6    0  503 -0.56706054419E+02 -0.15042375027E+02  0.23067083331E+03  0.23801445964E+03  0.00000000000E+00 0.  1.
<mgrwt>
<rscale>  0 0.22521549E+04</rscale>
<asrwt>0</asrwt>
<pdfrwt beam="1">  1        2 0.34870274E+00 0.22521549E+04</pdfrwt>
<pdfrwt beam="2">  1       -1 0.86070527E-01 0.22521549E+04</pdfrwt>
<totfact> 0.65342432E+00</totfact>
</mgrwt>
</event>
<event>
12    6  0.1542110E-007  0.2648481E+04  0.7818608E-02  0.8351917E-01
          2   -1    0    0  501    0  0.00000000000E+00  0.00000000000E+00  0.24748301908E+04  0.24748301908E+04  0.00000000000E+00 0. -1.
         -1   -1    0    0    0  501 -0.00000000000E+00 -0.00000000000E+00 -0.70857905421E+03  0.70857905421E+03  0.00000000000E+00 0.  1.
         24    2    1    2    0    0 -0.56249431122E+03 -0.20519800850E+03  0.19921083123E+04  0.20816630457E+04  0.79494873271E+02 0.  0.
        254    2    1    2    0    0  0.56249431122E+03  0.20519800850E+03 -0.22585717575E+03  0.11017461993E+04  0.89684287978E+03 0.  0.
         23    2    4    4    0    0  0.76768838811E+03  0.75832513093E+02 -0.29961586595E+03  0.83261829604E+03  0.91583451014E+02 0.  0.
         23    2    4    4    0    0 -0.20519407689E+03  0.12936549540E+03  0.73758690194E+02  0.26912790326E+03  0.90274267334E+02 0.  0.
          2    1    3    3  502    0 -0.55731104924E+03 -0.19865083210E+03  0.19826410895E+04  0.20690392574E+04  0.00000000000E+00 0. -1.
         -1    1    3    3    0  502 -0.51832619738E+01 -0.65471763976E+01  0.94672227853E+01  0.12623788288E+02  0.00000000000E+00 0.  1.
         11    1    5    5    0    0  0.63900256735E+03  0.34549364641E+02 -0.26822414550E+03  0.69387472350E+03  0.00000000000E+00 0. -1.
        -11    1    5    5    0    0  0.12868582075E+03  0.41283148452E+02 -0.31391720443E+02  0.13874357254E+03  0.00000000000E+00 0.  1.
          2    1    6    6  503    0 -0.38801759242E+01  0.36619711387E+02  0.56973964003E+01  0.37262841451E+02  0.00000000000E+00 0.  1.
         -2    1    6    6    0  503 -0.20131390097E+03  0.92745784017E+02  0.68061293794E+02  0.23186506181E+03  0.00000000000E+00 0. -1.
<mgrwt>
<rscale>  0 0.26484810E+04</rscale>
<asrwt>0</asrwt>
<pdfrwt beam="1">  1        2 0.38074310E+00 0.26484810E+04</pdfrwt>
<pdfrwt beam="2">  1       -1 0.10901216E+00 0.26484810E+04</pdfrwt>
<totfact> 0.28111063E+00</totfact>
</mgrwt>
</event>
<event>
12    6  0.1542110E-007  0.1732770E+04  0.7818608E-02  0.8742892E-01
          2   -1    0    0  501    0  0.00000000000E+00  0.00000000000E+00  0.14704914699E+04  0.14704914699E+04  0.00000000000E+00 0. -1.
         -1   -1    0    0    0  501 -0.00000000000E+00 -0.00000000000E+00 -0.51045730837E+03  0.51045730837E+03  0.00000000000E+00 0.  1.
         24    2    1    2    0    0  0.67998716010E+02 -0.62348651223E+03  0.36750859699E+03  0.73448497082E+03  0.10510160410E+03 0.  0.
        254    2    1    2    0    0 -0.67998716010E+02  0.62348651223E+03  0.59252556456E+03  0.12464638075E+04  0.89957002084E+03 0.  0.
         23    2    4    4    0    0 -0.46452535354E+03  0.21640398653E+03  0.29078981702E+03  0.59650731339E+03  0.92993374904E+02 0.  0.
         23    2    4    4    0    0  0.39652663753E+03  0.40708252570E+03  0.30173574754E+03  0.64995649409E+03  0.91920758615E+02 0.  0.
          2    1    3    3  502    0  0.71840729407E+02 -0.46522997835E+03  0.31998742177E+03  0.56920292800E+03  0.00000000000E+00 0. -1.
         -1    1    3    3    0  502 -0.38420133965E+01 -0.15825653388E+03  0.47521175218E+02  0.16528204281E+03  0.00000000000E+00 0.  1.
         11    1    5    5    0    0 -0.36955710794E+03  0.17544813505E+03  0.18638302734E+03  0.44954770270E+03  0.00000000000E+00 0. -1.
        -11    1    5    5    0    0 -0.94968245597E+02  0.40955851481E+02  0.10440678968E+03  0.14695961069E+03  0.00000000000E+00 0.  1.
          4    1    6    6  503    0  0.28730833980E+03  0.29673429611E+03  0.17118092745E+03  0.44710204040E+03  0.00000000000E+00 0.  1.
         -4    1    6    6    0  503  0.10921829773E+03  0.11034822959E+03  0.13055482009E+03  0.20285445369E+03  0.00000000000E+00 0. -1.
<mgrwt>
<rscale>  0 0.17327702E+04</rscale>
<asrwt>0</asrwt>
<pdfrwt beam="1">  1        2 0.22622945E+00 0.17327702E+04</pdfrwt>
<pdfrwt beam="2">  1       -1 0.78531894E-01 0.17327702E+04</pdfrwt>
<totfact> 0.23150715E+01</totfact>
</mgrwt>
</event>
<event>
12    6  0.1542110E-007  0.1703355E+04  0.7818608E-02  0.8759453E-01
         -1   -1    0    0    0  501 -0.00000000000E+00  0.00000000000E+00  0.90049740796E+03  0.90049740796E+03  0.00000000000E+00 0.  1.
          2   -1    0    0  501    0  0.00000000000E+00 -0.00000000000E+00 -0.80550474182E+03  0.80550474182E+03  0.00000000000E+00 0. -1.
         24    2    1    2    0    0 -0.16754256854E+03 -0.61065647641E+03  0.57382153888E+02  0.64071963909E+03  0.79101832287E+02 0.  0.
        254    2    1    2    0    0  0.16754256854E+03  0.61065647641E+03  0.37610512251E+02  0.10652825107E+04  0.85582733803E+03 0.  0.
         23    2    4    4    0    0 -0.69199148926E+02  0.27174269042E+03  0.40749539791E+03  0.50324656363E+03  0.92585055389E+02 0.  0.
         23    2    4    4    0    0  0.23674171747E+03  0.33891378599E+03 -0.36988488565E+03  0.56203594707E+03  0.90334832930E+02 0.  0.
          4    1    3    3  502    0 -0.96352011345E+02 -0.38624923761E+03 -0.12993596290E+01  0.39808776920E+03  0.00000000000E+00 0. -1.
         -3    1    3    3    0  502 -0.71190557199E+02 -0.22440723879E+03  0.58681513517E+02  0.24263186989E+03  0.00000000000E+00 0.  1.
         11    1    5    5    0    0 -0.12087582155E+02  0.17297896972E+03  0.29992365332E+03  0.34644195968E+03  0.00000000000E+00 0.  1.
        -11    1    5    5    0    0 -0.57111566771E+02  0.98763720699E+02  0.10757174458E+03  0.15680460394E+03  0.00000000000E+00 0. -1.
          2    1    6    6  503    0  0.41565705377E+02  0.51638097974E+02 -0.20468291757E+02  0.69376883710E+02  0.00000000000E+00 0. -1.
         -2    1    6    6    0  503  0.19517601209E+03  0.28727568802E+03 -0.34941659390E+03  0.49265906336E+03  0.00000000000E+00 0.  1.
<mgrwt>
<rscale>  0 0.17033554E+04</rscale>
<asrwt>0</asrwt>
<pdfrwt beam="1">  1        2 0.12392381E+00 0.17033554E+04</pdfrwt>
<pdfrwt beam="2">  1       -1 0.13853806E+00 0.17033554E+04</pdfrwt>
<totfact> 0.15971125E+01</totfact>
</mgrwt>
</event>
<event>
12    6  0.1542110E-007  0.1552992E+04  0.7818608E-02  0.8849959E-01
         -1   -1    0    0    0  501 -0.00000000000E+00  0.00000000000E+00  0.31054441872E+03  0.31054441872E+03  0.00000000000E+00 0.  1.
          2   -1    0    0  501    0  0.00000000000E+00 -0.00000000000E+00 -0.19415776269E+04  0.19415776269E+04  0.00000000000E+00 0. -1.
         24    2    1    2    0    0  0.80070168099E+02 -0.49957950194E+03 -0.44027772555E+03  0.67652746223E+03  0.88622914409E+02 0.  0.
        254    2    1    2    0    0 -0.80070168099E+02  0.49957950194E+03 -0.11907554826E+04  0.15755945834E+04  0.89922675741E+03 0.  0.
         23    2    4    4    0    0  0.32234090616E+02  0.26575671353E+03  0.65389984634E+02  0.28982242896E+03  0.89752564614E+02 0.  0.
         23    2    4    4    0    0 -0.11230425871E+03  0.23382278841E+03 -0.12561454673E+04  0.12857721544E+04  0.89572625758E+02 0.  0.
          4    1    3    3  502    0  0.28202013754E+02 -0.28407428005E+03 -0.30048179072E+03  0.41446695492E+03  0.00000000000E+00 0. -1.
         -3    1    3    3    0  502  0.51868154345E+02 -0.21550522189E+03 -0.13979593483E+03  0.26206050732E+03  0.00000000000E+00 0.  1.
         11    1    5    5    0    0  0.43916570231E+02  0.20340712278E+03  0.82925988009E+02  0.22400857623E+03  0.00000000000E+00 0. -1.
        -11    1    5    5    0    0 -0.11682479616E+02  0.62349590752E+02 -0.17536003375E+02  0.65813852731E+02  0.00000000000E+00 0.  1.
          2    1    6    6  503    0  0.40182236767E+01  0.35132084990E+02 -0.82532868166E+02  0.89789107607E+02  0.00000000000E+00 0.  1.
         -2    1    6    6    0  503 -0.11632248239E+03  0.19869070342E+03 -0.11736125991E+04  0.11959830468E+04  0.00000000000E+00 0. -1.
<mgrwt>
<rscale>  0 0.15529921E+04</rscale>
<asrwt>0</asrwt>
<pdfrwt beam="1">  1        2 0.29870425E+00 0.15529921E+04</pdfrwt>
<pdfrwt beam="2">  1       -1 0.47776064E-01 0.15529921E+04</pdfrwt>
<totfact> 0.34545903E+01</totfact>
</mgrwt>
</event>
<event>
12    6  0.1542110E-007  0.1453101E+04  0.7818608E-02  0.8916253E-01
         -1   -1    0    0    0  501 -0.00000000000E+00  0.00000000000E+00  0.36164148412E+03  0.36164148412E+03  0.00000000000E+00 0.  1.
          2   -1    0    0  501    0  0.00000000000E+00 -0.00000000000E+00 -0.14596665775E+04  0.14596665775E+04  0.00000000000E+00 0. -1.
         24    2    1    2    0    0 -0.99185403030E+02 -0.41618182208E+03 -0.20703566450E+03  0.48185556082E+03  0.79220968923E+02 0.  0.
        254    2    1    2    0    0  0.99185403030E+02  0.41618182208E+03 -0.89098942889E+03  0.13394525008E+04  0.90400541277E+03 0.  0.
         23    2    4    4    0    0  0.12591188911E+02 -0.22410748961E+03 -0.55506149754E+03  0.60555278158E+03  0.90654290003E+02 0.  0.
         23    2    4    4    0    0  0.86594214120E+02  0.64028931168E+03 -0.33592793136E+03  0.73389971923E+03  0.91061859409E+02 0.  0.
          4    1    3    3  502    0 -0.80917432919E+01 -0.47615284921E+01 -0.17389328891E+02  0.19762014633E+02  0.00000000000E+00 0. -1.
         -3    1    3    3    0  502 -0.91093659739E+02 -0.41142029359E+03 -0.18964633561E+03  0.46209354619E+03  0.00000000000E+00 0.  1.
         11    1    5    5    0    0  0.36736986152E+02 -0.67571757616E+02 -0.25372682366E+03  0.26512798725E+03  0.00000000000E+00 0. -1.
        -11    1    5    5    0    0 -0.24145797241E+02 -0.15653573199E+03 -0.30133467388E+03  0.34042479433E+03  0.00000000000E+00 0.  1.
          3    1    6    6  503    0 -0.14688431651E+02  0.19589233450E+03 -0.91563024207E+02  0.21673334801E+03  0.00000000000E+00 0. -1.
         -3    1    6    6    0  503  0.10128264577E+03  0.44439697719E+03 -0.24436490715E+03  0.51716637121E+03  0.00000000000E+00 0.  1.
<mgrwt>
<rscale>  0 0.14531015E+04</rscale>
<asrwt>0</asrwt>
<pdfrwt beam="1">  1        2 0.22456409E+00 0.14531015E+04</pdfrwt>
<pdfrwt beam="2">  1       -1 0.55637151E-01 0.14531015E+04</pdfrwt>
<totfact> 0.48292626E+01</totfact>
</mgrwt>
</event>
<event>
12    6  0.1542110E-007  0.1149714E+04  0.7818608E-02  0.9158047E-01
         -1   -1    0    0    0  501 -0.00000000000E+00  0.00000000000E+00  0.50722640357E+03  0.50722640357E+03  0.00000000000E+00 0.  1.
          2   -1    0    0  501    0  0.00000000000E+00 -0.00000000000E+00 -0.65150510596E+03  0.65150510596E+03  0.00000000000E+00 0. -1.
         24    2    1    2    0    0  0.35525124757E+02 -0.14715955179E+03  0.11326536707E+03  0.20524551287E+03  0.79866820417E+02 0.  0.
        254    2    1    2    0    0 -0.35525124757E+02  0.14715955179E+03 -0.25754406947E+03  0.95348599666E+03  0.90547701790E+03 0.  0.
         23    2    4    4    0    0  0.37592796125E+03 -0.13692949517E+03 -0.13635171522E+03  0.43128269199E+03  0.85682270445E+02 0.  0.
         23    2    4    4    0    0 -0.41145308601E+03  0.28408904696E+03 -0.12119235424E+03  0.52220330467E+03  0.89490089363E+02 0.  0.
          4    1    3    3  502    0 -0.11683305349E+02 -0.69260407589E+02  0.84163629285E+02  0.10962217010E+03  0.00000000000E+00 0. -1.
         -3    1    3    3    0  502  0.47208430106E+02 -0.77899144197E+02  0.29101737788E+02  0.95623342768E+02  0.00000000000E+00 0.  1.
         11    1    5    5    0    0  0.28409530275E+03 -0.11419079260E+03 -0.65567720942E+02  0.31312745677E+03  0.00000000000E+00 0. -1.
        -11    1    5    5    0    0  0.91832658506E+02 -0.22738702576E+02 -0.70783994281E+02  0.11815523522E+03  0.00000000000E+00 0.  1.
          3    1    6    6  503    0 -0.35014925790E+03  0.27227027893E+03 -0.90721881825E+02  0.45273178311E+03  0.00000000000E+00 0. -1.
         -3    1    6    6    0  503 -0.61303828108E+02  0.11818768028E+02 -0.30470472418E+02  0.69471521559E+02  0.00000000000E+00 0.  1.
<mgrwt>
<rscale>  0 0.11497140E+04</rscale>
<asrwt>0</asrwt>
<pdfrwt beam="1">  1        2 0.10023155E+00 0.11497140E+04</pdfrwt>
<pdfrwt beam="2">  1       -1 0.78034832E-01 0.11497140E+04</pdfrwt>
<totfact> 0.83426954E+01</totfact>
</mgrwt>
</event>
<event>
12    6  0.1542110E-007  0.1362892E+04  0.7818608E-02  0.8981126E-01
          2   -1    0    0  501    0  0.00000000000E+00  0.00000000000E+00  0.14453266336E+04  0.14453266336E+04  0.00000000000E+00 0. -1.
         -1   -1    0    0    0  501 -0.00000000000E+00 -0.00000000000E+00 -0.32128996587E+03  0.32128996587E+03  0.00000000000E+00 0.  1.
         24    2    1    2    0    0 -0.56086368337E+02 -0.12551275113E+03 -0.13940172372E+03  0.21157887702E+03  0.80210031887E+02 0.  0.
        254    2    1    2    0    0  0.56086368337E+02  0.12551275113E+03  0.12634383914E+04  0.15550377224E+04  0.89608404617E+03 0.  0.
         23    2    4    4    0    0 -0.43381141040E+02  0.49600676797E+03  0.79871581945E+03  0.94552766525E+03  0.90393408171E+02 0.  0.
         23    2    4    4    0    0  0.99467509376E+02 -0.37049401684E+03  0.46472257198E+03  0.60951005717E+03  0.91519609658E+02 0.  0.
          2    1    3    3  502    0  0.52580349901E+01  0.92704780571E+01 -0.58095523039E+01  0.12138352167E+02  0.00000000000E+00 0. -1.
         -1    1    3    3    0  502 -0.61344403327E+02 -0.13478322919E+03 -0.13359217142E+03  0.19944052486E+03  0.00000000000E+00 0.  1.
         11    1    5    5    0    0  0.16838720527E+02  0.23333973194E+02  0.34410160821E+02  0.44856169940E+02  0.00000000000E+00 0. -1.
        -11    1    5    5    0    0 -0.60219861567E+02  0.47267279478E+03  0.76430565863E+03  0.90067149531E+03  0.00000000000E+00 0.  1.
          2    1    6    6  503    0  0.54139672055E+02 -0.62487574328E+02  0.10863137931E+03  0.13651585112E+03  0.00000000000E+00 0. -1.
         -2    1    6    6    0  503  0.45327837322E+02 -0.30800644251E+03  0.35609119267E+03  0.47299420605E+03  0.00000000000E+00 0.  1.
<mgrwt>
<rscale>  0 0.13628924E+04</rscale>
<asrwt>0</asrwt>
<pdfrwt beam="1">  1        2 0.22235794E+00 0.13628924E+04</pdfrwt>
<pdfrwt beam="2">  1       -1 0.49429227E-01 0.13628924E+04</pdfrwt>
<totfact> 0.62191331E+01</totfact>
</mgrwt>
</event>
<event>
12    6  0.1542110E-007  0.1608323E+04  0.7818608E-02  0.8815451E-01
          2   -1    0    0  501    0  0.00000000000E+00  0.00000000000E+00  0.59567936353E+03  0.59567936353E+03  0.00000000000E+00 0. -1.
         -1   -1    0    0    0  501 -0.00000000000E+00 -0.00000000000E+00 -0.10856110501E+04  0.10856110501E+04  0.00000000000E+00 0.  1.
         24    2    1    2    0    0  0.54739198291E+03  0.66122664115E+02 -0.19480585308E+03  0.58979280795E+03  0.76785716418E+02 0.  0.
        254    2    1    2    0    0 -0.54739198291E+03 -0.66122664115E+02 -0.29512583351E+03  0.10914976057E+04  0.89457116875E+03 0.  0.
         23    2    4    4    0    0 -0.32265881417E+03 -0.42664187318E+03  0.34908101261E+02  0.54436943360E+03  0.94802459804E+02 0.  0.
         23    2    4    4    0    0 -0.22473316874E+03  0.36051920907E+03 -0.33003393477E+03  0.54712817209E+03  0.99738364552E+02 0.  0.
          2    1    3    3  502    0  0.52506872790E+03  0.56464142240E+02 -0.16935144620E+03  0.55458568382E+03  0.00000000000E+00 0. -1.
         -1    1    3    3    0  502  0.22323255016E+02  0.96585218757E+01 -0.25454406880E+02  0.35207124122E+02  0.00000000000E+00 0.  1.
         11    1    5    5    0    0 -0.53856551629E+02 -0.13184364860E+03  0.29184999570E+02  0.14537895318E+03  0.00000000000E+00 0.  1.
        -11    1    5    5    0    0 -0.26880226255E+03 -0.29479822458E+03  0.57231016909E+01  0.39899048041E+03  0.00000000000E+00 0. -1.
          3    1    6    6  503    0 -0.67145076750E+02  0.19896723200E+03 -0.17461818397E+03  0.27310791075E+03  0.00000000000E+00 0. -1.
         -3    1    6    6    0  503 -0.15758809199E+03  0.16155197706E+03 -0.15541575080E+03  0.27402026134E+03  0.00000000000E+00 0.  1.
<mgrwt>
<rscale>  0 0.16083235E+04</rscale>
<asrwt>0</asrwt>
<pdfrwt beam="1">  1        2 0.91642980E-01 0.16083235E+04</pdfrwt>
<pdfrwt beam="2">  1       -1 0.16701708E+00 0.16083235E+04</pdfrwt>
<totfact> 0.14181211E+01</totfact>
</mgrwt>
</event>
<event>
12    6  0.1542110E-007  0.1638655E+04  0.7818608E-02  0.8797147E-01
         -3   -1    0    0    0  501 -0.00000000000E+00  0.00000000000E+00  0.15909268956E+03  0.15909268956E+03  0.00000000000E+00 0.  1.
          2   -1    0    0  501    0  0.00000000000E+00 -0.00000000000E+00 -0.42195362333E+04  0.42195362333E+04  0.00000000000E+00 0. -1.
         24    2    1    2    0    0  0.25015884345E+03 -0.94080131649E+02 -0.84652035238E+02  0.29164531045E+03  0.80377247453E+02 0.  0.
        254    2    1    2    0    0 -0.25015884345E+03  0.94080131649E+02 -0.39757915085E+04  0.40869836124E+04  0.90834267265E+03 0.  0.
         23    2    4    4    0    0 -0.53890404186E+03  0.24326614333E+03 -0.22343055459E+04  0.23129690310E+04  0.90047114676E+02 0.  0.
         23    2    4    4    0    0  0.28874519841E+03 -0.14918601168E+03 -0.17414859626E+04  0.17740145814E+04  0.93403006606E+02 0.  0.
          4    1    3    3  502    0  0.14559238778E+03 -0.82543693709E+02 -0.82093276797E+02  0.18641327969E+03  0.00000000000E+00 0. -1.
         -3    1    3    3    0  502  0.10456645567E+03 -0.11536437940E+02 -0.25587584406E+01  0.10523203075E+03  0.00000000000E+00 0.  1.
         11    1    5    5    0    0 -0.42071590869E+03  0.18851338824E+03 -0.15829663097E+04  0.16487333050E+04  0.00000000000E+00 0.  1.
        -11    1    5    5    0    0 -0.11818813317E+03  0.54752755089E+02 -0.65133923620E+03  0.66423572595E+03  0.00000000000E+00 0. -1.
          1    1    6    6  503    0  0.84317468194E+02 -0.45266706844E+02 -0.31512090348E+03  0.32933219400E+03  0.00000000000E+00 0. -1.
         -1    1    6    6    0  503  0.20442773021E+03 -0.10391930483E+03 -0.14263650591E+04  0.14446823874E+04  0.00000000000E+00 0.  1.
<mgrwt>
<rscale>  0 0.16386548E+04</rscale>
<asrwt>0</asrwt>
<pdfrwt beam="1">  1        2 0.64915939E+00 0.16386548E+04</pdfrwt>
<pdfrwt beam="2">  1       -3 0.24475799E-01 0.16386548E+04</pdfrwt>
<totfact> 0.22720322E+00</totfact>
</mgrwt>
</event>
<event>
12    6  0.1542110E-007  0.1646503E+04  0.7818608E-02  0.8792478E-01
         -1   -1    0    0    0  501 -0.00000000000E+00  0.00000000000E+00  0.48263972504E+03  0.48263972504E+03  0.00000000000E+00 0.  1.
          2   -1    0    0  501    0  0.00000000000E+00 -0.00000000000E+00 -0.14042417950E+04  0.14042417950E+04  0.00000000000E+00 0. -1.
         24    2    1    2    0    0  0.31950288826E+03  0.46893724474E+03 -0.25520509250E+03  0.62732080420E+03  0.80109406637E+02 0.  0.
        254    2    1    2    0    0 -0.31950288826E+03 -0.46893724474E+03 -0.66639697749E+03  0.12595607159E+04  0.90577261508E+03 0.  0.
         23    2    4    4    0    0 -0.19507223214E+03  0.23501998949E+03 -0.34670731578E+03  0.47088713286E+03  0.90780823214E+02 0.  0.
         23    2    4    4    0    0 -0.12443065611E+03 -0.70395723423E+03 -0.31968966170E+03  0.78867358300E+03  0.93625663799E+02 0.  0.
          4    1    3    3  502    0  0.62684931814E+01  0.46499226017E+02 -0.26027013523E+02  0.53655171790E+02  0.00000000000E+00 0. -1.
         -3    1    3    3    0  502  0.31323439508E+03  0.42243801873E+03 -0.22917807897E+03  0.57366563241E+03  0.00000000000E+00 0.  1.
         11    1    5    5    0    0 -0.22654410907E+02  0.91407659371E+02 -0.10699963770E+03  0.14253948573E+03  0.00000000000E+00 0. -1.
        -11    1    5    5    0    0 -0.17241782124E+03  0.14361233012E+03 -0.23970767808E+03  0.32834764713E+03  0.00000000000E+00 0.  1.
          2    1    6    6  503    0 -0.23967233900E+02 -0.89063681720E+02 -0.76567212073E+02  0.11987203872E+03  0.00000000000E+00 0. -1.
         -2    1    6    6    0  503 -0.10046342221E+03 -0.61489355251E+03 -0.24312244963E+03  0.66880154428E+03  0.00000000000E+00 0.  1.
<mgrwt>
<rscale>  0 0.16465028E+04</rscale>
<asrwt>0</asrwt>
<pdfrwt beam="1">  1        2 0.21603720E+00 0.16465028E+04</pdfrwt>
<pdfrwt beam="2">  1       -1 0.74252267E-01 0.16465028E+04</pdfrwt>
<totfact> 0.28612090E+01</totfact>
</mgrwt>
</event>
<event>
12    6  0.1542110E-007  0.2088466E+04  0.7818608E-02  0.8566341E-01
          2   -1    0    0  501    0  0.00000000000E+00  0.00000000000E+00  0.18243531836E+04  0.18243531836E+04  0.00000000000E+00 0. -1.
         -1   -1    0    0    0  501 -0.00000000000E+00 -0.00000000000E+00 -0.59770391864E+03  0.59770391864E+03  0.00000000000E+00 0.  1.
         24    2    1    2    0    0  0.54252577754E+03  0.56282455835E+03  0.88501781983E+03  0.11835681498E+04  0.80444521901E+02 0.  0.
        254    2    1    2    0    0 -0.54252577754E+03 -0.56282455835E+03  0.34163144513E+03  0.12384889524E+04  0.89779571071E+03 0.  0.
         23    2    4    4    0    0  0.94235830687E+02  0.17034891075E+03  0.73226098707E+02  0.22677383086E+03  0.90361306152E+02 0.  0.
         23    2    4    4    0    0 -0.63676160823E+03 -0.73317346911E+03  0.26840534642E+03  0.10117151216E+04  0.92289629321E+02 0.  0.
          2    1    3    3  502    0  0.28919875140E+03  0.26330189738E+03  0.39497625031E+03  0.55585074011E+03  0.00000000000E+00 0. -1.
         -1    1    3    3    0  502  0.25332702614E+03  0.29952266097E+03  0.49004156952E+03  0.62771740972E+03  0.00000000000E+00 0.  1.
         11    1    5    5    0    0  0.10519469338E+03  0.17311989013E+03  0.73418173599E+02  0.21546843873E+03  0.00000000000E+00 0. -1.
        -11    1    5    5    0    0 -0.10958862696E+02 -0.27709793785E+01 -0.19207489166E+00  0.11305392124E+02  0.00000000000E+00 0.  1.
          3    1    6    6  503    0 -0.52855621105E+03 -0.63040522439E+03  0.25776823033E+03  0.86210606989E+03  0.00000000000E+00 0. -1.
         -3    1    6    6    0  503 -0.10820539718E+03 -0.10276824472E+03  0.10637116092E+02  0.14960905167E+03  0.00000000000E+00 0.  1.
<mgrwt>
<rscale>  0 0.20884665E+04</rscale>
<asrwt>0</asrwt>
<pdfrwt beam="1">  1        2 0.28066972E+00 0.20884665E+04</pdfrwt>
<pdfrwt beam="2">  1       -1 0.91954450E-01 0.20884665E+04</pdfrwt>
<totfact> 0.10117619E+01</totfact>
</mgrwt>
</event>
<event>
12    6  0.1542110E-007  0.2030182E+04  0.7818608E-02  0.8592638E-01
          2   -1    0    0  501    0  0.00000000000E+00  0.00000000000E+00  0.12748109580E+04  0.12748109580E+04  0.00000000000E+00 0. -1.
         -1   -1    0    0    0  501 -0.00000000000E+00 -0.00000000000E+00 -0.80828455184E+03  0.80828455184E+03  0.00000000000E+00 0.  1.
         24    2    1    2    0    0  0.31213208051E+03  0.60376708907E+03  0.64105747381E+03  0.93776956457E+03  0.80597382079E+02 0.  0.
        254    2    1    2    0    0 -0.31213208051E+03 -0.60376708907E+03 -0.17453106768E+03  0.11453259452E+04  0.90517915006E+03 0.  0.
         23    2    4    4    0    0 -0.33281389463E+03  0.12292103035E+03  0.67893742128E+02  0.37278831508E+03  0.92124369611E+02 0.  0.
         23    2    4    4    0    0  0.20681814122E+02 -0.72668811942E+03 -0.24242480981E+03  0.77253763015E+03  0.97679277505E+02 0.  0.
          4    1    3    3  502    0  0.25682966368E+03  0.55040584746E+03  0.56152782103E+03  0.82717686552E+03  0.00000000000E+00 0. -1.
         -3    1    3    3    0  502  0.55302416830E+02  0.53361241602E+02  0.79529652779E+02  0.11059269905E+03  0.00000000000E+00 0.  1.
         11    1    5    5    0    0 -0.43481605543E+02  0.53615654163E+02  0.13584901428E+02  0.70355084669E+02  0.00000000000E+00 0. -1.
        -11    1    5    5    0    0 -0.28933228909E+03  0.69305376189E+02  0.54308840699E+02  0.30243323041E+03  0.00000000000E+00 0.  1.
          3    1    6    6  503    0 -0.14408379157E+02 -0.61474991948E+03 -0.18649255288E+03  0.64257648352E+03  0.00000000000E+00 0.  1.
         -3    1    6    6    0  503  0.35090193279E+02 -0.11193819994E+03 -0.55932256928E+02  0.12996114664E+03  0.00000000000E+00 0. -1.
<mgrwt>
<rscale>  0 0.20301823E+04</rscale>
<asrwt>0</asrwt>
<pdfrwt beam="1">  1        2 0.19612476E+00 0.20301823E+04</pdfrwt>
<pdfrwt beam="2">  1       -1 0.12435147E+00 0.20301823E+04</pdfrwt>
<totfact> 0.10244258E+01</totfact>
</mgrwt>
</event>
<event>
12    6  0.1542110E-007  0.1393550E+04  0.7818608E-02  0.8958501E-01
          2   -1    0    0  501    0  0.00000000000E+00  0.00000000000E+00  0.12165222537E+04  0.12165222537E+04  0.00000000000E+00 0. -1.
         -1   -1    0    0    0  501 -0.00000000000E+00 -0.00000000000E+00 -0.39908460595E+03  0.39908460595E+03  0.00000000000E+00 0.  1.
         24    2    1    2    0    0 -0.11503302867E+03  0.13715760629E+03 -0.17398164806E+03  0.26225028216E+03  0.80379039463E+02 0.  0.
        254    2    1    2    0    0  0.11503302867E+03 -0.13715760629E+03  0.99141929579E+03  0.13533565775E+04  0.90366863345E+03 0.  0.
         23    2    4    4    0    0  0.50197370789E+03 -0.10436609321E+03  0.51865782531E+03  0.73491961444E+03  0.90724942071E+02 0.  0.
         23    2    4    4    0    0 -0.38694067922E+03 -0.32791513079E+02  0.47276147048E+03  0.61843696303E+03  0.90346536821E+02 0.  0.
          4    1    3    3  502    0  0.10284668764E+02 -0.14548167852E+00 -0.78594214709E+01  0.12944731839E+02  0.00000000000E+00 0. -1.
         -3    1    3    3    0  502 -0.12531769743E+03  0.13730308797E+03 -0.16612222659E+03  0.24930555032E+03  0.00000000000E+00 0.  1.
         11    1    5    5    0    0  0.48642089230E+03 -0.88168416033E+02  0.47371293613E+03  0.68467722315E+03  0.00000000000E+00 0. -1.
        -11    1    5    5    0    0  0.15552815589E+02 -0.16197677177E+02  0.44944889187E+02  0.50242391292E+02  0.00000000000E+00 0.  1.
          3    1    6    6  503    0 -0.27671787059E+03  0.14148890320E+02  0.35630482017E+03  0.45136027281E+03  0.00000000000E+00 0. -1.
         -3    1    6    6    0  503 -0.11022280863E+03 -0.46940403399E+02  0.11645665031E+03  0.16707669022E+03  0.00000000000E+00 0.  1.
<mgrwt>
<rscale>  0 0.13935499E+04</rscale>
<asrwt>0</asrwt>
<pdfrwt beam="1">  1        2 0.18715727E+00 0.13935499E+04</pdfrwt>
<pdfrwt beam="2">  1       -1 0.61397632E-01 0.13935499E+04</pdfrwt>
<totfact> 0.55306458E+01</totfact>
</mgrwt>
</event>
<event>
12    6  0.1542110E-007  0.3729764E+04  0.7818608E-02  0.8061398E-01
         -1   -1    0    0    0  501 -0.00000000000E+00  0.00000000000E+00  0.80995708568E+03  0.80995708568E+03  0.00000000000E+00 0.  1.
          2   -1    0    0  501    0  0.00000000000E+00 -0.00000000000E+00 -0.42937884913E+04  0.42937884913E+04  0.00000000000E+00 0. -1.
         24    2    1    2    0    0 -0.84022019262E+03 -0.60317052351E+03  0.30433206234E+03  0.10805493689E+04  0.72001958199E+02 0.  0.
        254    2    1    2    0    0  0.84022019262E+03  0.60317052351E+03 -0.37881634680E+04  0.40231962081E+04  0.87529458820E+03 0.  0.
         23    2    4    4    0    0  0.43689352878E+03  0.77816034568E+03 -0.27509222818E+04  0.28932171220E+04  0.81990460429E+02 0.  0.
         23    2    4    4    0    0  0.40332666384E+03 -0.17498982216E+03 -0.10372411862E+04  0.11299790861E+04  0.87690484166E+02 0.  0.
          4    1    3    3  502    0 -0.30199981184E+03 -0.25845766393E+03  0.12602768977E+03  0.41699787647E+03  0.00000000000E+00 0. -1.
         -3    1    3    3    0  502 -0.53822038078E+03 -0.34471285958E+03  0.17830437257E+03  0.66355149245E+03  0.00000000000E+00 0.  1.
         11    1    5    5    0    0  0.78326032781E+02  0.97019591562E+02 -0.32494947872E+03  0.34805162301E+03  0.00000000000E+00 0. -1.
        -11    1    5    5    0    0  0.35856749600E+03  0.68114075412E+03 -0.24259728031E+04  0.25451654990E+04  0.00000000000E+00 0.  1.
          1    1    6    6  503    0  0.13839144966E+03 -0.21164700212E+02 -0.37598886356E+03  0.40120788053E+03  0.00000000000E+00 0. -1.
         -1    1    6    6    0  503  0.26493521418E+03 -0.15382512195E+03 -0.66125232264E+03  0.72877120556E+03  0.00000000000E+00 0.  1.
<mgrwt>
<rscale>  0 0.37297638E+04</rscale>
<asrwt>0</asrwt>
<pdfrwt beam="1">  1        2 0.66058285E+00 0.37297638E+04</pdfrwt>
<pdfrwt beam="2">  1       -1 0.12460878E+00 0.37297638E+04</pdfrwt>
<totfact> 0.98680958E-02</totfact>
</mgrwt>
</event>
<event>
12    6  0.1542110E-007  0.1989927E+04  0.7818608E-02  0.8611345E-01
          2   -1    0    0  501    0  0.00000000000E+00  0.00000000000E+00  0.46687096404E+04  0.46687096404E+04  0.00000000000E+00 0. -1.
         -1   -1    0    0    0  501 -0.00000000000E+00 -0.00000000000E+00 -0.21203981284E+03  0.21203981284E+03  0.00000000000E+00 0.  1.
         24    2    1    2    0    0  0.43524982825E+03  0.63246406691E+03  0.22410333618E+04  0.23704044259E+04  0.84459486607E+02 0.  0.
        254    2    1    2    0    0 -0.43524982825E+03 -0.63246406691E+03  0.22156364657E+04  0.25103450273E+04  0.89628901519E+03 0.  0.
         23    2    4    4    0    0 -0.47369015886E+03  0.47852450325E+02  0.10575583350E+04  0.11636938860E+04  0.95297453960E+02 0.  0.
         23    2    4    4    0    0  0.38440330609E+02 -0.68031651723E+03  0.11580781307E+04  0.13466511413E+04  0.89532769600E+02 0.  0.
          4    1    3    3  502    0  0.38341342949E+03  0.50237598293E+03  0.18626155531E+04  0.19669072639E+04  0.00000000000E+00 0. -1.
         -3    1    3    3    0  502  0.51836398760E+02  0.13008808397E+03  0.37841780870E+03  0.40349716203E+03  0.00000000000E+00 0.  1.
         11    1    5    5    0    0 -0.18350920755E+02  0.11484084678E+02  0.17820886246E+02  0.28039694720E+02  0.00000000000E+00 0.  1.
        -11    1    5    5    0    0 -0.45533923811E+03  0.36368365647E+02  0.10397374488E+04  0.11356541913E+04  0.00000000000E+00 0. -1.
          3    1    6    6  503    0  0.47992752796E+02 -0.60808561252E+03  0.10762424564E+04  0.12370809356E+04  0.00000000000E+00 0. -1.
         -3    1    6    6    0  503 -0.95524221869E+01 -0.72230904706E+02  0.81835674365E+02  0.10957020564E+03  0.00000000000E+00 0.  1.
<mgrwt>
<rscale>  0 0.19899270E+04</rscale>
<asrwt>0</asrwt>
<pdfrwt beam="1">  1        2 0.71826295E+00 0.19899270E+04</pdfrwt>
<pdfrwt beam="2">  1       -1 0.32621513E-01 0.19899270E+04</pdfrwt>
<totfact> 0.78697764E-01</totfact>
</mgrwt>
</event>
<event>
12    6  0.1542110E-007  0.1592706E+04  0.7818608E-02  0.8825041E-01
         -1   -1    0    0    0  501 -0.00000000000E+00  0.00000000000E+00  0.24550748440E+03  0.24550748440E+03  0.00000000000E+00 0.  1.
          2   -1    0    0  501    0  0.00000000000E+00 -0.00000000000E+00 -0.25831323124E+04  0.25831323124E+04  0.00000000000E+00 0. -1.
         24    2    1    2    0    0 -0.47615114907E+03  0.32883044104E+02 -0.10512458220E+04  0.11570937244E+04  0.77116129400E+02 0.  0.
        254    2    1    2    0    0  0.47615114907E+03 -0.32883044104E+02 -0.12863790060E+04  0.16715460724E+04  0.95472200863E+03 0.  0.
         23    2    4    4    0    0  0.39149403653E+03  0.19230638676E+03 -0.99086283798E+02  0.45657035338E+03  0.91591860521E+02 0.  0.
         23    2    4    4    0    0  0.84657112540E+02 -0.22518943087E+03 -0.11872927222E+04  0.12149757190E+04  0.92870249110E+02 0.  0.
          4    1    3    3  502    0 -0.43473916902E+03  0.74679764226E+01 -0.93899114774E+03  0.10347745123E+04  0.00000000000E+00 0. -1.
         -3    1    3    3    0  502 -0.41411980059E+02  0.25415067681E+02 -0.11225467430E+03  0.12231921215E+03  0.00000000000E+00 0.  1.
         11    1    5    5    0    0  0.28530620986E+03  0.11836299744E+03 -0.31224410878E+02  0.31045836498E+03  0.00000000000E+00 0. -1.
        -11    1    5    5    0    0  0.10618782667E+03  0.73943389325E+02 -0.67861872920E+02  0.14611198840E+03  0.00000000000E+00 0.  1.
          3    1    6    6  503    0  0.91145347959E+02 -0.11671709389E+03 -0.74000836739E+03  0.75468055379E+03  0.00000000000E+00 0. -1.
         -3    1    6    6    0  503 -0.64882354183E+01 -0.10847233697E+03 -0.44728435481E+03  0.46029516524E+03  0.00000000000E+00 0.  1.
<mgrwt>
<rscale>  0 0.15927063E+04</rscale>
<asrwt>0</asrwt>
<pdfrwt beam="1">  1        2 0.39740500E+00 0.15927063E+04</pdfrwt>
<pdfrwt beam="2">  1       -1 0.37770380E-01 0.15927063E+04</pdfrwt>
<totfact> 0.23067399E+01</totfact>
</mgrwt>
</event>
<event>
12    6  0.1542110E-007  0.4093410E+04  0.7818608E-02  0.7985963E-01
         -1   -1    0    0    0  501 -0.00000000000E+00  0.00000000000E+00  0.18111464823E+04  0.18111464823E+04  0.00000000000E+00 0.  1.
          2   -1    0    0  501    0  0.00000000000E+00 -0.00000000000E+00 -0.23129001781E+04  0.23129001781E+04  0.00000000000E+00 0. -1.
         24    2    1    2    0    0 -0.88457537771E+03  0.10441036501E+03 -0.19836936273E+04  0.21760100623E+04  0.81266604081E+02 0.  0.
        254    2    1    2    0    0  0.88457537771E+03 -0.10441036501E+03  0.14819399316E+04  0.19480365981E+04  0.89739929993E+03 0.  0.
         23    2    4    4    0    0  0.25737142865E+03 -0.16123097997E+03 -0.18829512501E+02  0.31787414151E+03  0.91945299550E+02 0.  0.
         23    2    4    4    0    0  0.62720394907E+03  0.56820614962E+02  0.15007694441E+04  0.16301624566E+04  0.92235213386E+02 0.  0.
          4    1    3    3  502    0 -0.86935082384E+03  0.11342397719E+03 -0.19435215126E+04  0.21321143786E+04  0.00000000000E+00 0. -1.
         -3    1    3    3    0  502 -0.15224553872E+02 -0.90136121777E+01 -0.40172114748E+02  0.43895683710E+02  0.00000000000E+00 0.  1.
         11    1    5    5    0    0  0.89978709072E+02 -0.40200217285E+02  0.34709573379E+02  0.10448435309E+03  0.00000000000E+00 0.  1.
        -11    1    5    5    0    0  0.16739271958E+03 -0.12103076269E+03 -0.53539085880E+02  0.21338978842E+03  0.00000000000E+00 0. -1.
          2    1    6    6  503    0  0.11781341180E+03  0.17410535475E+02  0.20169855810E+03  0.23423371893E+03  0.00000000000E+00 0.  1.
         -2    1    6    6    0  503  0.50939053726E+03  0.39410079487E+02  0.12990708860E+04  0.13959287376E+04  0.00000000000E+00 0. -1.
<mgrwt>
<rscale>  0 0.40934098E+04</rscale>
<asrwt>0</asrwt>
<pdfrwt beam="1">  1        2 0.35583079E+00 0.40934098E+04</pdfrwt>
<pdfrwt beam="2">  1       -1 0.27863792E+00 0.40934098E+04</pdfrwt>
<totfact> 0.18026803E-01</totfact>
</mgrwt>
</event>
<event>
12    6  0.1542110E-007  0.2026423E+04  0.7818608E-02  0.8594366E-01
         -1   -1    0    0    0  501 -0.00000000000E+00  0.00000000000E+00  0.43856301276E+03  0.43856301276E+03  0.00000000000E+00 0.  1.
          2   -1    0    0  501    0  0.00000000000E+00 -0.00000000000E+00 -0.23408207336E+04  0.23408207336E+04  0.00000000000E+00 0. -1.
         24    2    1    2    0    0  0.67804452160E+03  0.41710354422E+03 -0.54369993838E+03  0.96726992482E+03  0.79257457672E+02 0.  0.
        254    2    1    2    0    0 -0.67804452160E+03 -0.41710354422E+03 -0.13585577825E+04  0.18121138216E+04  0.89685980737E+03 0.  0.
         23    2    4    4    0    0 -0.49732713295E+03 -0.58202615566E+02 -0.12998799965E+04  0.13961190497E+04  0.93480340100E+02 0.  0.
         23    2    4    4    0    0 -0.18071738865E+03 -0.35890092865E+03 -0.58677785947E+02  0.41599477184E+03  0.90221485712E+02 0.  0.
          2    1    3    3  502    0  0.34480118182E+03  0.20371762674E+03 -0.32059416202E+03  0.51300033445E+03  0.00000000000E+00 0. -1.
         -1    1    3    3    0  502  0.33324333979E+03  0.21338591748E+03 -0.22310577636E+03  0.45426959037E+03  0.00000000000E+00 0.  1.
         11    1    5    5    0    0 -0.41265711832E+03 -0.83116600282E+02 -0.10606903894E+04  0.11411653556E+04  0.00000000000E+00 0. -1.
        -11    1    5    5    0    0 -0.84670014636E+02  0.24913984716E+02 -0.23918960713E+03  0.25495369417E+03  0.00000000000E+00 0.  1.
          4    1    6    6  503    0 -0.13030132892E+03 -0.15898940895E+03 -0.33924737974E+02  0.20834336160E+03  0.00000000000E+00 0.  1.
         -4    1    6    6    0  503 -0.50416059726E+02 -0.19991151970E+03 -0.24753047973E+02  0.20765141024E+03  0.00000000000E+00 0. -1.
<mgrwt>
<rscale>  0 0.20264229E+04</rscale>
<asrwt>0</asrwt>
<pdfrwt beam="1">  1        2 0.36012626E+00 0.20264229E+04</pdfrwt>
<pdfrwt beam="2">  1       -1 0.67471233E-01 0.20264229E+04</pdfrwt>
<totfact> 0.10091626E+01</totfact>
</mgrwt>
</event>
<event>
12    6  0.1542110E-007  0.1435841E+04  0.7818608E-02  0.8928276E-01
         -1   -1    0    0    0  501 -0.00000000000E+00  0.00000000000E+00  0.50399268710E+03  0.50399268710E+03  0.00000000000E+00 0.  1.
          2   -1    0    0  501    0  0.00000000000E+00 -0.00000000000E+00 -0.10226537248E+04  0.10226537248E+04  0.00000000000E+00 0. -1.
         24    2    1    2    0    0  0.12010272548E+02 -0.37847998923E+03 -0.38690978750E+03  0.54706654317E+03  0.78684624241E+02 0.  0.
        254    2    1    2    0    0 -0.12010272548E+02  0.37847998923E+03 -0.13175125015E+03  0.97957986869E+03  0.89377121140E+03 0.  0.
         23    2    4    4    0    0 -0.44392952522E+02  0.23484046327E+03 -0.50603568252E+03  0.56728576292E+03  0.92845287506E+02 0.  0.
         23    2    4    4    0    0  0.32382679973E+02  0.14363952596E+03  0.37428443237E+03  0.41229410576E+03  0.90645694613E+02 0.  0.
          4    1    3    3  502    0 -0.24613605607E+02 -0.14369553939E+03 -0.18279806845E+03  0.23381482299E+03  0.00000000000E+00 0. -1.
         -3    1    3    3    0  502  0.36623878155E+02 -0.23478444984E+03 -0.20411171906E+03  0.31325172018E+03  0.00000000000E+00 0.  1.
         11    1    5    5    0    0 -0.60175986760E+02  0.20368466817E+03 -0.47595258109E+03  0.52119041902E+03  0.00000000000E+00 0. -1.
        -11    1    5    5    0    0  0.15783034238E+02  0.31155795102E+02 -0.30083101423E+02  0.46095343902E+02  0.00000000000E+00 0.  1.
          3    1    6    6  503    0  0.61116852206E+02  0.87645647788E+02  0.27153419661E+03  0.29180104374E+03  0.00000000000E+00 0. -1.
         -3    1    6    6    0  503 -0.28734172233E+02  0.55993878172E+02  0.10275023576E+03  0.12049306202E+03  0.00000000000E+00 0.  1.
<mgrwt>
<rscale>  0 0.14358412E+04</rscale>
<asrwt>0</asrwt>
<pdfrwt beam="1">  1        2 0.15733134E+00 0.14358412E+04</pdfrwt>
<pdfrwt beam="2">  1       -1 0.77537337E-01 0.14358412E+04</pdfrwt>
<totfact> 0.44984218E+01</totfact>
</mgrwt>
</event>
<event>
12    6  0.1542110E-007  0.1580782E+04  0.7818608E-02  0.8832442E-01
          2   -1    0    0  501    0  0.00000000000E+00  0.00000000000E+00  0.17024824322E+04  0.17024824322E+04  0.00000000000E+00 0. -1.
         -1   -1    0    0    0  501 -0.00000000000E+00 -0.00000000000E+00 -0.36694549426E+03  0.36694549426E+03  0.00000000000E+00 0.  1.
         24    2    1    2    0    0 -0.30473488445E+03  0.88088682708E+02  0.10362318384E+04  0.10867367484E+04  0.81224206108E+02 0.  0.
        254    2    1    2    0    0  0.30473488445E+03 -0.88088682708E+02  0.29930509952E+03  0.98269117801E+03  0.88061083511E+03 0.  0.
         23    2    4    4    0    0 -0.19719450201E+03 -0.30583144189E+03  0.66251222444E+02  0.38107471844E+03  0.91707001293E+02 0.  0.
         23    2    4    4    0    0  0.50192938646E+03  0.21774275919E+03  0.23305387708E+03  0.60161645957E+03  0.91012288379E+02 0.  0.
          4    1    3    3  502    0 -0.89918770888E+02  0.38841564649E+02  0.44779592451E+03  0.45838329214E+03  0.00000000000E+00 0. -1.
         -3    1    3    3    0  502 -0.21481611356E+03  0.49247118059E+02  0.58843591388E+03  0.62835345628E+03  0.00000000000E+00 0.  1.
         11    1    5    5    0    0 -0.18764921773E+03 -0.26833925199E+03  0.31295952603E+02  0.32893406592E+03  0.00000000000E+00 0. -1.
        -11    1    5    5    0    0 -0.95452842805E+01 -0.37492189905E+02  0.34955269841E+02  0.52140652523E+02  0.00000000000E+00 0.  1.
          1    1    6    6  503    0  0.44264307321E+03  0.16748114860E+03  0.17493026818E+03  0.50456260674E+03  0.00000000000E+00 0. -1.
         -1    1    6    6    0  503  0.59286313251E+02  0.50261610590E+02  0.58123608899E+02  0.97053852832E+02  0.00000000000E+00 0.  1.
<mgrwt>
<rscale>  0 0.15807824E+04</rscale>
<asrwt>0</asrwt>
<pdfrwt beam="1">  1        2 0.26192037E+00 0.15807824E+04</pdfrwt>
<pdfrwt beam="2">  1       -1 0.56453154E-01 0.15807824E+04</pdfrwt>
<totfact> 0.33960894E+01</totfact>
</mgrwt>
</event>
<event>
12    6  0.1542110E-007  0.1218832E+04  0.7818608E-02  0.9096531E-01
         -1   -1    0    0    0  501 -0.00000000000E+00  0.00000000000E+00  0.41138147813E+03  0.41138147813E+03  0.00000000000E+00 0.  1.
          2   -1    0    0  501    0  0.00000000000E+00 -0.00000000000E+00 -0.90278244230E+03  0.90278244230E+03  0.00000000000E+00 0. -1.
         24    2    1    2    0    0 -0.54139666292E+02  0.22389625646E+03 -0.26562506063E+03  0.36018263264E+03  0.78193470909E+02 0.  0.
        254    2    1    2    0    0  0.54139666292E+02 -0.22389625646E+03 -0.22577590354E+03  0.95398128780E+03  0.89780003437E+03 0.  0.
         23    2    4    4    0    0  0.37928124736E+03 -0.38232556621E+03 -0.19569370974E+03  0.58020882511E+03  0.91209371930E+02 0.  0.
         23    2    4    4    0    0 -0.32514158107E+03  0.15842930974E+03 -0.30082193803E+02  0.37377246269E+03  0.89353352219E+02 0.  0.
          4    1    3    3  502    0 -0.20053786941E+02  0.10913357418E+03 -0.71150621737E+02  0.13181313423E+03  0.00000000000E+00 0. -1.
         -3    1    3    3    0  502 -0.34085879350E+02  0.11476268229E+03 -0.19447443890E+03  0.22836949840E+03  0.00000000000E+00 0.  1.
         11    1    5    5    0    0  0.34448332204E+03 -0.32112452305E+03 -0.19522169470E+03  0.50980508878E+03  0.00000000000E+00 0.  1.
        -11    1    5    5    0    0  0.34797925323E+02 -0.61201043160E+02 -0.47201503451E+00  0.70403736327E+02  0.00000000000E+00 0. -1.
          3    1    6    6  503    0 -0.92060576953E+02  0.51944888695E+02 -0.49628236882E+02  0.11677492533E+03  0.00000000000E+00 0. -1.
         -3    1    6    6    0  503 -0.23308100412E+03  0.10648442105E+03  0.19546043079E+02  0.25699753735E+03  0.00000000000E+00 0.  1.
<mgrwt>
<rscale>  0 0.12188322E+04</rscale>
<asrwt>0</asrwt>
<pdfrwt beam="1">  1        2 0.13888961E+00 0.12188322E+04</pdfrwt>
<pdfrwt beam="2">  1       -1 0.63289459E-01 0.12188322E+04</pdfrwt>
<totfact> 0.83146056E+01</totfact>
</mgrwt>
</event>
<event>
12    6  0.1542110E-007  0.1704297E+04  0.7818608E-02  0.8758917E-01
          2   -1    0    0  501    0  0.00000000000E+00  0.00000000000E+00  0.23193643664E+04  0.23193643664E+04  0.00000000000E+00 0. -1.
         -1   -1    0    0    0  501 -0.00000000000E+00 -0.00000000000E+00 -0.31308446024E+03  0.31308446024E+03  0.00000000000E+00 0.  1.
         24    2    1    2    0    0 -0.37144147193E+03 -0.31480321676E+03  0.12858279145E+04  0.13772092095E+04  0.79258745002E+02 0.  0.
        254    2    1    2    0    0  0.37144147193E+03  0.31480321676E+03  0.72045199170E+03  0.12552396172E+04  0.90526548143E+03 0.  0.
         23    2    4    4    0    0  0.28149516378E+03 -0.19212698042E+03  0.63258843612E+03  0.72449092121E+03  0.92556261661E+02 0.  0.
         23    2    4    4    0    0  0.89946308148E+02  0.50693019718E+03  0.87863555582E+02  0.53074869598E+03  0.94369543384E+02 0.  0.
          4    1    3    3  502    0 -0.11607491847E+03 -0.74936264574E+02  0.28263386015E+03  0.31459613690E+03  0.00000000000E+00 0. -1.
         -3    1    3    3    0  502 -0.25536655346E+03 -0.23986695218E+03  0.10031940543E+04  0.10626130726E+04  0.00000000000E+00 0.  1.
         11    1    5    5    0    0  0.79957515052E+02 -0.62697542251E+02  0.11069047763E+03  0.15025500942E+03  0.00000000000E+00 0. -1.
        -11    1    5    5    0    0  0.20153764873E+03 -0.12942943817E+03  0.52189795849E+03  0.57423591179E+03  0.00000000000E+00 0.  1.
          1    1    6    6  503    0  0.19463930592E+01  0.22547993340E+01  0.12614511460E+02  0.12961422197E+02  0.00000000000E+00 0. -1.
         -1    1    6    6    0  503  0.87999915089E+02  0.50467539785E+03  0.75249044122E+02  0.51778727378E+03  0.00000000000E+00 0.  1.
<mgrwt>
<rscale>  0 0.17042969E+04</rscale>
<asrwt>0</asrwt>
<pdfrwt beam="1">  1        2 0.35682528E+00 0.17042969E+04</pdfrwt>
<pdfrwt beam="2">  1       -1 0.48166841E-01 0.17042969E+04</pdfrwt>
<totfact> 0.20650502E+01</totfact>
</mgrwt>
</event>
<event>
12    6  0.1542110E-007  0.1811088E+04  0.7818608E-02  0.8700425E-01
          2   -1    0    0  501    0  0.00000000000E+00  0.00000000000E+00  0.93765857193E+03  0.93765857193E+03  0.00000000000E+00 0. -1.
         -1   -1    0    0    0  501 -0.00000000000E+00 -0.00000000000E+00 -0.87452915094E+03  0.87452915094E+03  0.00000000000E+00 0.  1.
         24    2    1    2    0    0 -0.54507960791E+03  0.40067565057E+03  0.91020740884E+02  0.68728395218E+03  0.80135508596E+02 0.  0.
        254    2    1    2    0    0  0.54507960791E+03 -0.40067565057E+03 -0.27891319898E+02  0.11249037707E+04  0.89831943744E+03 0.  0.
         23    2    4    4    0    0 -0.18622085189E+03  0.98606521349E+02 -0.42378261713E+02  0.23439751002E+03  0.93513763200E+02 0.  0.
         23    2    4    4    0    0  0.73130045980E+03 -0.49928217192E+03  0.14486941815E+02  0.89050626067E+03  0.93319232266E+02 0.  0.
          4    1    3    3  502    0 -0.26761629402E+03  0.19040167642E+03  0.41238703711E+01  0.32846352235E+03  0.00000000000E+00 0. -1.
         -3    1    3    3    0  502 -0.27746331389E+03  0.21027397415E+03  0.86896870513E+02  0.35882042983E+03  0.00000000000E+00 0.  1.
         11    1    5    5    0    0 -0.15590892217E+02 -0.11885995647E+02 -0.22959739145E+02  0.30191098594E+02  0.00000000000E+00 0.  1.
        -11    1    5    5    0    0 -0.17062995967E+03  0.11049251700E+03 -0.19418522567E+02  0.20420641143E+03  0.00000000000E+00 0. -1.
          3    1    6    6  503    0  0.59739981369E+03 -0.36261386332E+03  0.19479044618E+02  0.69910999453E+03  0.00000000000E+00 0. -1.
         -3    1    6    6    0  503  0.13390064611E+03 -0.13666830859E+03 -0.49921028039E+01  0.19139626614E+03  0.00000000000E+00 0.  1.
<mgrwt>
<rscale>  0 0.18110878E+04</rscale>
<asrwt>0</asrwt>
<pdfrwt beam="1">  1        2 0.14425517E+00 0.18110878E+04</pdfrwt>
<pdfrwt beam="2">  1       -1 0.13454295E+00 0.18110878E+04</pdfrwt>
<totfact> 0.13837145E+01</totfact>
</mgrwt>
</event>
<event>
12    6  0.1542110E-007  0.1767061E+04  0.7818608E-02  0.8724015E-01
          2   -1    0    0  501    0  0.00000000000E+00  0.00000000000E+00  0.29187129323E+04  0.29187129323E+04  0.00000000000E+00 0. -1.
         -1   -1    0    0    0  501 -0.00000000000E+00 -0.00000000000E+00 -0.26745568733E+03  0.26745568733E+03  0.00000000000E+00 0.  1.
         24    2    1    2    0    0 -0.31383085523E+03 -0.29620780326E+02  0.20196870648E+04  0.20460413770E+04  0.88217233973E+02 0.  0.
        254    2    1    2    0    0  0.31383085523E+03  0.29620780326E+02  0.63157018012E+03  0.11401272426E+04  0.89534464903E+03 0.  0.
         23    2    4    4    0    0 -0.16037017280E+03 -0.27789627369E+03  0.40486368327E+03  0.52460148641E+03  0.91362936966E+02 0.  0.
         23    2    4    4    0    0  0.47420102803E+03  0.30751705402E+03  0.22670649685E+03  0.61552575617E+03  0.89681476897E+02 0.  0.
          4    1    3    3  502    0 -0.17479589534E+03 -0.41877534337E+02  0.13540988822E+04  0.13659762500E+04  0.00000000000E+00 0. -1.
         -3    1    3    3    0  502 -0.13903495989E+03  0.12256754011E+02  0.66558818264E+03  0.68006512700E+03  0.00000000000E+00 0.  1.
         11    1    5    5    0    0 -0.12306139382E+03 -0.14644305536E+03  0.28254920568E+03  0.34120921550E+03  0.00000000000E+00 0.  1.
        -11    1    5    5    0    0 -0.37308778983E+02 -0.13145321834E+03  0.12231447759E+03  0.18339227091E+03  0.00000000000E+00 0. -1.
          2    1    6    6  503    0  0.46269415132E+02  0.37377441826E+02  0.55315493352E+02  0.81226447287E+02  0.00000000000E+00 0. -1.
         -2    1    6    6    0  503  0.42793161290E+03  0.27013961219E+03  0.17139100350E+03  0.53429930889E+03  0.00000000000E+00 0.  1.
<mgrwt>
<rscale>  0 0.17670613E+04</rscale>
<asrwt>0</asrwt>
<pdfrwt beam="1">  1        2 0.44903274E+00 0.17670613E+04</pdfrwt>
<pdfrwt beam="2">  1       -1 0.41147031E-01 0.17670613E+04</pdfrwt>
<totfact> 0.12235323E+01</totfact>
</mgrwt>
</event>
<event>
12    6  0.1542110E-007  0.1121710E+04  0.7818608E-02  0.9184286E-01
          2   -1    0    0  501    0  0.00000000000E+00  0.00000000000E+00  0.33938417283E+04  0.33938417283E+04  0.00000000000E+00 0. -1.
         -1   -1    0    0    0  501 -0.00000000000E+00 -0.00000000000E+00 -0.92685038007E+02  0.92685038007E+02  0.00000000000E+00 0.  1.
         24    2    1    2    0    0 -0.52122593683E+02 -0.11788260958E+03  0.22322411150E+03  0.27008503064E+03  0.80646422147E+02 0.  0.
        254    2    1    2    0    0  0.52122593683E+02  0.11788260958E+03  0.30779325788E+04  0.32164417357E+04  0.92477857078E+03 0.  0.
         23    2    4    4    0    0  0.24279546100E+03 -0.34017811597E+03  0.13215683624E+04  0.13890502356E+04  0.90812080730E+02 0.  0.
         23    2    4    4    0    0 -0.19067286732E+03  0.45806072554E+03  0.17563642164E+04  0.18273915001E+04  0.91480398825E+02 0.  0.
          2    1    3    3  502    0  0.61177942566E+01  0.68153102664E+01  0.17384758265E+01  0.93219181928E+01  0.00000000000E+00 0. -1.
         -1    1    3    3    0  502 -0.58240387940E+02 -0.12469791984E+03  0.22148563568E+03  0.26076311245E+03  0.00000000000E+00 0.  1.
         11    1    5    5    0    0  0.10510728095E+03 -0.12357970602E+03  0.65459357595E+03  0.67439768233E+03  0.00000000000E+00 0. -1.
        -11    1    5    5    0    0  0.13768818005E+03 -0.21659840995E+03  0.66697478647E+03  0.71465255328E+03  0.00000000000E+00 0.  1.
          2    1    6    6  503    0 -0.12973367267E+03  0.19831630617E+03  0.77679996788E+03  0.81214430566E+03  0.00000000000E+00 0. -1.
         -2    1    6    6    0  503 -0.60939194652E+02  0.25974441938E+03  0.97956424853E+03  0.10152471944E+04  0.00000000000E+00 0.  1.
<mgrwt>
<rscale>  0 0.11217100E+04</rscale>
<asrwt>0</asrwt>
<pdfrwt beam="1">  1        2 0.52212940E+00 0.11217100E+04</pdfrwt>
<pdfrwt beam="2">  1       -1 0.14259239E-01 0.11217100E+04</pdfrwt>
<totfact> 0.39928463E+01</totfact>
</mgrwt>
</event>
<event>
12    6  0.1542110E-007  0.1299105E+04  0.7818608E-02  0.9030276E-01
          2   -1    0    0  501    0  0.00000000000E+00  0.00000000000E+00  0.11294305918E+04  0.11294305918E+04  0.00000000000E+00 0. -1.
         -3   -1    0    0    0  501 -0.00000000000E+00 -0.00000000000E+00 -0.37356717857E+03  0.37356717857E+03  0.00000000000E+00 0.  1.
         24    2    1    2    0    0 -0.99617406055E+02  0.14189962352E+03 -0.12907816317E+03  0.22961336987E+03  0.77472554293E+02 0.  0.
        254    2    1    2    0    0  0.99617406055E+02 -0.14189962352E+03  0.88494157644E+03  0.12733844005E+04  0.89907013467E+03 0.  0.
         23    2    4    4    0    0  0.43569675759E+03 -0.24686330150E+03  0.69562483086E+03  0.86191625525E+03  0.90733519500E+02 0.  0.
         23    2    4    4    0    0 -0.33607935153E+03  0.10496367797E+03  0.18931674558E+03  0.41146814528E+03  0.97460249342E+02 0.  0.
          2    1    3    3  502    0  0.74528360884E+00 -0.69122319852E+01 -0.16067604152E+02  0.17507207141E+02  0.00000000000E+00 0. -1.
         -1    1    3    3    0  502 -0.10036268966E+03  0.14881185551E+03 -0.11301055902E+03  0.21210616273E+03  0.00000000000E+00 0.  1.
         11    1    5    5    0    0  0.31880719834E+03 -0.13793340117E+03  0.44207403778E+03  0.56222158243E+03  0.00000000000E+00 0.  1.
        -11    1    5    5    0    0  0.11688955925E+03 -0.10892990033E+03  0.25355079307E+03  0.29969467282E+03  0.00000000000E+00 0. -1.
          4    1    6    6  503    0 -0.68096033940E+02 -0.11961680603E+01  0.28458007081E+01  0.68165968328E+02  0.00000000000E+00 0. -1.
         -4    1    6    6    0  503 -0.26798331759E+03  0.10615984603E+03  0.18647094487E+03  0.34330217695E+03  0.00000000000E+00 0.  1.
<mgrwt>
<rscale>  0 0.12991046E+04</rscale>
<asrwt>0</asrwt>
<pdfrwt beam="1">  1        2 0.17375855E+00 0.12991046E+04</pdfrwt>
<pdfrwt beam="2">  1       -3 0.57471874E-01 0.12991046E+04</pdfrwt>
<totfact> 0.38825738E+01</totfact>
</mgrwt>
</event>
<event>
12    6  0.1542110E-007  0.2504638E+04  0.7818608E-02  0.8401335E-01
          2   -1    0    0  501    0  0.00000000000E+00  0.00000000000E+00  0.24242309390E+04  0.24242309390E+04  0.00000000000E+00 0. -1.
         -1   -1    0    0    0  501 -0.00000000000E+00 -0.00000000000E+00 -0.64692792188E+03  0.64692792188E+03  0.00000000000E+00 0.  1.
         24    2    1    2    0    0  0.41384905358E+03 -0.20750543368E+03 -0.43672723560E+03  0.64136356743E+03  0.79290624667E+02 0.  0.
        254    2    1    2    0    0 -0.41384905358E+03  0.20750543368E+03  0.22140302527E+04  0.24297952934E+04  0.88749403599E+03 0.  0.
         23    2    4    4    0    0 -0.42180728728E+03  0.12234072383E+03  0.22543107394E+04  0.22984773054E+04  0.90511731390E+02 0.  0.
         23    2    4    4    0    0  0.79582337088E+01  0.85164709851E+02 -0.40280486724E+02  0.13131798796E+03  0.91134708342E+02 0.  0.
          2    1    3    3  502    0  0.24943130733E+03 -0.11111215365E+03 -0.20571393653E+03  0.34187733391E+03  0.00000000000E+00 0. -1.
         -1    1    3    3    0  502  0.16441774625E+03 -0.96393280036E+02 -0.23101329907E+03  0.29948623351E+03  0.00000000000E+00 0.  1.
         11    1    5    5    0    0 -0.41576166768E+03  0.10375175485E+03  0.21732307616E+04  0.22150742954E+04  0.00000000000E+00 0. -1.
        -11    1    5    5    0    0 -0.60456196077E+01  0.18588968985E+02  0.81079977777E+02  0.83403010022E+02  0.00000000000E+00 0.  1.
          3    1    6    6  503    0  0.27689539368E+02  0.97702701433E+02 -0.34305866815E+02  0.10718871655E+03  0.00000000000E+00 0. -1.
         -3    1    6    6    0  503 -0.19731305660E+02 -0.12537991582E+02 -0.59746199099E+01  0.24129271415E+02  0.00000000000E+00 0.  1.
<mgrwt>
<rscale>  0 0.25046378E+04</rscale>
<asrwt>0</asrwt>
<pdfrwt beam="1">  1        2 0.37295860E+00 0.25046378E+04</pdfrwt>
<pdfrwt beam="2">  1       -1 0.99527374E-01 0.25046378E+04</pdfrwt>
<totfact> 0.37610711E+00</totfact>
</mgrwt>
</event>
<event>
12    6  0.1542110E-007  0.1603351E+04  0.7818608E-02  0.8818492E-01
         -1   -1    0    0    0  501 -0.00000000000E+00  0.00000000000E+00  0.64386295922E+03  0.64386295922E+03  0.00000000000E+00 0.  1.
          2   -1    0    0  501    0  0.00000000000E+00 -0.00000000000E+00 -0.99816793965E+03  0.99816793965E+03  0.00000000000E+00 0. -1.
         24    2    1    2    0    0 -0.18247652867E+03 -0.47680715740E+03  0.81176663545E+02  0.52248411041E+03  0.75876518522E+02 0.  0.
        254    2    1    2    0    0  0.18247652867E+03  0.47680715740E+03 -0.43548164398E+03  0.11195467885E+04  0.89615735251E+03 0.  0.
         23    2    4    4    0    0  0.19435954099E+03  0.13921023947E+03  0.24417673642E+03  0.35513756842E+03  0.96671050181E+02 0.  0.
         23    2    4    4    0    0 -0.11883012315E+02  0.33759691793E+03 -0.67965838040E+03  0.76440922005E+03  0.90956344838E+02 0.  0.
          4    1    3    3  502    0 -0.64367356359E+01 -0.25301155669E+01 -0.59730777255E+01  0.91384193350E+01  0.00000000000E+00 0. -1.
         -3    1    3    3    0  502 -0.17603979304E+03 -0.47427704183E+03  0.87149741270E+02  0.51334569108E+03  0.00000000000E+00 0.  1.
         11    1    5    5    0    0  0.10729189265E+02  0.17482915676E+02 -0.63939756411E+01  0.21486059837E+02  0.00000000000E+00 0. -1.
        -11    1    5    5    0    0  0.18363035172E+03  0.12172732379E+03  0.25057071207E+03  0.33365150858E+03  0.00000000000E+00 0.  1.
          1    1    6    6  503    0 -0.14603212711E+02  0.62805368282E+02 -0.21612745760E+03  0.22554122912E+03  0.00000000000E+00 0. -1.
         -1    1    6    6    0  503  0.27202003958E+01  0.27479154965E+03 -0.46353092280E+03  0.53886799093E+03  0.00000000000E+00 0.  1.
<mgrwt>
<rscale>  0 0.16033507E+04</rscale>
<asrwt>0</asrwt>
<pdfrwt beam="1">  1        2 0.15356430E+00 0.16033507E+04</pdfrwt>
<pdfrwt beam="2">  1       -1 0.99055841E-01 0.16033507E+04</pdfrwt>
<totfact> 0.26914141E+01</totfact>
</mgrwt>
</event>
<event>
12    6  0.1542110E-007  0.1542254E+04  0.7818608E-02  0.8856831E-01
         -1   -1    0    0    0  501 -0.00000000000E+00  0.00000000000E+00  0.31546128373E+03  0.31546128373E+03  0.00000000000E+00 0.  1.
          2   -1    0    0  501    0  0.00000000000E+00 -0.00000000000E+00 -0.18849762474E+04  0.18849762474E+04  0.00000000000E+00 0. -1.
         24    2    1    2    0    0 -0.28277029271E+03  0.32517891775E+03 -0.14088028287E+03  0.46006640974E+03  0.78188747779E+02 0.  0.
        254    2    1    2    0    0  0.28277029271E+03 -0.32517891775E+03 -0.14286346808E+04  0.17403711214E+04  0.89565295845E+03 0.  0.
         23    2    4    4    0    0  0.36377292065E+03 -0.56935232127E+03 -0.12164444995E+04  0.13944705933E+04  0.91204230537E+02 0.  0.
         23    2    4    4    0    0 -0.81002627941E+02  0.24417340353E+03 -0.21219018133E+03  0.34590052811E+03  0.91871788785E+02 0.  0.
          2    1    3    3  502    0  0.25918675477E+00  0.22117754154E+02 -0.14942661718E+02  0.26693545396E+02  0.00000000000E+00 0. -1.
         -1    1    3    3    0  502 -0.28302947947E+03  0.30306116359E+03 -0.12593762115E+03  0.43337286434E+03  0.00000000000E+00 0.  1.
         11    1    5    5    0    0  0.32131906708E+03 -0.46242218153E+03 -0.95171240992E+03  0.11058194826E+04  0.00000000000E+00 0.  1.
        -11    1    5    5    0    0  0.42453853568E+02 -0.10693013974E+03 -0.26473208960E+03  0.28865111074E+03  0.00000000000E+00 0. -1.
          3    1    6    6  503    0 -0.30881040098E+02  0.18364016625E+03 -0.10758630687E+03  0.21506315985E+03  0.00000000000E+00 0. -1.
         -3    1    6    6    0  503 -0.50121587842E+02  0.60533237277E+02 -0.10460387446E+03  0.13083736827E+03  0.00000000000E+00 0.  1.
<mgrwt>
<rscale>  0 0.15422542E+04</rscale>
<asrwt>0</asrwt>
<pdfrwt beam="1">  1        2 0.28999634E+00 0.15422542E+04</pdfrwt>
<pdfrwt beam="2">  1       -1 0.48532505E-01 0.15422542E+04</pdfrwt>
<totfact> 0.36078089E+01</totfact>
</mgrwt>
</event>
<event>
12    6  0.1542110E-007  0.1363819E+04  0.7818608E-02  0.8980433E-01
         -1   -1    0    0    0  501 -0.00000000000E+00  0.00000000000E+00  0.12540236192E+04  0.12540236192E+04  0.00000000000E+00 0.  1.
          2   -1    0    0  501    0  0.00000000000E+00 -0.00000000000E+00 -0.37080694891E+03  0.37080694891E+03  0.00000000000E+00 0. -1.
         24    2    1    2    0    0 -0.18560639901E+02 -0.17728733842E+03  0.63123343166E+03  0.66075557437E+03  0.79793396313E+02 0.  0.
        254    2    1    2    0    0  0.18560639901E+02  0.17728733842E+03  0.25198323867E+03  0.96407499378E+03  0.91332893491E+03 0.  0.
         23    2    4    4    0    0 -0.66860241605E+02  0.26591115324E+03  0.55373873424E+03  0.62631481110E+03  0.10229674228E+03 0.  0.
         23    2    4    4    0    0  0.85420881507E+02 -0.88623814818E+02 -0.30175549557E+03  0.33776018268E+03  0.88739249161E+02 0.  0.
          4    1    3    3  502    0 -0.13528232797E+01  0.63878020749E+01  0.59771567976E+01  0.88521494315E+01  0.00000000000E+00 0. -1.
         -3    1    3    3    0  502 -0.17207816622E+02 -0.18367514049E+03  0.62525627487E+03  0.65190342494E+03  0.00000000000E+00 0.  1.
         11    1    5    5    0    0 -0.84969497376E+02  0.18817387186E+03  0.45263170987E+03  0.49749842845E+03  0.00000000000E+00 0. -1.
        -11    1    5    5    0    0  0.18109255770E+02  0.77737281380E+02  0.10110702437E+03  0.12881638265E+03  0.00000000000E+00 0.  1.
          1    1    6    6  503    0  0.10166665000E+03 -0.58423313766E+02 -0.22617068639E+03  0.25475982944E+03  0.00000000000E+00 0. -1.
         -1    1    6    6    0  503 -0.16245768497E+02 -0.30200501052E+02 -0.75584809180E+02  0.83000353232E+02  0.00000000000E+00 0.  1.
<mgrwt>
<rscale>  0 0.13638192E+04</rscale>
<asrwt>0</asrwt>
<pdfrwt beam="1">  1        2 0.57047224E-01 0.13638192E+04</pdfrwt>
<pdfrwt beam="2">  1       -1 0.19292671E+00 0.13638192E+04</pdfrwt>
<totfact> 0.16302769E+01</totfact>
</mgrwt>
</event>
<event>
12    6  0.1542110E-007  0.1931162E+04  0.7818608E-02  0.8639499E-01
         -1   -1    0    0    0  501 -0.00000000000E+00  0.00000000000E+00  0.39893112905E+03  0.39893112905E+03  0.00000000000E+00 0.  1.
          2   -1    0    0  501    0  0.00000000000E+00 -0.00000000000E+00 -0.23371110056E+04  0.23371110056E+04  0.00000000000E+00 0. -1.
         24    2    1    2    0    0  0.48331091638E+03  0.49367815420E+02 -0.15718073521E+04  0.16470082849E+04  0.77661543002E+02 0.  0.
        254    2    1    2    0    0 -0.48331091638E+03 -0.49367815420E+02 -0.36637252443E+03  0.10890338497E+04  0.90318285864E+03 0.  0.
         23    2    4    4    0    0 -0.68429056425E+03  0.35989146454E+02 -0.46439272785E+03  0.83322043909E+03  0.95115190439E+02 0.  0.
         23    2    4    4    0    0  0.20097964788E+03 -0.85356961874E+02  0.98020203416E+02  0.25581341066E+03  0.90299008813E+02 0.  0.
          4    1    3    3  502    0  0.25419367836E+03  0.26963169755E+02 -0.69620956275E+03  0.74165301450E+03  0.00000000000E+00 0. -1.
         -3    1    3    3    0  502  0.22911723802E+03  0.22404645664E+02 -0.87559778938E+03  0.90535527042E+03  0.00000000000E+00 0.  1.
         11    1    5    5    0    0 -0.15553017303E+03  0.39565892423E+02 -0.13929081173E+03  0.21250182305E+03  0.00000000000E+00 0. -1.
        -11    1    5    5    0    0 -0.52876039123E+03 -0.35767459689E+01 -0.32510191611E+03  0.62071861605E+03  0.00000000000E+00 0.  1.
          2    1    6    6  503    0  0.15726782865E+03 -0.10018044510E+03  0.59599933011E+02  0.19575863589E+03  0.00000000000E+00 0. -1.
         -2    1    6    6    0  503  0.43711819222E+02  0.14823483222E+02  0.38420270405E+02  0.60054774769E+02  0.00000000000E+00 0.  1.
<mgrwt>
<rscale>  0 0.19311617E+04</rscale>
<asrwt>0</asrwt>
<pdfrwt beam="1">  1        2 0.35955554E+00 0.19311617E+04</pdfrwt>
<pdfrwt beam="2">  1       -1 0.61374020E-01 0.19311617E+04</pdfrwt>
<totfact> 0.12371816E+01</totfact>
</mgrwt>
</event>
<event>
12    6  0.1542110E-007  0.1908289E+04  0.7818608E-02  0.8650741E-01
         -1   -1    0    0    0  501 -0.00000000000E+00  0.00000000000E+00  0.50827570780E+03  0.50827570780E+03  0.00000000000E+00 0.  1.
          2   -1    0    0  501    0  0.00000000000E+00 -0.00000000000E+00 -0.17911382727E+04  0.17911382727E+04  0.00000000000E+00 0. -1.
         24    2    1    2    0    0 -0.39498771671E+03 -0.12990414210E+02 -0.12576178255E+04  0.13207033954E+04  0.80441384715E+02 0.  0.
        254    2    1    2    0    0  0.39498771671E+03  0.12990414210E+02 -0.25244739380E+02  0.97871058508E+03  0.89501567878E+03 0.  0.
         23    2    4    4    0    0 -0.25290599162E+03  0.12409469377E+03  0.76811070012E+02  0.30634356813E+03  0.92658014436E+02 0.  0.
         23    2    4    4    0    0  0.64789370833E+03 -0.11110427956E+03 -0.10205580939E+03  0.67236701695E+03  0.97732282345E+02 0.  0.
          4    1    3    3  502    0 -0.12013720962E+03  0.10811692578E+02 -0.50229453428E+03  0.51657491325E+03  0.00000000000E+00 0. -1.
         -3    1    3    3    0  502 -0.27485050709E+03 -0.23802106788E+02 -0.75532329122E+03  0.80412848214E+03  0.00000000000E+00 0.  1.
         11    1    5    5    0    0 -0.37942042893E+02 -0.12858766394E+02 -0.25898602551E+00  0.40062620557E+02  0.00000000000E+00 0.  1.
        -11    1    5    5    0    0 -0.21496394873E+03  0.13695346016E+03  0.77070056037E+02  0.26628094758E+03  0.00000000000E+00 0. -1.
          1    1    6    6  503    0  0.53071211454E+03 -0.10190493600E+03 -0.11970749534E+03  0.55350686440E+03  0.00000000000E+00 0. -1.
         -1    1    6    6    0  503  0.11718159379E+03 -0.91993435613E+01  0.17651685948E+02  0.11886015254E+03  0.00000000000E+00 0.  1.
<mgrwt>
<rscale>  0 0.19082894E+04</rscale>
<asrwt>0</asrwt>
<pdfrwt beam="1">  1        2 0.27555974E+00 0.19082894E+04</pdfrwt>
<pdfrwt beam="2">  1       -1 0.78196262E-01 0.19082894E+04</pdfrwt>
<totfact> 0.15231110E+01</totfact>
</mgrwt>
</event>
<event>
12    6  0.1542110E-007  0.2106492E+04  0.7818608E-02  0.8558389E-01
          4   -1    0    0  501    0  0.00000000000E+00  0.00000000000E+00  0.98116392743E+03  0.98116392743E+03  0.00000000000E+00 0. -1.
         -3   -1    0    0    0  501 -0.00000000000E+00 -0.00000000000E+00 -0.11306241238E+04  0.11306241238E+04  0.00000000000E+00 0.  1.
         24    2    1    2    0    0 -0.17943023938E+03  0.16668350525E+03  0.76813538174E+03  0.80990994349E+03  0.77094423683E+02 0.  0.
        254    2    1    2    0    0  0.17943023938E+03 -0.16668350525E+03 -0.91759557814E+03  0.13018781078E+04  0.89046412661E+03 0.  0.
         23    2    4    4    0    0 -0.23298820471E+03  0.62345433965E+02  0.91770465126E+01  0.25803855386E+03  0.91264562793E+02 0.  0.
         23    2    4    4    0    0  0.41241844409E+03 -0.22902893922E+03 -0.92677262465E+03  0.10438395539E+04  0.90278948308E+02 0.  0.
          2    1    3    3  502    0 -0.15893551410E+03  0.17292786791E+03  0.68936586601E+03  0.72827868455E+03  0.00000000000E+00 0. -1.
         -1    1    3    3    0  502 -0.20494725278E+02 -0.62443626597E+01  0.78769515725E+02  0.81631258944E+02  0.00000000000E+00 0.  1.
         11    1    5    5    0    0 -0.19704065505E+03  0.14495634302E+02  0.13503013392E+02  0.19803402366E+03  0.00000000000E+00 0. -1.
        -11    1    5    5    0    0 -0.35947549662E+02  0.47849799663E+02 -0.43259668790E+01  0.60004530194E+02  0.00000000000E+00 0.  1.
          4    1    6    6  503    0  0.34745147855E+03 -0.18295040559E+03 -0.68849785101E+03  0.79260499096E+03  0.00000000000E+00 0. -1.
         -4    1    6    6    0  503  0.64966965540E+02 -0.46078533625E+02 -0.23827477364E+03  0.25123456296E+03  0.00000000000E+00 0.  1.
<mgrwt>
<rscale>  0 0.21064924E+04</rscale>
<asrwt>0</asrwt>
<pdfrwt beam="1">  1        4 0.15094830E+00 0.21064924E+04</pdfrwt>
<pdfrwt beam="2">  1       -3 0.17394217E+00 0.21064924E+04</pdfrwt>
<totfact> 0.13392178E-01</totfact>
</mgrwt>
</event>
<event>
12    6  0.1542110E-007  0.2098780E+04  0.7818608E-02  0.8561781E-01
          2   -1    0    0  501    0  0.00000000000E+00  0.00000000000E+00  0.25145099018E+04  0.25145099018E+04  0.00000000000E+00 0. -1.
         -1   -1    0    0    0  501 -0.00000000000E+00 -0.00000000000E+00 -0.43794601800E+03  0.43794601800E+03  0.00000000000E+00 0.  1.
         24    2    1    2    0    0 -0.42106524658E+03 -0.20662803180E+01  0.18800298737E+04  0.19282599870E+04  0.79837583363E+02 0.  0.
        254    2    1    2    0    0  0.42106524658E+03  0.20662803180E+01  0.19653401008E+03  0.10241959329E+04  0.91271653890E+03 0.  0.
         23    2    4    4    0    0  0.47724535382E+03 -0.32770143413E+03  0.30410364155E+03  0.66006683432E+03  0.89765490462E+02 0.  0.
         23    2    4    4    0    0 -0.56180107242E+02  0.32976771445E+03 -0.10756963147E+03  0.36412909855E+03  0.95476828864E+02 0.  0.
          4    1    3    3  502    0 -0.23561573446E+03  0.24043276990E+02  0.90987348142E+03  0.94019285559E+03  0.00000000000E+00 0. -1.
         -3    1    3    3    0  502 -0.18544951212E+03 -0.26109557308E+02  0.97015639232E+03  0.98806713137E+03  0.00000000000E+00 0.  1.
         11    1    5    5    0    0  0.18869128557E+03 -0.16428713810E+03  0.92758915206E+02  0.26683118511E+03  0.00000000000E+00 0. -1.
        -11    1    5    5    0    0  0.28855406826E+03 -0.16341429603E+03  0.21134472635E+03  0.39323564921E+03  0.00000000000E+00 0.  1.
          3    1    6    6  503    0  0.18611598749E+01  0.17093930394E+03 -0.15661920366E+02  0.17166538759E+03  0.00000000000E+00 0. -1.
         -3    1    6    6    0  503 -0.58041267116E+02  0.15882841051E+03 -0.91907711107E+02  0.19246371096E+03  0.00000000000E+00 0.  1.
<mgrwt>
<rscale>  0 0.20987802E+04</rscale>
<asrwt>0</asrwt>
<pdfrwt beam="1">  1        2 0.38684767E+00 0.20987802E+04</pdfrwt>
<pdfrwt beam="2">  1       -1 0.67376312E-01 0.20987802E+04</pdfrwt>
<totfact> 0.79932096E+00</totfact>
</mgrwt>
</event>
<event>
12    6  0.1542110E-007  0.1249073E+04  0.7818608E-02  0.9070955E-01
          2   -1    0    0  501    0  0.00000000000E+00  0.00000000000E+00  0.13491145308E+04  0.13491145308E+04  0.00000000000E+00 0. -1.
         -3   -1    0    0    0  501 -0.00000000000E+00 -0.00000000000E+00 -0.28911266743E+03  0.28911266743E+03  0.00000000000E+00 0.  1.
         24    2    1    2    0    0 -0.19693528515E+03  0.97457996508E+02  0.50724444237E+03  0.55838226343E+03  0.78817892527E+02 0.  0.
        254    2    1    2    0    0  0.19693528515E+03 -0.97457996508E+02  0.55275742096E+03  0.10798449348E+04  0.90124511043E+03 0.  0.
         23    2    4    4    0    0 -0.22183814779E+03 -0.12702188275E+03 -0.10744215487E+03  0.29189592921E+03  0.91173978399E+02 0.  0.
         23    2    4    4    0    0  0.41877343294E+03  0.29563886238E+02  0.66019957583E+03  0.78794900554E+03  0.93567857227E+02 0.  0.
          4    1    3    3  502    0 -0.19907169098E+03  0.78641179624E+02  0.47479072866E+03  0.52080726695E+03  0.00000000000E+00 0. -1.
         -3    1    3    3    0  502  0.21364058299E+01  0.18816816884E+02  0.32453713706E+02  0.37574996485E+02  0.00000000000E+00 0.  1.
         11    1    5    5    0    0 -0.49669620170E+02 -0.38373490693E+02  0.12653053424E+02  0.64028866277E+02  0.00000000000E+00 0. -1.
        -11    1    5    5    0    0 -0.17216852762E+03 -0.88648392053E+02 -0.12009520829E+03  0.22786706294E+03  0.00000000000E+00 0.  1.
          3    1    6    6  503    0  0.20722913010E+03 -0.30973628750E+02  0.34195018422E+03  0.40104015576E+03  0.00000000000E+00 0. -1.
         -3    1    6    6    0  503  0.21154430284E+03  0.60537514988E+02  0.31824939161E+03  0.38690884979E+03  0.00000000000E+00 0.  1.
<mgrwt>
<rscale>  0 0.12490734E+04</rscale>
<asrwt>0</asrwt>
<pdfrwt beam="1">  1        2 0.20755608E+00 0.12490734E+04</pdfrwt>
<pdfrwt beam="2">  1       -3 0.44478873E-01 0.12490734E+04</pdfrwt>
<totfact> 0.49037998E+01</totfact>
</mgrwt>
</event>
<event>
12    6  0.1542110E-007  0.2142085E+04  0.7818608E-02  0.8542928E-01
          2   -1    0    0  501    0  0.00000000000E+00  0.00000000000E+00  0.75833967035E+03  0.75833967035E+03  0.00000000000E+00 0. -1.
         -1   -1    0    0    0  501 -0.00000000000E+00 -0.00000000000E+00 -0.15126887799E+04  0.15126887799E+04  0.00000000000E+00 0.  1.
         24    2    1    2    0    0 -0.66981702927E+03 -0.55222946866E+03 -0.16199482717E+03  0.88667383087E+03  0.79598489679E+02 0.  0.
        254    2    1    2    0    0  0.66981702927E+03  0.55222946866E+03 -0.59235428241E+03  0.13843546194E+04  0.90107817509E+03 0.  0.
         23    2    4    4    0    0  0.33442009650E+02  0.49774882060E+03 -0.53636555934E+03  0.73812691727E+03  0.90945458001E+02 0.  0.
         23    2    4    4    0    0  0.63637501962E+03  0.54480648057E+02 -0.55988723068E+02  0.64622770213E+03  0.80834394203E+02 0.  0.
          4    1    3    3  502    0 -0.63001310636E+03 -0.49128763747E+03 -0.15071031628E+03  0.81301516366E+03  0.00000000000E+00 0. -1.
         -3    1    3    3    0  502 -0.39803922907E+02 -0.60941831195E+02 -0.11284510892E+02  0.73658667204E+02  0.00000000000E+00 0.  1.
         11    1    5    5    0    0  0.13049478767E+02  0.46954176966E+03 -0.47797356460E+03  0.67014811110E+03  0.00000000000E+00 0. -1.
        -11    1    5    5    0    0  0.20392530883E+02  0.28207050940E+02 -0.58391994742E+02  0.67978806171E+02  0.00000000000E+00 0.  1.
          4    1    6    6  503    0  0.52253593632E+03  0.64581941192E+02 -0.69766199097E+02  0.53111388083E+03  0.00000000000E+00 0. -1.
         -4    1    6    6    0  503  0.11383908330E+03 -0.10101293135E+02  0.13777476029E+02  0.11511382130E+03  0.00000000000E+00 0.  1.
<mgrwt>
<rscale>  0 0.21420849E+04</rscale>
<asrwt>0</asrwt>
<pdfrwt beam="1">  1        2 0.11666764E+00 0.21420849E+04</pdfrwt>
<pdfrwt beam="2">  1       -1 0.23272135E+00 0.21420849E+04</pdfrwt>
<totfact> 0.35076336E+00</totfact>
</mgrwt>
</event>
<event>
12    6  0.1542110E-007  0.1787753E+04  0.7818608E-02  0.8712840E-01
         -1   -1    0    0    0  501 -0.00000000000E+00  0.00000000000E+00  0.25263923277E+03  0.25263923277E+03  0.00000000000E+00 0.  1.
          2   -1    0    0  501    0  0.00000000000E+00 -0.00000000000E+00 -0.31626723610E+04  0.31626723610E+04  0.00000000000E+00 0. -1.
         24    2    1    2    0    0  0.11258334771E+03  0.61578034447E+03 -0.67588702568E+03  0.92472785426E+03  0.80236464014E+02 0.  0.
        254    2    1    2    0    0 -0.11258334771E+03 -0.61578034447E+03 -0.22341461026E+04  0.24905837396E+04  0.90539389942E+03 0.  0.
         23    2    4    4    0    0  0.31120759159E+03 -0.33445887681E+03 -0.16320408851E+04  0.16971367644E+04  0.89458599673E+02 0.  0.
         23    2    4    4    0    0 -0.42379093930E+03 -0.28132146766E+03 -0.60210521750E+03  0.79344697515E+03  0.91032307718E+02 0.  0.
          4    1    3    3  502    0  0.42278284389E+01  0.23346942783E+03 -0.26232607821E+03  0.35119911670E+03  0.00000000000E+00 0. -1.
         -3    1    3    3    0  502  0.10835551927E+03  0.38231091664E+03 -0.41356094747E+03  0.57352873756E+03  0.00000000000E+00 0.  1.
         11    1    5    5    0    0  0.24806829169E+02 -0.54316361505E+02 -0.13909273659E+03  0.15136854123E+03  0.00000000000E+00 0.  1.
        -11    1    5    5    0    0  0.28640076242E+03 -0.28014251531E+03 -0.14929481485E+04  0.15457682232E+04  0.00000000000E+00 0. -1.
          2    1    6    6  503    0 -0.52585962477E+02 -0.66044936656E+02 -0.68583434337E+02  0.10876996172E+03  0.00000000000E+00 0. -1.
         -2    1    6    6    0  503 -0.37120497682E+03 -0.21527653100E+03 -0.53352178316E+03  0.68467701343E+03  0.00000000000E+00 0.  1.
<mgrwt>
<rscale>  0 0.17877529E+04</rscale>
<asrwt>0</asrwt>
<pdfrwt beam="1">  1        2 0.48656499E+00 0.17877529E+04</pdfrwt>
<pdfrwt beam="2">  1       -1 0.38867574E-01 0.17877529E+04</pdfrwt>
<totfact> 0.95204840E+00</totfact>
</mgrwt>
</event>
<event>
12    6  0.1542110E-007  0.1449388E+04  0.7818608E-02  0.8918825E-01
         -1   -1    0    0    0  501 -0.00000000000E+00  0.00000000000E+00  0.54091665192E+03  0.54091665192E+03  0.00000000000E+00 0.  1.
          2   -1    0    0  501    0  0.00000000000E+00 -0.00000000000E+00 -0.97090965796E+03  0.97090965796E+03  0.00000000000E+00 0. -1.
         24    2    1    2    0    0  0.25854517045E+03 -0.75086304041E+02  0.22501603178E+03  0.35993159835E+03  0.80218344000E+02 0.  0.
        254    2    1    2    0    0 -0.25854517045E+03  0.75086304041E+02 -0.65500903783E+03  0.11518947115E+04  0.90848281688E+03 0.  0.
         23    2    4    4    0    0  0.29459803035E+03  0.20666580888E+03 -0.28066016458E+03  0.46511781483E+03  0.89809229156E+02 0.  0.
         23    2    4    4    0    0 -0.55314320080E+03 -0.13157950484E+03 -0.37434887325E+03  0.68677689669E+03  0.90801212797E+02 0.  0.
          2    1    3    3  502    0  0.28829568373E+02 -0.15453838677E+01 -0.16804013910E+01  0.28919819721E+02  0.00000000000E+00 0. -1.
         -1    1    3    3    0  502  0.22971560208E+03 -0.73540920174E+02  0.22669643318E+03  0.33101177863E+03  0.00000000000E+00 0.  1.
         11    1    5    5    0    0  0.25234708503E+03  0.13142452786E+03 -0.21111386624E+03  0.35428875563E+03  0.00000000000E+00 0. -1.
        -11    1    5    5    0    0  0.42250945319E+02  0.75241281021E+02 -0.69546298341E+02  0.11082905920E+03  0.00000000000E+00 0.  1.
          1    1    6    6  503    0 -0.32224224987E+03 -0.35861840990E+02 -0.18591244798E+03  0.37375068904E+03  0.00000000000E+00 0. -1.
         -1    1    6    6    0  503 -0.23090095093E+03 -0.95717663850E+02 -0.18843642527E+03  0.31302620766E+03  0.00000000000E+00 0.  1.
<mgrwt>
<rscale>  0 0.14493877E+04</rscale>
<asrwt>0</asrwt>
<pdfrwt beam="1">  1        2 0.14937071E+00 0.14493877E+04</pdfrwt>
<pdfrwt beam="2">  1       -1 0.83217947E-01 0.14493877E+04</pdfrwt>
<totfact> 0.41735641E+01</totfact>
</mgrwt>
</event>
<event>
12    6  0.1542110E-007  0.2790806E+04  0.7818608E-02  0.8306128E-01
         -1   -1    0    0    0  501 -0.00000000000E+00  0.00000000000E+00  0.11794678014E+04  0.11794678014E+04  0.00000000000E+00 0.  1.
          2   -1    0    0  501    0  0.00000000000E+00 -0.00000000000E+00 -0.16508718022E+04  0.16508718022E+04  0.00000000000E+00 0. -1.
         24    2    1    2    0    0  0.77306468419E+03 -0.87543776110E+02  0.79198900742E+03  0.11132678699E+04  0.82618663808E+02 0.  0.
        254    2    1    2    0    0 -0.77306468419E+03  0.87543776110E+02 -0.12633930081E+04  0.17170717337E+04  0.86422249856E+03 0.  0.
         23    2    4    4    0    0 -0.63933769706E+03 -0.32235174791E+03 -0.76030805487E+03  0.10482592045E+04  0.90087076019E+02 0.  0.
         23    2    4    4    0    0 -0.13372698713E+03  0.40989552402E+03 -0.50308495325E+03  0.66881252919E+03  0.91205708792E+02 0.  0.
          2    1    3    3  502    0  0.35121491240E+02 -0.20670147217E+02  0.52087962961E+02  0.66135693981E+02  0.00000000000E+00 0. -1.
         -1    1    3    3    0  502  0.73794319295E+03 -0.66873628893E+02  0.73990104445E+03  0.10471321759E+04  0.00000000000E+00 0.  1.
         11    1    5    5    0    0 -0.36746158109E+03 -0.23455281809E+03 -0.46193669987E+03  0.63516025753E+03  0.00000000000E+00 0. -1.
        -11    1    5    5    0    0 -0.27187611597E+03 -0.87798929823E+02 -0.29837135500E+03  0.41309894698E+03  0.00000000000E+00 0.  1.
          3    1    6    6  503    0 -0.11060376801E+03  0.31991932017E+03 -0.33202538345E+03  0.47415442650E+03  0.00000000000E+00 0. -1.
         -3    1    6    6    0  503 -0.23123219115E+02  0.89976203855E+02 -0.17105956981E+03  0.19465810270E+03  0.00000000000E+00 0.  1.
<mgrwt>
<rscale>  0 0.27908064E+04</rscale>
<asrwt>0</asrwt>
<pdfrwt beam="1">  1        2 0.25398028E+00 0.27908064E+04</pdfrwt>
<pdfrwt beam="2">  1       -1 0.18145658E+00 0.27908064E+04</pdfrwt>
<totfact> 0.21037897E+00</totfact>
</mgrwt>
</event>
<event>
12    6  0.1542110E-007  0.1592775E+04  0.7818608E-02  0.8824999E-01
          2   -1    0    0  501    0  0.00000000000E+00  0.00000000000E+00  0.19204824037E+04  0.19204824037E+04  0.00000000000E+00 0. -1.
         -1   -1    0    0    0  501 -0.00000000000E+00 -0.00000000000E+00 -0.33024657865E+03  0.33024657865E+03  0.00000000000E+00 0.  1.
         24    2    1    2    0    0  0.29482848520E+02 -0.37033055892E+03 -0.10048015685E+02  0.38006124219E+03  0.79571502250E+02 0.  0.
        254    2    1    2    0    0 -0.29482848520E+02  0.37033055892E+03  0.16002838408E+04  0.18706677402E+04  0.89469294281E+03 0.  0.
         23    2    4    4    0    0  0.31767625858E+03 -0.30367344755E+02  0.10477941870E+04  0.10992016667E+04  0.92364845392E+02 0.  0.
         23    2    4    4    0    0 -0.34715910710E+03  0.40069790367E+03  0.55248965372E+03  0.77146607353E+03  0.94004412105E+02 0.  0.
          4    1    3    3  502    0  0.16635275969E+02 -0.23812448869E+02 -0.16181794206E+02  0.33250798358E+02  0.00000000000E+00 0. -1.
         -1    1    3    3    0  502  0.12847572551E+02 -0.34651811005E+03  0.61337785212E+01  0.34681044383E+03  0.00000000000E+00 0.  1.
         11    1    5    5    0    0  0.16506873910E+03  0.16717654240E+02  0.42447866408E+03  0.45575136298E+03  0.00000000000E+00 0.  1.
        -11    1    5    5    0    0  0.15260751948E+03 -0.47084998996E+02  0.62331552296E+03  0.64345030367E+03  0.00000000000E+00 0. -1.
          1    1    6    6  503    0 -0.25829566860E+03  0.35351550737E+03  0.44984448492E+03  0.62773396195E+03  0.00000000000E+00 0. -1.
         -1    1    6    6    0  503 -0.88863438502E+02  0.47182396301E+02  0.10264516880E+03  0.14373211159E+03  0.00000000000E+00 0.  1.
<mgrwt>
<rscale>  0 0.15927746E+04</rscale>
<asrwt>0</asrwt>
<pdfrwt beam="1">  1        2 0.29545883E+00 0.15927746E+04</pdfrwt>
<pdfrwt beam="2">  1       -1 0.50807167E-01 0.15927746E+04</pdfrwt>
<totfact> 0.31475538E+01</totfact>
</mgrwt>
</event>
<event>
12    6  0.1542110E-007  0.1339125E+04  0.7818608E-02  0.8999101E-01
         -1   -1    0    0    0  501 -0.00000000000E+00  0.00000000000E+00  0.10328338353E+04  0.10328338353E+04  0.00000000000E+00 0.  1.
          2   -1    0    0  501    0  0.00000000000E+00 -0.00000000000E+00 -0.43406197874E+03  0.43406197874E+03  0.00000000000E+00 0. -1.
         24    2    1    2    0    0 -0.15654731856E+03 -0.24546269672E+03 -0.51168913119E+02  0.30531106292E+03  0.76404116687E+02 0.  0.
        254    2    1    2    0    0  0.15654731856E+03  0.24546269672E+03  0.64994076966E+03  0.11615847511E+04  0.91765850483E+03 0.  0.
         23    2    4    4    0    0  0.44115572223E+03 -0.12476303418E+03  0.43785770657E+03  0.64062216250E+03  0.92158547761E+02 0.  0.
         23    2    4    4    0    0 -0.28460840368E+03  0.37022573090E+03  0.21208306309E+03  0.52096258860E+03  0.91398893925E+02 0.  0.
          4    1    3    3  502    0 -0.13965559962E+03 -0.15535891403E+03 -0.42934857300E+02  0.21326856459E+03  0.00000000000E+00 0. -1.
         -3    1    3    3    0  502 -0.16891718940E+02 -0.90103782688E+02 -0.82340558198E+01  0.92042498329E+02  0.00000000000E+00 0.  1.
         11    1    5    5    0    0  0.61774414631E+02  0.12230267659E+02  0.76370782570E+02  0.98985626130E+02  0.00000000000E+00 0.  1.
        -11    1    5    5    0    0  0.37938130760E+03 -0.13699330184E+03  0.36148692400E+03  0.54163653637E+03  0.00000000000E+00 0. -1.
          1    1    6    6  503    0 -0.28737200948E+03  0.33964994420E+03  0.19432916907E+03  0.48549828257E+03  0.00000000000E+00 0. -1.
         -1    1    6    6    0  503  0.27636058067E+01  0.30575786694E+02  0.17753894026E+02  0.35464306029E+02  0.00000000000E+00 0.  1.
<mgrwt>
<rscale>  0 0.13391249E+04</rscale>
<asrwt>0</asrwt>
<pdfrwt beam="1">  1        2 0.66778766E-01 0.13391249E+04</pdfrwt>
<pdfrwt beam="2">  1       -1 0.15889751E+00 0.13391249E+04</pdfrwt>
<totfact> 0.24147202E+01</totfact>
</mgrwt>
</event>
<event>
12    6  0.1542110E-007  0.1767544E+04  0.7818608E-02  0.8723752E-01
          2   -1    0    0  501    0  0.00000000000E+00  0.00000000000E+00  0.15474811378E+04  0.15474811378E+04  0.00000000000E+00 0. -1.
         -1   -1    0    0    0  501 -0.00000000000E+00 -0.00000000000E+00 -0.50472546423E+03  0.50472546423E+03  0.00000000000E+00 0.  1.
         24    2    1    2    0    0 -0.35123563424E+03  0.51000765552E+03  0.62469085657E+03  0.88289026681E+03  0.76041288094E+02 0.  0.
        254    2    1    2    0    0  0.35123563424E+03 -0.51000765552E+03  0.41806481697E+03  0.11693163352E+04  0.89947107853E+03 0.  0.
         23    2    4    4    0    0  0.58858540663E+03 -0.44397918246E+03  0.87764548647E+02  0.74783927214E+03  0.89502321728E+02 0.  0.
         23    2    4    4    0    0 -0.23734977240E+03 -0.66028473059E+02  0.33030026832E+03  0.42147706305E+03  0.88600077390E+02 0.  0.
          2    1    3    3  502    0 -0.47498449056E+02  0.91582283975E+02  0.14225370741E+03  0.17572573708E+03  0.00000000000E+00 0. -1.
         -1    1    3    3    0  502 -0.30373718518E+03  0.41842537155E+03  0.48243714916E+03  0.70716452973E+03  0.00000000000E+00 0.  1.
         11    1    5    5    0    0  0.18243543828E+03 -0.11074398196E+03 -0.91561173226E+01  0.21361356035E+03  0.00000000000E+00 0. -1.
        -11    1    5    5    0    0  0.40614996836E+03 -0.33323520050E+03  0.96920665969E+02  0.53422571180E+03  0.00000000000E+00 0.  1.
          3    1    6    6  503    0 -0.40558043829E+02 -0.49053194501E+02  0.68263103366E+02  0.93332856440E+02  0.00000000000E+00 0. -1.
         -3    1    6    6    0  503 -0.19679172857E+03 -0.16975278558E+02  0.26203716496E+03  0.32814420661E+03  0.00000000000E+00 0.  1.
<mgrwt>
<rscale>  0 0.17675442E+04</rscale>
<asrwt>0</asrwt>
<pdfrwt beam="1">  1        2 0.23807402E+00 0.17675442E+04</pdfrwt>
<pdfrwt beam="2">  1       -1 0.77650072E-01 0.17675442E+04</pdfrwt>
<totfact> 0.21389728E+01</totfact>
</mgrwt>
</event>
<event>
12    6  0.2259564E-007  0.2670635E+04  0.7818608E-02  0.8344596E-01
         -1   -1    0    0    0  501 -0.00000000000E+00  0.00000000000E+00  0.87031924783E+03  0.87031924783E+03  0.00000000000E+00 0.  1.
          2   -1    0    0  501    0  0.00000000000E+00 -0.00000000000E+00 -0.20487579519E+04  0.20487579519E+04  0.00000000000E+00 0. -1.
         24    2    1    2    0    0  0.36489497390E+02 -0.49390209697E+02  0.75804613769E+03  0.76453635563E+03  0.78172987551E+02 0.  0.
        254    2    1    2    0    0 -0.36489497390E+02  0.49390209697E+02 -0.19364848418E+04  0.21545408441E+04  0.94249765532E+03 0.  0.
         23    2    4    4    0    0 -0.59765088235E+02  0.29800577824E+03 -0.15496188858E+03  0.35328922225E+03  0.91764797207E+02 0.  0.
         23    2    4    4    0    0  0.23275590845E+02 -0.24861556855E+03 -0.17815229532E+04  0.18012516218E+04  0.91279342931E+02 0.  0.
          2    1    3    3  502    0  0.24107464904E+02  0.16597902539E+01  0.62490091942E+02  0.66999525063E+02  0.00000000000E+00 0. -1.
         -1    1    3    3    0  502  0.12382032486E+02 -0.51049999951E+02  0.69555604575E+03  0.69753683057E+03  0.00000000000E+00 0.  1.
         11    1    5    5    0    0  0.23648285651E+01  0.12204946787E+03 -0.10264225002E+03  0.15949011415E+03  0.00000000000E+00 0. -1.
        -11    1    5    5    0    0 -0.62129916800E+02  0.17595631037E+03 -0.52319638558E+02  0.19379910810E+03  0.00000000000E+00 0.  1.
          3    1    6    6  503    0  0.15034226892E+02 -0.23962382982E+02 -0.78226916028E+02  0.83184578905E+02  0.00000000000E+00 0. -1.
         -3    1    6    6    0  503  0.82413639532E+01 -0.22465318557E+03 -0.17032960372E+04  0.17180670429E+04  0.00000000000E+00 0.  1.
<mgrwt>
<rscale>  0 0.26706355E+04</rscale>
<asrwt>0</asrwt>
<pdfrwt beam="1">  1        2 0.31519352E+00 0.26706355E+04</pdfrwt>
<pdfrwt beam="2">  1       -1 0.13389527E+00 0.26706355E+04</pdfrwt>
<totfact> 0.29537291E+00</totfact>
</mgrwt>
</event>
<event>
12    6  0.1542110E-007  0.1785389E+04  0.7818608E-02  0.8714108E-01
          2   -1    0    0  501    0  0.00000000000E+00  0.00000000000E+00  0.14444520511E+04  0.14444520511E+04  0.00000000000E+00 0. -1.
         -1   -1    0    0    0  501 -0.00000000000E+00 -0.00000000000E+00 -0.55169978760E+03  0.55169978760E+03  0.00000000000E+00 0.  1.
         24    2    1    2    0    0 -0.36630583478E+03  0.40510820668E+03 -0.81974425584E+02  0.55768726955E+03  0.77476838195E+02 0.  0.
        254    2    1    2    0    0  0.36630583478E+03 -0.40510820668E+03  0.97472668909E+03  0.14384645691E+04  0.90597768988E+03 0.  0.
         23    2    4    4    0    0  0.61460709661E+03 -0.13902209861E+03  0.80522144311E+03  0.10266092173E+04  0.92064572902E+02 0.  0.
         23    2    4    4    0    0 -0.24830126183E+03 -0.26608610807E+03  0.16950524598E+03  0.41185535180E+03  0.91855695838E+02 0.  0.
          2    1    3    3  502    0 -0.36085489963E+02  0.52404212628E+02 -0.34021500981E+02  0.72151414512E+02  0.00000000000E+00 0. -1.
         -1    1    3    3    0  502 -0.33022034482E+03  0.35270399405E+03 -0.47952924603E+02  0.48553585504E+03  0.00000000000E+00 0.  1.
         11    1    5    5    0    0  0.53896386797E+02  0.10853726117E+02  0.51628610573E+02  0.75419740852E+02  0.00000000000E+00 0. -1.
        -11    1    5    5    0    0  0.56071070982E+03 -0.14987582473E+03  0.75359283253E+03  0.95118947649E+03  0.00000000000E+00 0.  1.
          1    1    6    6  503    0 -0.89830958014E+02 -0.16161433543E+03  0.95726632292E+02  0.20821234969E+03  0.00000000000E+00 0. -1.
         -1    1    6    6    0  503 -0.15847030382E+03 -0.10447177264E+03  0.73778613688E+02  0.20364300211E+03  0.00000000000E+00 0.  1.
<mgrwt>
<rscale>  0 0.17853895E+04</rscale>
<asrwt>0</asrwt>
<pdfrwt beam="1">  1        2 0.22222339E+00 0.17853895E+04</pdfrwt>
<pdfrwt beam="2">  1       -1 0.84876891E-01 0.17853895E+04</pdfrwt>
<totfact> 0.20191447E+01</totfact>
</mgrwt>
</event>
<event>
12    6  0.1542110E-007  0.2132243E+04  0.7818608E-02  0.8547172E-01
         -1   -1    0    0    0  501 -0.00000000000E+00  0.00000000000E+00  0.60115387699E+03  0.60115387699E+03  0.00000000000E+00 0.  1.
          2   -1    0    0  501    0  0.00000000000E+00 -0.00000000000E+00 -0.18907224827E+04  0.18907224827E+04  0.00000000000E+00 0. -1.
         24    2    1    2    0    0  0.63376984537E+02  0.43940051565E+02 -0.15415609676E+04  0.15455776478E+04  0.80328563178E+02 0.  0.
        254    2    1    2    0    0 -0.63376984537E+02 -0.43940051565E+02  0.25199236192E+03  0.94629871192E+03  0.90886397850E+03 0.  0.
         23    2    4    4    0    0 -0.17822513977E+03  0.38742484174E+03  0.26704218913E+02  0.43793459813E+03  0.95975978720E+02 0.  0.
         23    2    4    4    0    0  0.11484815524E+03 -0.43136489330E+03  0.22528814301E+03  0.50836411379E+03  0.91725431974E+02 0.  0.
          4    1    3    3  502    0  0.24401333990E+02  0.60860131952E+02 -0.11083794492E+04  0.11103172448E+04  0.00000000000E+00 0. -1.
         -3    1    3    3    0  502  0.38975650547E+02 -0.16920080386E+02 -0.43318151841E+03  0.43526040292E+03  0.00000000000E+00 0.  1.
         11    1    5    5    0    0 -0.55136792715E+02  0.15528247466E+03  0.54862650280E+02  0.17367389914E+03  0.00000000000E+00 0.  1.
        -11    1    5    5    0    0 -0.12308834706E+03  0.23214236707E+03 -0.28158431367E+02  0.26426069899E+03  0.00000000000E+00 0. -1.
          1    1    6    6  503    0  0.47746345619E+02 -0.81474685721E+02  0.17850221388E+02  0.96106546795E+02  0.00000000000E+00 0. -1.
         -1    1    6    6    0  503  0.67101809618E+02 -0.34989020758E+03  0.20743792162E+03  0.41225756699E+03  0.00000000000E+00 0.  1.
<mgrwt>
<rscale>  0 0.21322431E+04</rscale>
<asrwt>0</asrwt>
<pdfrwt beam="1">  1        2 0.29088038E+00 0.21322431E+04</pdfrwt>
<pdfrwt beam="2">  1       -1 0.92485214E-01 0.21322431E+04</pdfrwt>
<totfact> 0.91423162E+00</totfact>
</mgrwt>
</event>
<event>
12    6  0.1542110E-007  0.1567289E+04  0.7818608E-02  0.8840899E-01
         -1   -1    0    0    0  501 -0.00000000000E+00  0.00000000000E+00  0.92363420012E+03  0.92363420012E+03  0.00000000000E+00 0.  1.
          2   -1    0    0  501    0  0.00000000000E+00 -0.00000000000E+00 -0.66487224504E+03  0.66487224504E+03  0.00000000000E+00 0. -1.
         24    2    1    2    0    0 -0.27346538456E+03  0.75783611236E+02 -0.35970408742E+03  0.46541433017E+03  0.81835175394E+02 0.  0.
        254    2    1    2    0    0  0.27346538456E+03 -0.75783611236E+02  0.61846604250E+03  0.11230921150E+04  0.89348149435E+03 0.  0.
         23    2    4    4    0    0 -0.31664010876E+03 -0.68408523260E+02  0.27265863981E+03  0.43319278527E+03  0.91501753096E+02 0.  0.
         23    2    4    4    0    0  0.59010549332E+03 -0.73750879757E+01  0.34580740269E+03  0.68989932973E+03  0.89996890110E+02 0.  0.
          4    1    3    3  502    0 -0.22106908235E+03  0.93327419925E+02 -0.28712816944E+03  0.37419798525E+03  0.00000000000E+00 0. -1.
         -3    1    3    3    0  502 -0.52396302214E+02 -0.17543808689E+02 -0.72575917988E+02  0.91216344921E+02  0.00000000000E+00 0.  1.
         11    1    5    5    0    0 -0.15490187306E+03 -0.28312407080E+02  0.19125147344E+03  0.24773636948E+03  0.00000000000E+00 0.  1.
        -11    1    5    5    0    0 -0.16173823570E+03 -0.40096116180E+02  0.81407166364E+02  0.18545641579E+03  0.00000000000E+00 0. -1.
          3    1    6    6  503    0  0.45908863872E+03  0.21450074859E+02  0.29671382915E+03  0.54704806034E+03  0.00000000000E+00 0. -1.
         -3    1    6    6    0  503  0.13101685460E+03 -0.28825162835E+02  0.49093573544E+02  0.14285126939E+03  0.00000000000E+00 0.  1.
<mgrwt>
<rscale>  0 0.15672891E+04</rscale>
<asrwt>0</asrwt>
<pdfrwt beam="1">  1        2 0.10228804E+00 0.15672891E+04</pdfrwt>
<pdfrwt beam="2">  1       -1 0.14209757E+00 0.15672891E+04</pdfrwt>
<totfact> 0.19352332E+01</totfact>
</mgrwt>
</event>
<event>
12    6  0.1542110E-007  0.2098227E+04  0.7818608E-02  0.8562025E-01
          2   -1    0    0  501    0  0.00000000000E+00  0.00000000000E+00  0.83435153506E+03  0.83435153506E+03  0.00000000000E+00 0. -1.
         -1   -1    0    0    0  501 -0.00000000000E+00 -0.00000000000E+00 -0.13191549332E+04  0.13191549332E+04  0.00000000000E+00 0.  1.
         24    2    1    2    0    0  0.67415170053E+03  0.85754378221E+02 -0.75626972320E+03  0.10197849263E+04  0.78632518928E+02 0.  0.
        254    2    1    2    0    0 -0.67415170053E+03 -0.85754378221E+02  0.27146632505E+03  0.11337215419E+04  0.86590775506E+03 0.  0.
         23    2    4    4    0    0 -0.13149885729E+03 -0.42011715031E+03  0.45609247875E+02  0.45189000281E+03  0.91290753621E+02 0.  0.
         23    2    4    4    0    0 -0.54265284324E+03  0.33436277209E+03  0.22585707718E+03  0.68183153911E+03  0.87248247995E+02 0.  0.
          2    1    3    3  502    0  0.39667853071E+02 -0.13172431775E+02 -0.40924952382E+02  0.58497036280E+02  0.00000000000E+00 0. -1.
         -1    1    3    3    0  502  0.63448384746E+03  0.98926809997E+02 -0.71534477082E+03  0.96128789005E+03  0.00000000000E+00 0.  1.
         11    1    5    5    0    0 -0.70575508805E+01 -0.77988649655E+02 -0.22588911566E+02  0.81500290952E+02  0.00000000000E+00 0.  1.
        -11    1    5    5    0    0 -0.12444130641E+03 -0.34212850066E+03  0.68198159440E+02  0.37038971186E+03  0.00000000000E+00 0. -1.
          4    1    6    6  503    0 -0.22163248061E+03  0.11017593364E+03  0.12606150211E+03  0.27776103962E+03  0.00000000000E+00 0.  1.
         -4    1    6    6    0  503 -0.32102036263E+03  0.22418683845E+03  0.99795575065E+02  0.40407049949E+03  0.00000000000E+00 0. -1.
<mgrwt>
<rscale>  0 0.20982268E+04</rscale>
<asrwt>0</asrwt>
<pdfrwt beam="1">  1        2 0.12836178E+00 0.20982268E+04</pdfrwt>
<pdfrwt beam="2">  1       -1 0.20294691E+00 0.20982268E+04</pdfrwt>
<totfact> 0.49167350E+00</totfact>
</mgrwt>
</event>
<event>
12    6  0.1542110E-007  0.2224802E+04  0.7818608E-02  0.8508175E-01
          2   -1    0    0  501    0  0.00000000000E+00  0.00000000000E+00  0.30236231577E+04  0.30236231577E+04  0.00000000000E+00 0. -1.
         -1   -1    0    0    0  501 -0.00000000000E+00 -0.00000000000E+00 -0.40925604753E+03  0.40925604753E+03  0.00000000000E+00 0.  1.
         24    2    1    2    0    0 -0.63446630769E+02  0.85138897351E+03  0.14758313951E+04  0.17068424206E+04  0.79649752049E+02 0.  0.
        254    2    1    2    0    0  0.63446630769E+02 -0.85138897351E+03  0.11385357151E+04  0.17260367846E+04  0.97675521399E+03 0.  0.
         23    2    4    4    0    0  0.24054137071E+03  0.13252968739E+03  0.19528727004E+03  0.34853156725E+03  0.88954294222E+02 0.  0.
         23    2    4    4    0    0 -0.17709473995E+03 -0.98391866090E+03  0.94324844505E+03  0.13775052173E+04  0.91348325312E+02 0.  0.
          2    1    3    3  502    0 -0.49590017250E+02  0.26030529561E+03  0.49970136092E+03  0.56561423854E+03  0.00000000000E+00 0. -1.
         -1    1    3    3    0  502 -0.13856613519E+02  0.59108367790E+03  0.97613003418E+03  0.11412281821E+04  0.00000000000E+00 0.  1.
         11    1    5    5    0    0  0.11946627427E+03  0.11584605022E+03  0.10932192169E+03  0.19910745994E+03  0.00000000000E+00 0. -1.
        -11    1    5    5    0    0  0.12107509644E+03  0.16683637170E+02  0.85965348350E+02  0.14942410731E+03  0.00000000000E+00 0.  1.
          3    1    6    6  503    0 -0.11665323147E+03 -0.66999963963E+03  0.58198723697E+03  0.89510705366E+03  0.00000000000E+00 0. -1.
         -3    1    6    6    0  503 -0.60441508474E+02 -0.31391902127E+03  0.36126120808E+03  0.48239816368E+03  0.00000000000E+00 0.  1.
<mgrwt>
<rscale>  0 0.22248021E+04</rscale>
<asrwt>0</asrwt>
<pdfrwt beam="1">  1        2 0.46517278E+00 0.22248021E+04</pdfrwt>
<pdfrwt beam="2">  1       -1 0.62962471E-01 0.22248021E+04</pdfrwt>
<totfact> 0.44734086E+00</totfact>
</mgrwt>
</event>
<event>
12    6  0.1542110E-007  0.3090468E+04  0.7818608E-02  0.8218359E-01
         -1   -1    0    0    0  501 -0.00000000000E+00  0.00000000000E+00  0.81116984045E+03  0.81116984045E+03  0.00000000000E+00 0.  1.
          2   -1    0    0  501    0  0.00000000000E+00 -0.00000000000E+00 -0.29435863304E+04  0.29435863304E+04  0.00000000000E+00 0. -1.
         24    2    1    2    0    0  0.17631617856E+03 -0.13532451174E+04 -0.53460107541E+03  0.14677247983E+04  0.77833354255E+02 0.  0.
        254    2    1    2    0    0 -0.17631617856E+03  0.13532451174E+04 -0.15978154145E+04  0.22870313725E+04  0.90285029616E+03 0.  0.
         23    2    4    4    0    0 -0.47664721382E+03  0.10548481864E+04 -0.91408522713E+03  0.14777188894E+04  0.90576215974E+02 0.  0.
         23    2    4    4    0    0  0.30033103526E+03  0.29839693108E+03 -0.68373018739E+03  0.80931248312E+03  0.90886010799E+02 0.  0.
          4    1    3    3  502    0  0.74344008008E+02 -0.31683764337E+03 -0.13241954566E+03  0.35135176086E+03  0.00000000000E+00 0. -1.
         -3    1    3    3    0  502  0.10197217055E+03 -0.10364074741E+04 -0.40218152975E+03  0.11163730375E+04  0.00000000000E+00 0.  1.
         11    1    5    5    0    0 -0.28771012035E+03  0.73646663779E+03 -0.61021620878E+03  0.99876125445E+03  0.00000000000E+00 0. -1.
        -11    1    5    5    0    0 -0.18893709347E+03  0.31838154858E+03 -0.30386901835E+03  0.47895763495E+03  0.00000000000E+00 0.  1.
          2    1    6    6  503    0 -0.25055393371E+01  0.20059271201E+02 -0.48491055409E+02  0.52536030904E+02  0.00000000000E+00 0. -1.
         -2    1    6    6    0  503  0.30283657460E+03  0.27833765988E+03 -0.63523913198E+03  0.75677645221E+03  0.00000000000E+00 0.  1.
<mgrwt>
<rscale>  0 0.30904682E+04</rscale>
<asrwt>0</asrwt>
<pdfrwt beam="1">  1        2 0.45285943E+00 0.30904682E+04</pdfrwt>
<pdfrwt beam="2">  1       -1 0.12479536E+00 0.30904682E+04</pdfrwt>
<totfact> 0.10235554E+00</totfact>
</mgrwt>
</event>
<event>
12    6  0.1542110E-007  0.2297484E+04  0.7818608E-02  0.8478914E-01
          2   -1    0    0  501    0  0.00000000000E+00  0.00000000000E+00  0.26327578124E+04  0.26327578124E+04  0.00000000000E+00 0. -1.
         -1   -1    0    0    0  501 -0.00000000000E+00 -0.00000000000E+00 -0.50122666035E+03  0.50122666035E+03  0.00000000000E+00 0.  1.
         24    2    1    2    0    0 -0.28180796494E+03  0.85649162216E+03  0.14347635443E+04  0.16964088561E+04  0.79138808650E+02 0.  0.
        254    2    1    2    0    0  0.28180796494E+03 -0.85649162216E+03  0.69676760775E+03  0.14375756167E+04  0.87643877510E+03 0.  0.
         23    2    4    4    0    0  0.37274562681E+03 -0.67619648495E+03  0.86246239939E+03  0.11611436634E+04  0.90731626947E+02 0.  0.
         23    2    4    4    0    0 -0.90937661869E+02 -0.18029513721E+03 -0.16569479164E+03  0.27643195327E+03  0.90464722190E+02 0.  0.
          2    1    3    3  502    0 -0.21032757406E+03  0.54607510126E+03  0.97357378953E+03  0.11359056423E+04  0.00000000000E+00 0. -1.
         -1    1    3    3    0  502 -0.71480390886E+02  0.31041652090E+03  0.46118975482E+03  0.56050321380E+03  0.00000000000E+00 0.  1.
         11    1    5    5    0    0  0.36607292603E+03 -0.67014962382E+03  0.86273080983E+03  0.11521346951E+04  0.00000000000E+00 0.  1.
        -11    1    5    5    0    0  0.66727007834E+01 -0.60468611262E+01 -0.26841043977E+00  0.90089682754E+01  0.00000000000E+00 0. -1.
          3    1    6    6  503    0 -0.15987466643E+01 -0.91062663897E+02 -0.44322869825E+02  0.10128909880E+03  0.00000000000E+00 0. -1.
         -3    1    6    6    0  503 -0.89338915205E+02 -0.89232473316E+02 -0.12137192182E+03  0.17514285446E+03  0.00000000000E+00 0.  1.
<mgrwt>
<rscale>  0 0.22974842E+04</rscale>
<asrwt>0</asrwt>
<pdfrwt beam="1">  1        2 0.40503966E+00 0.22974842E+04</pdfrwt>
<pdfrwt beam="2">  1       -1 0.77111795E-01 0.22974842E+04</pdfrwt>
<totfact> 0.50655264E+00</totfact>
</mgrwt>
</event>
<event>
12    6  0.1542110E-007  0.1456390E+04  0.7818608E-02  0.8913982E-01
         -1   -1    0    0    0  501 -0.00000000000E+00  0.00000000000E+00  0.28260640617E+03  0.28260640617E+03  0.00000000000E+00 0.  1.
          2   -1    0    0  501    0  0.00000000000E+00 -0.00000000000E+00 -0.18763485650E+04  0.18763485650E+04  0.00000000000E+00 0. -1.
         24    2    1    2    0    0  0.10754170430E+03  0.39204507031E+03 -0.74917380593E+03  0.85606348517E+03  0.79490526571E+02 0.  0.
        254    2    1    2    0    0 -0.10754170430E+03 -0.39204507031E+03 -0.84456835286E+03  0.13028914860E+04  0.90496738407E+03 0.  0.
         23    2    4    4    0    0 -0.40686424825E+03 -0.24479535150E+03 -0.11848179918E+03  0.49824225704E+03  0.93510049446E+02 0.  0.
         23    2    4    4    0    0  0.29932254395E+03 -0.14724971881E+03 -0.72608655367E+03  0.80464922892E+03  0.94774644134E+02 0.  0.
          2    1    3    3  502    0  0.10672338553E+03  0.38067002235E+03 -0.74590453928E+03  0.84419969714E+03  0.00000000000E+00 0. -1.
         -1    1    3    3    0  502  0.81831876954E+00  0.11375047965E+02 -0.32692666527E+01  0.11863788023E+02  0.00000000000E+00 0.  1.
         11    1    5    5    0    0 -0.23895577982E+03 -0.10541323770E+03 -0.98411665887E+02  0.27909975165E+03  0.00000000000E+00 0.  1.
        -11    1    5    5    0    0 -0.16790846843E+03 -0.13938211380E+03 -0.20070133297E+02  0.21914250539E+03  0.00000000000E+00 0. -1.
          4    1    6    6  503    0  0.25160577684E+03 -0.10246232021E+03 -0.64877379405E+03  0.70335725620E+03  0.00000000000E+00 0. -1.
         -4    1    6    6    0  503  0.47716767114E+02 -0.44787398604E+02 -0.77312759620E+02  0.10129197272E+03  0.00000000000E+00 0.  1.
<mgrwt>
<rscale>  0 0.14563902E+04</rscale>
<asrwt>0</asrwt>
<pdfrwt beam="1">  1        2 0.28866901E+00 0.14563902E+04</pdfrwt>
<pdfrwt beam="2">  1       -1 0.43477909E-01 0.14563902E+04</pdfrwt>
<totfact> 0.45136964E+01</totfact>
</mgrwt>
</event>
<event>
12    6  0.1542110E-007  0.1367836E+04  0.7818608E-02  0.8977435E-01
         -1   -1    0    0    0  501 -0.00000000000E+00  0.00000000000E+00  0.38637035576E+03  0.38637035576E+03  0.00000000000E+00 0.  1.
          2   -1    0    0  501    0  0.00000000000E+00 -0.00000000000E+00 -0.12106099118E+04  0.12106099118E+04  0.00000000000E+00 0. -1.
         24    2    1    2    0    0  0.64682862023E+02 -0.34806116740E+03 -0.41960993319E+03  0.55499116865E+03  0.81315757116E+02 0.  0.
        254    2    1    2    0    0 -0.64682862023E+02  0.34806116740E+03 -0.40462962280E+03  0.10419890989E+04  0.89257251897E+03 0.  0.
         23    2    4    4    0    0  0.21589756839E+03  0.58646088806E+02 -0.55383914530E+03  0.60426794680E+03  0.91382869775E+02 0.  0.
         23    2    4    4    0    0 -0.28058043042E+03  0.28941507860E+03  0.14920952250E+03  0.43772115207E+03  0.82763879286E+02 0.  0.
          2    1    3    3  502    0  0.76393815383E+02 -0.21508178154E+03 -0.28862129658E+03  0.36796527094E+03  0.00000000000E+00 0. -1.
         -1    1    3    3    0  502 -0.11710953360E+02 -0.13297938587E+03 -0.13098863661E+03  0.18702589771E+03  0.00000000000E+00 0.  1.
         11    1    5    5    0    0  0.14672089255E+03  0.77877620012E+02 -0.33444804300E+03  0.37342661592E+03  0.00000000000E+00 0.  1.
        -11    1    5    5    0    0  0.69176675843E+02 -0.19231531207E+02 -0.21939110230E+03  0.23084133088E+03  0.00000000000E+00 0. -1.
          1    1    6    6  503    0 -0.13012442131E+02 -0.21082344916E+01 -0.33983270742E+01  0.13613116094E+02  0.00000000000E+00 0. -1.
         -1    1    6    6    0  503 -0.26756798828E+03  0.29152331309E+03  0.15260784958E+03  0.42410803598E+03  0.00000000000E+00 0.  1.
<mgrwt>
<rscale>  0 0.13678359E+04</rscale>
<asrwt>0</asrwt>
<pdfrwt beam="1">  1        2 0.18624768E+00 0.13678359E+04</pdfrwt>
<pdfrwt beam="2">  1       -1 0.59441594E-01 0.13678359E+04</pdfrwt>
<totfact> 0.59567145E+01</totfact>
</mgrwt>
</event>
<event>
12    6  0.1542110E-007  0.2003486E+04  0.7818608E-02  0.8604992E-01
         -1   -1    0    0    0  501 -0.00000000000E+00  0.00000000000E+00  0.41051713871E+03  0.41051713871E+03  0.00000000000E+00 0.  1.
          2   -1    0    0  501    0  0.00000000000E+00 -0.00000000000E+00 -0.24444516317E+04  0.24444516317E+04  0.00000000000E+00 0. -1.
         24    2    1    2    0    0  0.59944247660E+03  0.31438997037E+03 -0.15004534431E+04  0.16487876529E+04  0.94698750211E+02 0.  0.
        254    2    1    2    0    0 -0.59944247660E+03 -0.31438997037E+03 -0.53348104994E+03  0.12061811175E+04  0.84385930191E+03 0.  0.
         23    2    4    4    0    0  0.12075773538E+03  0.31426806195E+02  0.10138652072E+03  0.18116609205E+03  0.83497613869E+02 0.  0.
         23    2    4    4    0    0 -0.72020021198E+03 -0.34581677656E+03 -0.63486757066E+03  0.10250150255E+04  0.96547303990E+02 0.  0.
          2    1    3    3  502    0  0.47751379096E+03  0.27887745181E+03 -0.12805570504E+04  0.13948542623E+04  0.00000000000E+00 0. -1.
         -1    1    3    3    0  502  0.12192868564E+03  0.35512518560E+02 -0.21989639266E+03  0.25393339059E+03  0.00000000000E+00 0.  1.
         11    1    5    5    0    0  0.86197868022E+02 -0.11252348584E+02  0.89911169427E+02  0.12506280897E+03  0.00000000000E+00 0.  1.
        -11    1    5    5    0    0  0.34559867359E+02  0.42679154779E+02  0.11475351292E+02  0.56103283075E+02  0.00000000000E+00 0. -1.
          1    1    6    6  503    0 -0.24884190302E+03 -0.12539327827E+03 -0.16451787617E+03  0.32359217932E+03  0.00000000000E+00 0. -1.
         -1    1    6    6    0  503 -0.47135830896E+03 -0.22042349829E+03 -0.47034969449E+03  0.70142284617E+03  0.00000000000E+00 0.  1.
<mgrwt>
<rscale>  0 0.20034863E+04</rscale>
<asrwt>0</asrwt>
<pdfrwt beam="1">  1        2 0.37606947E+00 0.20034863E+04</pdfrwt>
<pdfrwt beam="2">  1       -1 0.63156484E-01 0.20034863E+04</pdfrwt>
<totfact> 0.10081332E+01</totfact>
</mgrwt>
</event>
<event>
12    6  0.1542110E-007  0.2700618E+04  0.7818608E-02  0.8334805E-01
          2   -1    0    0  501    0  0.00000000000E+00  0.00000000000E+00  0.19264359469E+04  0.19264359469E+04  0.00000000000E+00 0. -1.
         -1   -1    0    0    0  501 -0.00000000000E+00 -0.00000000000E+00 -0.94648062245E+03  0.94648062245E+03  0.00000000000E+00 0.  1.
         24    2    1    2    0    0 -0.66268631100E+02 -0.43646348866E+03 -0.74929266568E+03  0.87330306459E+03  0.79541406676E+02 0.  0.
        254    2    1    2    0    0  0.66268631100E+02  0.43646348866E+03  0.17292479901E+04  0.19996135047E+04  0.90181131546E+03 0.  0.
         23    2    4    4    0    0 -0.15100530071E+03 -0.22715518060E+03  0.36754856918E+03  0.46672346459E+03  0.91305885751E+02 0.  0.
         23    2    4    4    0    0  0.21727393181E+03  0.66361866926E+03  0.13616994209E+04  0.15328900402E+04  0.89044161218E+02 0.  0.
          4    1    3    3  502    0  0.86607738193E+01 -0.27217006582E+02 -0.83055069128E+02  0.87828918690E+02  0.00000000000E+00 0. -1.
         -3    1    3    3    0  502 -0.74929404919E+02 -0.40924648208E+03 -0.66623759655E+03  0.78547414590E+03  0.00000000000E+00 0.  1.
         11    1    5    5    0    0 -0.14394774207E+03 -0.22139959870E+03  0.37230171824E+03  0.45645076860E+03  0.00000000000E+00 0. -1.
        -11    1    5    5    0    0 -0.70575586425E+01 -0.57555819050E+01 -0.47531490533E+01  0.10272695994E+02  0.00000000000E+00 0.  1.
          1    1    6    6  503    0  0.15753975341E+03  0.35969294028E+03  0.71097330158E+03  0.81220737546E+03  0.00000000000E+00 0. -1.
         -1    1    6    6    0  503  0.59734178400E+02  0.30392572898E+03  0.65072611934E+03  0.72068266470E+03  0.00000000000E+00 0.  1.
<mgrwt>
<rscale>  0 0.27006179E+04</rscale>
<asrwt>0</asrwt>
<pdfrwt beam="1">  1        2 0.29637476E+00 0.27006179E+04</pdfrwt>
<pdfrwt beam="2">  1       -1 0.14561240E+00 0.27006179E+04</pdfrwt>
<totfact> 0.27685185E+00</totfact>
</mgrwt>
</event>
<event>
12    6  0.1542110E-007  0.1344258E+04  0.7818608E-02  0.8995186E-01
          2   -1    0    0  501    0  0.00000000000E+00  0.00000000000E+00  0.68439551842E+03  0.68439551842E+03  0.00000000000E+00 0. -1.
         -1   -1    0    0    0  501 -0.00000000000E+00 -0.00000000000E+00 -0.66008233206E+03  0.66008233206E+03  0.00000000000E+00 0.  1.
         24    2    1    2    0    0 -0.19817018115E+03  0.13279473208E+03 -0.26797669503E+03  0.36714812321E+03  0.77976751272E+02 0.  0.
        254    2    1    2    0    0  0.19817018115E+03 -0.13279473208E+03  0.29228988139E+03  0.97732972726E+03  0.90157315813E+03 0.  0.
         23    2    4    4    0    0  0.53228795830E+02  0.37056210670E+03  0.35725064097E+02  0.38708428919E+03  0.91697257876E+02 0.  0.
         23    2    4    4    0    0  0.14494138532E+03 -0.50335683878E+03  0.25656481729E+03  0.59024543808E+03  0.90487896264E+02 0.  0.
          4    1    3    3  502    0 -0.14672621585E+03  0.85768433604E+02 -0.13513515073E+03  0.21713202339E+03  0.00000000000E+00 0. -1.
         -3    1    3    3    0  502 -0.51443965298E+02  0.47026298473E+02 -0.13284154430E+03  0.15001609982E+03  0.00000000000E+00 0.  1.
         11    1    5    5    0    0 -0.25918764522E+01  0.85754084153E+02 -0.27418419439E+02  0.90068032603E+02  0.00000000000E+00 0. -1.
        -11    1    5    5    0    0  0.55820672282E+02  0.28480802255E+03  0.63143483536E+02  0.29701625659E+03  0.00000000000E+00 0.  1.
          1    1    6    6  503    0  0.10746983338E+03 -0.25464680071E+03  0.99735799618E+02  0.29384007202E+03  0.00000000000E+00 0. -1.
         -1    1    6    6    0  503  0.37471551938E+02 -0.24871003807E+03  0.15682901767E+03  0.29640536606E+03  0.00000000000E+00 0.  1.
<mgrwt>
<rscale>  0 0.13442580E+04</rscale>
<asrwt>0</asrwt>
<pdfrwt beam="1">  1        2 0.10529162E+00 0.13442580E+04</pdfrwt>
<pdfrwt beam="2">  1       -1 0.10155113E+00 0.13442580E+04</pdfrwt>
<totfact> 0.43311279E+01</totfact>
</mgrwt>
</event>
<event>
12    6  0.1542110E-007  0.1962586E+04  0.7818608E-02  0.8624316E-01
         -1   -1    0    0    0  501 -0.00000000000E+00  0.00000000000E+00  0.97811529012E+03  0.97811529012E+03  0.00000000000E+00 0.  1.
          2   -1    0    0  501    0  0.00000000000E+00 -0.00000000000E+00 -0.98448076969E+03  0.98448076969E+03  0.00000000000E+00 0. -1.
         24    2    1    2    0    0 -0.63849135577E+03 -0.15404433888E+03 -0.41740604930E+03  0.78218773550E+03  0.78670031409E+02 0.  0.
        254    2    1    2    0    0  0.63849135577E+03  0.15404433888E+03  0.41104056974E+03  0.11804083243E+04  0.89051029888E+03 0.  0.
         23    2    4    4    0    0  0.82485449579E+03  0.18216985614E+03  0.17964136162E+03  0.86833406104E+03  0.90345044370E+02 0.  0.
         23    2    4    4    0    0 -0.18636314002E+03 -0.28125517262E+02  0.23139920812E+03  0.31207426328E+03  0.91227669053E+02 0.  0.
          2    1    3    3  502    0 -0.53664050622E+03 -0.10303782325E+03 -0.32745824319E+03  0.63704687973E+03  0.00000000000E+00 0. -1.
         -1    1    3    3    0  502 -0.10185084955E+03 -0.51006515632E+02 -0.89947806110E+02  0.14514085577E+03  0.00000000000E+00 0.  1.
         11    1    5    5    0    0  0.12226264507E+03  0.54652697490E+02  0.94028017987E+01  0.13425157133E+03  0.00000000000E+00 0. -1.
        -11    1    5    5    0    0  0.70259185071E+03  0.12751715865E+03  0.17023855982E+03  0.73408248970E+03  0.00000000000E+00 0.  1.
          3    1    6    6  503    0 -0.18562819881E+02 -0.42670904900E+01 -0.63669744735E+01  0.20082945678E+02  0.00000000000E+00 0. -1.
         -3    1    6    6    0  503 -0.16780032014E+03 -0.23858426772E+02  0.23776618260E+03  0.29199131760E+03  0.00000000000E+00 0.  1.
<mgrwt>
<rscale>  0 0.19625857E+04</rscale>
<asrwt>0</asrwt>
<pdfrwt beam="1">  1        2 0.15145858E+00 0.19625857E+04</pdfrwt>
<pdfrwt beam="2">  1       -1 0.15047928E+00 0.19625857E+04</pdfrwt>
<totfact> 0.94790844E+00</totfact>
</mgrwt>
</event>
<event>
12    6  0.1542110E-007  0.1135084E+04  0.7818608E-02  0.9171656E-01
         -1   -1    0    0    0  501 -0.00000000000E+00  0.00000000000E+00  0.17476493961E+03  0.17476493961E+03  0.00000000000E+00 0.  1.
          2   -1    0    0  501    0  0.00000000000E+00 -0.00000000000E+00 -0.18430678549E+04  0.18430678549E+04  0.00000000000E+00 0. -1.
         24    2    1    2    0    0  0.14334741575E+03  0.10934774918E+03 -0.18101049951E+03  0.26781518990E+03  0.80341540666E+02 0.  0.
        254    2    1    2    0    0 -0.14334741575E+03 -0.10934774918E+03 -0.14872924158E+04  0.17500176046E+04  0.90444318481E+03 0.  0.
         23    2    4    4    0    0 -0.20650762360E+03 -0.14882614437E+03 -0.13554312912E+02  0.27166530396E+03  0.93934541708E+02 0.  0.
         23    2    4    4    0    0  0.63160207849E+02  0.39478395197E+02 -0.14737381028E+04  0.14783523006E+04  0.89854178751E+02 0.  0.
          2    1    3    3  502    0  0.55751203579E+02  0.14845170823E+02 -0.18855828613E+02  0.60696936249E+02  0.00000000000E+00 0. -1.
         -1    1    3    3    0  502  0.87596212171E+02  0.94502578354E+02 -0.16215467090E+03  0.20711825365E+03  0.00000000000E+00 0.  1.
         11    1    5    5    0    0 -0.31935872096E+02  0.58130860270E+01  0.16687919130E+02  0.36499021091E+02  0.00000000000E+00 0. -1.
        -11    1    5    5    0    0 -0.17457175150E+03 -0.15463923040E+03 -0.30242232042E+02  0.23516628287E+03  0.00000000000E+00 0.  1.
          1    1    6    6  503    0  0.63047282911E+01  0.19295533521E+02 -0.60260090980E+02  0.63587308306E+02  0.00000000000E+00 0. -1.
         -1    1    6    6    0  503  0.56855479558E+02  0.20182861675E+02 -0.14134780119E+04  0.14147649923E+04  0.00000000000E+00 0.  1.
<mgrwt>
<rscale>  0 0.11350835E+04</rscale>
<asrwt>0</asrwt>
<pdfrwt beam="1">  1        2 0.28354888E+00 0.11350835E+04</pdfrwt>
<pdfrwt beam="2">  1       -1 0.26886916E-01 0.11350835E+04</pdfrwt>
<totfact> 0.11395791E+02</totfact>
</mgrwt>
</event>
<event>
12    6  0.1542110E-007  0.1580070E+04  0.7818608E-02  0.8832886E-01
          2   -1    0    0  501    0  0.00000000000E+00  0.00000000000E+00  0.19135345331E+04  0.19135345331E+04  0.00000000000E+00 0. -1.
         -1   -1    0    0    0  501 -0.00000000000E+00 -0.00000000000E+00 -0.32617938275E+03  0.32617938275E+03  0.00000000000E+00 0.  1.
         24    2    1    2    0    0 -0.43317247551E+03 -0.24582133336E+03  0.26001026414E+03  0.56758691467E+03  0.80517369386E+02 0.  0.
        254    2    1    2    0    0  0.43317247551E+03  0.24582133336E+03  0.13273448862E+04  0.16721270012E+04  0.88662153123E+03 0.  0.
         23    2    4    4    0    0  0.35569899722E+03 -0.51864247998E+02  0.12966308130E+04  0.13489010390E+04  0.95241119301E+02 0.  0.
         23    2    4    4    0    0  0.77473478292E+02  0.29768558136E+03  0.30714073190E+02  0.32322596222E+03  0.94407749514E+02 0.  0.
          2    1    3    3  502    0 -0.16775274362E+03 -0.52360869733E+02  0.10078251414E+03  0.20258272095E+03  0.00000000000E+00 0. -1.
         -1    1    3    3    0  502 -0.26541973189E+03 -0.19346046363E+03  0.15922775000E+03  0.36500419372E+03  0.00000000000E+00 0.  1.
         11    1    5    5    0    0  0.20130303767E+03 -0.75582379187E+02  0.71188004971E+03  0.74364562406E+03  0.00000000000E+00 0.  1.
        -11    1    5    5    0    0  0.15439595955E+03  0.23718131189E+02  0.58475076330E+03  0.60525541489E+03  0.00000000000E+00 0. -1.
          4    1    6    6  503    0 -0.83465941528E+01 -0.29032798544E+01 -0.15257377804E+01  0.89678617094E+01  0.00000000000E+00 0. -1.
         -4    1    6    6    0  503  0.85820072444E+02  0.30058886122E+03  0.32239810970E+02  0.31425810051E+03  0.00000000000E+00 0.  1.
<mgrwt>
<rscale>  0 0.15800703E+04</rscale>
<asrwt>0</asrwt>
<pdfrwt beam="1">  1        2 0.29438992E+00 0.15800703E+04</pdfrwt>
<pdfrwt beam="2">  1       -1 0.50181445E-01 0.15800703E+04</pdfrwt>
<totfact> 0.32549030E+01</totfact>
</mgrwt>
</event>
<event>
12    6  0.1542110E-007  0.1160923E+04  0.7818608E-02  0.9147766E-01
          2   -1    0    0  501    0  0.00000000000E+00  0.00000000000E+00  0.16317377863E+04  0.16317377863E+04  0.00000000000E+00 0. -1.
         -1   -1    0    0    0  501 -0.00000000000E+00 -0.00000000000E+00 -0.20648864614E+03  0.20648864614E+03  0.00000000000E+00 0.  1.
         24    2    1    2    0    0 -0.17842821954E+03  0.12811490979E+03  0.22110622972E+03  0.32185539970E+03  0.80329781864E+02 0.  0.
        254    2    1    2    0    0  0.17842821954E+03 -0.12811490979E+03  0.12041429104E+04  0.15163710327E+04  0.89508150495E+03 0.  0.
         23    2    4    4    0    0  0.27708486278E+03  0.30573425706E+03  0.34955946497E+03  0.54880483063E+03  0.93517193326E+02 0.  0.
         23    2    4    4    0    0 -0.98656643248E+02 -0.43384916685E+03  0.85458344544E+03  0.96756620208E+03  0.88956491375E+02 0.  0.
          4    1    3    3  502    0 -0.87635740248E+02  0.70315661190E+02  0.16729461076E+03  0.20152370076E+03  0.00000000000E+00 0. -1.
         -3    1    3    3    0  502 -0.90792479287E+02  0.57799248601E+02  0.53811618959E+02  0.12033169894E+03  0.00000000000E+00 0.  1.
         11    1    5    5    0    0  0.45693046910E+02  0.10215353851E+03  0.65501924560E+02  0.12966766014E+03  0.00000000000E+00 0. -1.
        -11    1    5    5    0    0  0.23139181587E+03  0.20358071855E+03  0.28405754041E+03  0.41913717049E+03  0.00000000000E+00 0.  1.
          3    1    6    6  503    0 -0.85739060506E+02 -0.19272245828E+03  0.36176617932E+03  0.41876950811E+03  0.00000000000E+00 0. -1.
         -3    1    6    6    0  503 -0.12917582742E+02 -0.24112670857E+03  0.49281726612E+03  0.54879669397E+03  0.00000000000E+00 0.  1.
<mgrwt>
<rscale>  0 0.11609226E+04</rscale>
<asrwt>0</asrwt>
<pdfrwt beam="1">  1        2 0.25103657E+00 0.11609226E+04</pdfrwt>
<pdfrwt beam="2">  1       -1 0.31767485E-01 0.11609226E+04</pdfrwt>
<totfact> 0.11124534E+02</totfact>
</mgrwt>
</event>
<event>
12    6  0.1542110E-007  0.2195006E+04  0.7818608E-02  0.8520510E-01
         -1   -1    0    0    0  501 -0.00000000000E+00  0.00000000000E+00  0.35164587124E+03  0.35164587124E+03  0.00000000000E+00 0.  1.
          2   -1    0    0  501    0  0.00000000000E+00 -0.00000000000E+00 -0.34253582163E+04  0.34253582163E+04  0.00000000000E+00 0. -1.
         24    2    1    2    0    0 -0.70209959635E+03  0.45328214740E+03 -0.64478456620E+03  0.10585065152E+04  0.79248707581E+02 0.  0.
        254    2    1    2    0    0  0.70209959635E+03 -0.45328214740E+03 -0.24289277789E+04  0.27184975723E+04  0.89001704888E+03 0.  0.
         23    2    4    4    0    0  0.75953947123E+03 -0.27525231224E+03 -0.10697110375E+04  0.13435789534E+04  0.90877151043E+02 0.  0.
         23    2    4    4    0    0 -0.57439874882E+02 -0.17802983517E+03 -0.13592167414E+04  0.13749186189E+04  0.89090387170E+02 0.  0.
          4    1    3    3  502    0 -0.26125455429E+02  0.37151445070E+02 -0.29240452307E+02  0.54016417349E+02  0.00000000000E+00 0. -1.
         -3    1    3    3    0  502 -0.67597414092E+03  0.41613070233E+03 -0.61554411389E+03  0.10044900979E+04  0.00000000000E+00 0.  1.
         11    1    5    5    0    0  0.65025348549E+03 -0.25310904737E+03 -0.96308961214E+03  0.11893003768E+04  0.00000000000E+00 0. -1.
        -11    1    5    5    0    0  0.10928598573E+03 -0.22143264863E+02 -0.10662142537E+03  0.15427857662E+03  0.00000000000E+00 0.  1.
          4    1    6    6  503    0 -0.70045638821E+02 -0.77491768873E+02 -0.60960493495E+03  0.61848972706E+03  0.00000000000E+00 0. -1.
         -4    1    6    6    0  503  0.12605763939E+02 -0.10053806630E+03 -0.74961180642E+03  0.75642889183E+03  0.00000000000E+00 0.  1.
<mgrwt>
<rscale>  0 0.21950062E+04</rscale>
<asrwt>0</asrwt>
<pdfrwt beam="1">  1        2 0.52697821E+00 0.21950062E+04</pdfrwt>
<pdfrwt beam="2">  1       -1 0.54099363E-01 0.21950062E+04</pdfrwt>
<totfact> 0.32982653E+00</totfact>
</mgrwt>
</event>
<event>
12    6  0.1542110E-007  0.1609010E+04  0.7818608E-02  0.8815032E-01
         -1   -1    0    0    0  501 -0.00000000000E+00  0.00000000000E+00  0.18478015396E+03  0.18478015396E+03  0.00000000000E+00 0.  1.
          2   -1    0    0  501    0  0.00000000000E+00 -0.00000000000E+00 -0.35026927641E+04  0.35026927641E+04  0.00000000000E+00 0. -1.
         24    2    1    2    0    0  0.72079233011E+02  0.38680970522E+03 -0.20637546635E+04  0.21019767775E+04  0.66376940002E+02 0.  0.
        254    2    1    2    0    0 -0.72079233011E+02 -0.38680970522E+03 -0.12541579466E+04  0.15854961406E+04  0.88660515039E+03 0.  0.
         23    2    4    4    0    0 -0.97500784726E+02 -0.57470320388E+03 -0.12413892781E+04  0.13744019490E+04  0.90239691504E+02 0.  0.
         23    2    4    4    0    0  0.25421551715E+02  0.18789349866E+03 -0.12768668531E+02  0.21109419159E+03  0.91910264368E+02 0.  0.
          2    1    3    3  502    0  0.15361985693E+02  0.18043008006E+03 -0.10938412736E+04  0.11087288832E+04  0.00000000000E+00 0. -1.
         -1    1    3    3    0  502  0.56717247318E+02  0.20637962516E+03 -0.96991338982E+03  0.99324789432E+03  0.00000000000E+00 0.  1.
         11    1    5    5    0    0 -0.92019507063E+01 -0.31992414893E+03 -0.68948010632E+03  0.76014403502E+03  0.00000000000E+00 0. -1.
        -11    1    5    5    0    0 -0.88298834019E+02 -0.25477905495E+03 -0.55190917180E+03  0.61425791394E+03  0.00000000000E+00 0.  1.
          3    1    6    6  503    0 -0.16229614603E+02  0.27931561030E+02  0.25818721261E+02  0.41354308836E+02  0.00000000000E+00 0. -1.
         -3    1    6    6    0  503  0.41651166318E+02  0.15996193763E+03 -0.38587389792E+02  0.16973988275E+03  0.00000000000E+00 0.  1.
<mgrwt>
<rscale>  0 0.16090098E+04</rscale>
<asrwt>0</asrwt>
<pdfrwt beam="1">  1        2 0.53887581E+00 0.16090098E+04</pdfrwt>
<pdfrwt beam="2">  1       -1 0.28427716E-01 0.16090098E+04</pdfrwt>
<totfact> 0.10020324E+01</totfact>
</mgrwt>
</event>
<event>
12    6  0.1542110E-007  0.1861840E+04  0.7818608E-02  0.8674088E-01
          2   -1    0    0  501    0  0.00000000000E+00  0.00000000000E+00  0.10477991978E+04  0.10477991978E+04  0.00000000000E+00 0. -1.
         -1   -1    0    0    0  501 -0.00000000000E+00 -0.00000000000E+00 -0.82707850501E+03  0.82707850501E+03  0.00000000000E+00 0.  1.
         24    2    1    2    0    0 -0.29472440489E+03  0.63613176872E+03 -0.28472371693E+02  0.70640813311E+03  0.81704789080E+02 0.  0.
        254    2    1    2    0    0  0.29472440489E+03 -0.63613176872E+03  0.24919306447E+03  0.11684695697E+04  0.90094275617E+03 0.  0.
         23    2    4    4    0    0 -0.89540966420E+02 -0.20532497098E+03  0.48205880566E+03  0.53913621061E+03  0.90062384460E+02 0.  0.
         23    2    4    4    0    0  0.38426537131E+03 -0.43080679773E+03 -0.23286574119E+03  0.62933335908E+03  0.92626404818E+02 0.  0.
          4    1    3    3  502    0 -0.20016606590E+03  0.46501465141E+03  0.13509666389E+02  0.50644603962E+03  0.00000000000E+00 0. -1.
         -3    1    3    3    0  502 -0.94558338998E+02  0.17111711730E+03 -0.41982038082E+02  0.19996209348E+03  0.00000000000E+00 0.  1.
         11    1    5    5    0    0 -0.61447707883E+02 -0.16385906777E+03  0.44071924258E+03  0.47419306794E+03  0.00000000000E+00 0.  1.
        -11    1    5    5    0    0 -0.28093258537E+02 -0.41465903213E+02  0.41339563079E+02  0.64943142672E+02  0.00000000000E+00 0. -1.
          1    1    6    6  503    0  0.15865507944E+03 -0.21995885863E+03 -0.69440964187E+02  0.27995603446E+03  0.00000000000E+00 0. -1.
         -1    1    6    6    0  503  0.22561029187E+03 -0.21084793910E+03 -0.16342477700E+03  0.34937732462E+03  0.00000000000E+00 0.  1.
<mgrwt>
<rscale>  0 0.18618402E+04</rscale>
<asrwt>0</asrwt>
<pdfrwt beam="1">  1        2 0.16119988E+00 0.18618402E+04</pdfrwt>
<pdfrwt beam="2">  1       -1 0.12724285E+00 0.18618402E+04</pdfrwt>
<totfact> 0.13471503E+01</totfact>
</mgrwt>
</event>
<event>
12    6  0.1542110E-007  0.1650473E+04  0.7818608E-02  0.8790127E-01
          2   -1    0    0  501    0  0.00000000000E+00  0.00000000000E+00  0.14307650302E+04  0.14307650302E+04  0.00000000000E+00 0. -1.
         -1   -1    0    0    0  501 -0.00000000000E+00 -0.00000000000E+00 -0.47597989160E+03  0.47597989160E+03  0.00000000000E+00 0.  1.
         24    2    1    2    0    0  0.28822257070E+03  0.34083791373E+02  0.93678554973E+03  0.98388801066E+03  0.78958826152E+02 0.  0.
        254    2    1    2    0    0 -0.28822257070E+03 -0.34083791373E+02  0.17999588885E+02  0.92285691117E+03  0.87584641245E+03 0.  0.
         23    2    4    4    0    0  0.12152420774E+03 -0.16256393038E+03 -0.30507117442E+03  0.37779292801E+03  0.91999513379E+02 0.  0.
         23    2    4    4    0    0 -0.40974677844E+03  0.12848013901E+03  0.32307076331E+03  0.54506398316E+03  0.91216550473E+02 0.  0.
          4    1    3    3  502    0  0.26489273011E+03  0.15186938692E+02  0.88616726198E+03  0.92503579270E+03  0.00000000000E+00 0. -1.
         -3    1    3    3    0  502  0.23329840591E+02  0.18896852681E+02  0.50618287759E+02  0.58852217961E+02  0.00000000000E+00 0.  1.
         11    1    5    5    0    0  0.34754855476E+02 -0.11807923186E+03 -0.19645100508E+03  0.23182666450E+03  0.00000000000E+00 0.  1.
        -11    1    5    5    0    0  0.86769352264E+02 -0.44484698522E+02 -0.10862016934E+03  0.14596626350E+03  0.00000000000E+00 0. -1.
          3    1    6    6  503    0 -0.37254414627E+03  0.87157365141E+02  0.27071793217E+03  0.46869365903E+03  0.00000000000E+00 0. -1.
         -3    1    6    6    0  503 -0.37202632172E+02  0.41322773867E+02  0.52352831138E+02  0.76370324137E+02  0.00000000000E+00 0.  1.
<mgrwt>
<rscale>  0 0.16504731E+04</rscale>
<asrwt>0</asrwt>
<pdfrwt beam="1">  1        2 0.22011770E+00 0.16504731E+04</pdfrwt>
<pdfrwt beam="2">  1       -1 0.73227676E-01 0.16504731E+04</pdfrwt>
<totfact> 0.28432491E+01</totfact>
</mgrwt>
</event>
<event>
12    6  0.1542110E-007  0.1944429E+04  0.7818608E-02  0.8633052E-01
          2   -1    0    0  501    0  0.00000000000E+00  0.00000000000E+00  0.17080117938E+04  0.17080117938E+04  0.00000000000E+00 0. -1.
         -1   -1    0    0    0  501 -0.00000000000E+00 -0.00000000000E+00 -0.55339261839E+03  0.55339261839E+03  0.00000000000E+00 0.  1.
         24    2    1    2    0    0 -0.74892087779E+03 -0.94562621772E+02  0.59267692306E+03  0.96272520333E+03  0.75824213690E+02 0.  0.
        254    2    1    2    0    0  0.74892087779E+03  0.94562621772E+02  0.56194225230E+03  0.12986792088E+04  0.89496593336E+03 0.  0.
         23    2    4    4    0    0  0.25161129632E+01  0.29125973434E+03 -0.50665842912E+02  0.30878510042E+03  0.89121529019E+02 0.  0.
         23    2    4    4    0    0  0.74640476482E+03 -0.19669711256E+03  0.61260809521E+03  0.98989410839E+03  0.93764814673E+02 0.  0.
          2    1    3    3  502    0 -0.68171208712E+03 -0.68020213897E+02  0.51864364052E+03  0.85927256740E+03  0.00000000000E+00 0. -1.
         -1    1    3    3    0  502 -0.67208790660E+02 -0.26542407875E+02  0.74033282540E+02  0.10345263593E+03  0.00000000000E+00 0.  1.
         11    1    5    5    0    0  0.20805815806E+02  0.27817666403E+03 -0.34475930526E+02  0.28107601848E+03  0.00000000000E+00 0. -1.
        -11    1    5    5    0    0 -0.18289702843E+02  0.13083070308E+02 -0.16189912387E+02  0.27709081938E+02  0.00000000000E+00 0.  1.
          2    1    6    6  503    0  0.65270079066E+03 -0.19240547656E+03  0.56628201889E+03  0.88527595384E+03  0.00000000000E+00 0. -1.
         -2    1    6    6    0  503  0.93703974162E+02 -0.42916360034E+01  0.46326076320E+02  0.10461815455E+03  0.00000000000E+00 0.  1.
<mgrwt>
<rscale>  0 0.19444291E+04</rscale>
<asrwt>0</asrwt>
<pdfrwt beam="1">  1        2 0.26277104E+00 0.19444291E+04</pdfrwt>
<pdfrwt beam="2">  1       -1 0.85137327E-01 0.19444291E+04</pdfrwt>
<totfact> 0.14075750E+01</totfact>
</mgrwt>
</event>
<event>
12    6  0.1542110E-007  0.2750754E+04  0.7818608E-02  0.8318723E-01
          2   -1    0    0  501    0  0.00000000000E+00  0.00000000000E+00  0.18490226118E+04  0.18490226118E+04  0.00000000000E+00 0. -1.
         -1   -1    0    0    0  501 -0.00000000000E+00 -0.00000000000E+00 -0.10230601397E+04  0.10230601397E+04  0.00000000000E+00 0.  1.
         24    2    1    2    0    0  0.34325188001E+03  0.11752905029E+04  0.30314006473E+03  0.12637891083E+04  0.78354273541E+02 0.  0.
        254    2    1    2    0    0 -0.34325188001E+03 -0.11752905029E+04  0.52282240729E+03  0.16082936432E+04  0.90229460483E+03 0.  0.
         23    2    4    4    0    0 -0.33355510336E+03 -0.14346582926E+02  0.40584114288E+02  0.34777498340E+03  0.88518570517E+02 0.  0.
         23    2    4    4    0    0 -0.96967766575E+01 -0.11609439199E+04  0.48223829300E+03  0.12605186598E+04  0.92025581954E+02 0.  0.
          2    1    3    3  502    0 -0.83153710651E+00  0.62557811813E+01 -0.34514113191E+01  0.71929473960E+01  0.00000000000E+00 0. -1.
         -1    1    3    3    0  502  0.34408341712E+03  0.11690347217E+04  0.30659147604E+03  0.12565961609E+04  0.00000000000E+00 0.  1.
         11    1    5    5    0    0 -0.16595377567E+03 -0.23254087835E+02 -0.21233116960E+02  0.16891492982E+03  0.00000000000E+00 0. -1.
        -11    1    5    5    0    0 -0.16760132769E+03  0.89075049089E+01  0.61817231248E+02  0.17886005358E+03  0.00000000000E+00 0.  1.
          1    1    6    6  503    0 -0.45474311064E+02 -0.61562393140E+03  0.27954879882E+03  0.67764907497E+03  0.00000000000E+00 0. -1.
         -1    1    6    6    0  503  0.35777534406E+02 -0.54531998854E+03  0.20268949418E+03  0.58286958483E+03  0.00000000000E+00 0.  1.
<mgrwt>
<rscale>  0 0.27507536E+04</rscale>
<asrwt>0</asrwt>
<pdfrwt beam="1">  1        2 0.28446502E+00 0.27507536E+04</pdfrwt>
<pdfrwt beam="2">  1       -1 0.15739387E+00 0.27507536E+04</pdfrwt>
<totfact> 0.24650106E+00</totfact>
</mgrwt>
</event>
<event>
12    6  0.1542110E-007  0.1485759E+04  0.7818608E-02  0.8893979E-01
          2   -1    0    0  501    0  0.00000000000E+00  0.00000000000E+00  0.22356192448E+04  0.22356192448E+04  0.00000000000E+00 0. -1.
         -1   -1    0    0    0  501 -0.00000000000E+00 -0.00000000000E+00 -0.24685315826E+03  0.24685315826E+03  0.00000000000E+00 0.  1.
         24    2    1    2    0    0  0.17848805408E+03 -0.14974005871E+03  0.13475602129E+04  0.13698557346E+04  0.79411181064E+02 0.  0.
        254    2    1    2    0    0 -0.17848805408E+03  0.14974005871E+03  0.64120587368E+03  0.11126166685E+04  0.87891456234E+03 0.  0.
         23    2    4    4    0    0  0.19903116926E+03  0.39247643032E+03  0.35770646373E+03  0.57424788064E+03  0.90308136557E+02 0.  0.
         23    2    4    4    0    0 -0.37751922334E+03 -0.24273637161E+03  0.28349940995E+03  0.53836878784E+03  0.89595346888E+02 0.  0.
          2    1    3    3  502    0  0.61012846748E+02 -0.81720257251E+02  0.76037141425E+03  0.76718019756E+03  0.00000000000E+00 0. -1.
         -1    1    3    3    0  502  0.11747520733E+03 -0.68019801461E+02  0.58718879860E+03  0.60267553703E+03  0.00000000000E+00 0.  1.
         11    1    5    5    0    0  0.79223704080E+02  0.11910576733E+03  0.68340091617E+02  0.15853374159E+03  0.00000000000E+00 0.  1.
        -11    1    5    5    0    0  0.11980746518E+03  0.27337066299E+03  0.28936637212E+03  0.41571413905E+03  0.00000000000E+00 0. -1.
          2    1    6    6  503    0 -0.38072113297E+03 -0.24585047136E+03  0.28108450708E+03  0.53329122952E+03  0.00000000000E+00 0. -1.
         -2    1    6    6    0  503  0.32019096344E+01  0.31140997562E+01  0.24149028711E+01  0.50775583183E+01  0.00000000000E+00 0.  1.
<mgrwt>
<rscale>  0 0.14857586E+04</rscale>
<asrwt>0</asrwt>
<pdfrwt beam="1">  1        2 0.34394141E+00 0.14857586E+04</pdfrwt>
<pdfrwt beam="2">  1       -1 0.37977410E-01 0.14857586E+04</pdfrwt>
<totfact> 0.36417202E+01</totfact>
</mgrwt>
</event>
<event>
12    6  0.1542110E-007  0.1606919E+04  0.7818608E-02  0.8816309E-01
         -1   -1    0    0    0  501 -0.00000000000E+00  0.00000000000E+00  0.69292520381E+03  0.69292520381E+03  0.00000000000E+00 0.  1.
          2   -1    0    0  501    0  0.00000000000E+00 -0.00000000000E+00 -0.93162558696E+03  0.93162558696E+03  0.00000000000E+00 0. -1.
         24    2    1    2    0    0 -0.44185903455E+03  0.57323424568E+02  0.23113327805E+03  0.50877053627E+03  0.83063138261E+02 0.  0.
        254    2    1    2    0    0  0.44185903455E+03 -0.57323424568E+02 -0.46983366120E+03  0.11157802545E+04  0.90867845014E+03 0.  0.
         23    2    4    4    0    0  0.35858180025E+03 -0.33205067216E+03 -0.60705065320E+03  0.78453919616E+03  0.90292294250E+02 0.  0.
         23    2    4    4    0    0  0.83277234294E+02  0.27472724759E+03  0.13721699201E+03  0.33124105835E+03  0.92097652086E+02 0.  0.
          2    1    3    3  502    0 -0.24287745877E+02 -0.15173623150E+02  0.22293467475E+02  0.36292315045E+02  0.00000000000E+00 0. -1.
         -1    1    3    3    0  502 -0.41757128867E+03  0.72497047718E+02  0.20883981057E+03  0.47247822122E+03  0.00000000000E+00 0.  1.
         11    1    5    5    0    0  0.19798145707E+03 -0.20775859984E+03 -0.41834599821E+03  0.50732008374E+03  0.00000000000E+00 0.  1.
        -11    1    5    5    0    0  0.16060034318E+03 -0.12429207233E+03 -0.18870465499E+03  0.27721911242E+03  0.00000000000E+00 0. -1.
          3    1    6    6  503    0  0.73086316559E+02  0.27577767453E+03  0.11657362561E+03  0.30819530435E+03  0.00000000000E+00 0. -1.
         -3    1    6    6    0  503  0.10190917735E+02 -0.10504269367E+01  0.20643366400E+02  0.23045753998E+02  0.00000000000E+00 0.  1.
<mgrwt>
<rscale>  0 0.16069186E+04</rscale>
<asrwt>0</asrwt>
<pdfrwt beam="1">  1        2 0.14332701E+00 0.16069186E+04</pdfrwt>
<pdfrwt beam="2">  1       -1 0.10660388E+00 0.16069186E+04</pdfrwt>
<totfact> 0.25100114E+01</totfact>
</mgrwt>
</event>
<event>
12    6  0.1542110E-007  0.1934408E+04  0.7818608E-02  0.8637917E-01
          2   -1    0    0  501    0  0.00000000000E+00  0.00000000000E+00  0.11168198270E+04  0.11168198270E+04  0.00000000000E+00 0. -1.
         -1   -1    0    0    0  501 -0.00000000000E+00 -0.00000000000E+00 -0.83763133903E+03  0.83763133903E+03  0.00000000000E+00 0.  1.
         24    2    1    2    0    0  0.30464588331E+03  0.20684196019E+03  0.77528938068E+03  0.86205584514E+03  0.80460832938E+02 0.  0.
        254    2    1    2    0    0 -0.30464588331E+03 -0.20684196019E+03 -0.49610089266E+03  0.10923953209E+04  0.90089884602E+03 0.  0.
         23    2    4    4    0    0  0.17590078103E+03  0.23847632993E+03 -0.15529793814E+03  0.34829679544E+03  0.96856406176E+02 0.  0.
         23    2    4    4    0    0 -0.48054666435E+03 -0.44531829012E+03 -0.34080295452E+03  0.74409852549E+03  0.91117976770E+02 0.  0.
          4    1    3    3  502    0  0.27825967495E+03  0.20421058711E+03  0.74907272235E+03  0.82476684824E+03  0.00000000000E+00 0. -1.
         -3    1    3    3    0  502  0.26386208358E+02  0.26313730789E+01  0.26216658331E+02  0.37288996900E+02  0.00000000000E+00 0.  1.
         11    1    5    5    0    0  0.24128440683E+01  0.54758886767E+02 -0.68666255734E+01  0.55240456580E+02  0.00000000000E+00 0.  1.
        -11    1    5    5    0    0  0.17348793697E+03  0.18371744316E+03 -0.14843131257E+03  0.29305633886E+03  0.00000000000E+00 0. -1.
          4    1    6    6  503    0 -0.43843589056E+03 -0.36575820392E+03 -0.28449088834E+03  0.63791861504E+03  0.00000000000E+00 0. -1.
         -4    1    6    6    0  503 -0.42110773790E+02 -0.79560086201E+02 -0.56312066180E+02  0.10617991045E+03  0.00000000000E+00 0.  1.
<mgrwt>
<rscale>  0 0.19344077E+04</rscale>
<asrwt>0</asrwt>
<pdfrwt beam="1">  1        2 0.17181844E+00 0.19344077E+04</pdfrwt>
<pdfrwt beam="2">  1       -1 0.12886636E+00 0.19344077E+04</pdfrwt>
<totfact> 0.11749143E+01</totfact>
</mgrwt>
</event>
<event>
12    6  0.1542110E-007  0.2693046E+04  0.7818608E-02  0.8337265E-01
          2   -1    0    0  501    0  0.00000000000E+00  0.00000000000E+00  0.19513795554E+04  0.19513795554E+04  0.00000000000E+00 0. -1.
         -1   -1    0    0    0  501 -0.00000000000E+00 -0.00000000000E+00 -0.92914962688E+03  0.92914962688E+03  0.00000000000E+00 0.  1.
         24    2    1    2    0    0  0.10281266158E+04  0.39340156344E+03 -0.39083995714E+02  0.11044234765E+04  0.80090751809E+02 0.  0.
        254    2    1    2    0    0 -0.10281266158E+04 -0.39340156344E+03  0.10613139242E+04  0.17761057058E+04  0.90352371530E+03 0.  0.
         23    2    4    4    0    0 -0.38930919365E+03  0.16376676647E+03  0.22840368641E+02  0.43248325195E+03  0.90215734318E+02 0.  0.
         23    2    4    4    0    0 -0.63881742213E+03 -0.55716832991E+03  0.10384735556E+04  0.13436224538E+04  0.91486207113E+02 0.  0.
          4    1    3    3  502    0  0.42207500905E+02  0.33524880970E+02  0.34839046979E+01  0.54014149708E+02  0.00000000000E+00 0. -1.
         -3    1    3    3    0  502  0.98591911487E+03  0.35987668247E+03 -0.42567900412E+02  0.10504093268E+04  0.00000000000E+00 0.  1.
         11    1    5    5    0    0 -0.88712161453E+02  0.44385376095E+02  0.43657775114E+02  0.10837855198E+03  0.00000000000E+00 0. -1.
        -11    1    5    5    0    0 -0.30059703219E+03  0.11938139037E+03 -0.20817406473E+02  0.32410469997E+03  0.00000000000E+00 0.  1.
          4    1    6    6  503    0 -0.63092524079E+03 -0.54575618471E+03  0.99745315405E+03  0.13003189098E+04  0.00000000000E+00 0. -1.
         -4    1    6    6    0  503 -0.78921813381E+01 -0.11412145200E+02  0.41020401519E+02  0.43303544025E+02  0.00000000000E+00 0.  1.
<mgrwt>
<rscale>  0 0.26930456E+04</rscale>
<asrwt>0</asrwt>
<pdfrwt beam="1">  1        2 0.30021224E+00 0.26930456E+04</pdfrwt>
<pdfrwt beam="2">  1       -1 0.14294610E+00 0.26930456E+04</pdfrwt>
<totfact> 0.28179561E+00</totfact>
</mgrwt>
</event>
<event>
12    6  0.1542110E-007  0.1744206E+04  0.7818608E-02  0.8736546E-01
         -1   -1    0    0    0  501 -0.00000000000E+00  0.00000000000E+00  0.21553898352E+03  0.21553898352E+03  0.00000000000E+00 0.  1.
          2   -1    0    0  501    0  0.00000000000E+00 -0.00000000000E+00 -0.35286588994E+04  0.35286588994E+04  0.00000000000E+00 0. -1.
         24    2    1    2    0    0 -0.16164352261E+03 -0.66259350925E+02  0.95540526373E+02  0.21465986326E+03  0.80199343684E+02 0.  0.
        254    2    1    2    0    0  0.16164352261E+03  0.66259350925E+02 -0.34086604423E+04  0.35295380197E+04  0.89897368799E+03 0.  0.
         23    2    4    4    0    0  0.84002906554E+02  0.27509710440E+03 -0.35169889105E+03  0.46316041476E+03  0.89947510650E+02 0.  0.
         23    2    4    4    0    0  0.77640616060E+02 -0.20883775347E+03 -0.30569615512E+04  0.30663776049E+04  0.89534450456E+02 0.  0.
          4    1    3    3  502    0 -0.31305655187E+02 -0.34171388760E+02  0.59983260629E+02  0.75800523825E+02  0.00000000000E+00 0. -1.
         -3    1    3    3    0  502 -0.13033786743E+03 -0.32087962165E+02  0.35557265745E+02  0.13885933944E+03  0.00000000000E+00 0.  1.
         11    1    5    5    0    0 -0.11653064253E+02  0.92529956342E+01 -0.45255243629E+01  0.15552884152E+02  0.00000000000E+00 0. -1.
        -11    1    5    5    0    0  0.95655970807E+02  0.26584410876E+03 -0.34717336669E+03  0.44760753061E+03  0.00000000000E+00 0.  1.
          4    1    6    6  503    0  0.67407572655E+02 -0.21554074990E+03 -0.29679085836E+04  0.29764883599E+04  0.00000000000E+00 0.  1.
         -4    1    6    6    0  503  0.10233043405E+02  0.67029964239E+01 -0.89052967599E+02  0.89889245055E+02  0.00000000000E+00 0. -1.
<mgrwt>
<rscale>  0 0.17442059E+04</rscale>
<asrwt>0</asrwt>
<pdfrwt beam="1">  1        2 0.54287058E+00 0.17442059E+04</pdfrwt>
<pdfrwt beam="2">  1       -1 0.33159845E-01 0.17442059E+04</pdfrwt>
<totfact> 0.72295437E+00</totfact>
</mgrwt>
</event>
<event>
12    6  0.1542110E-007  0.2013810E+04  0.7818608E-02  0.8600191E-01
          2   -1    0    0  501    0  0.00000000000E+00  0.00000000000E+00  0.35464002459E+04  0.35464002459E+04  0.00000000000E+00 0. -1.
         -1   -1    0    0    0  501 -0.00000000000E+00 -0.00000000000E+00 -0.28588372193E+03  0.28588372193E+03  0.00000000000E+00 0.  1.
         24    2    1    2    0    0  0.78185737190E+03 -0.17065422974E+03  0.14461818403E+04  0.16547669770E+04  0.79925068608E+02 0.  0.
        254    2    1    2    0    0 -0.78185737190E+03  0.17065422974E+03  0.18143346836E+04  0.21775169909E+04  0.89963664063E+03 0.  0.
         23    2    4    4    0    0 -0.59345845539E+03 -0.30906077225E+03  0.93513491269E+03  0.11540847587E+04  0.98604391808E+02 0.  0.
         23    2    4    4    0    0 -0.18839891651E+03  0.47971500199E+03  0.87919977094E+03  0.10234322322E+04  0.93811842378E+02 0.  0.
          4    1    3    3  502    0  0.53353969223E+03 -0.82915527316E+02  0.93392717118E+03  0.10787768763E+04  0.00000000000E+00 0. -1.
         -3    1    3    3    0  502  0.24831767967E+03 -0.87738702426E+02  0.51225466915E+03  0.57599010062E+03  0.00000000000E+00 0.  1.
         11    1    5    5    0    0 -0.24170532194E+02 -0.32847787792E+02  0.85379543118E+02  0.94619544346E+02  0.00000000000E+00 0.  1.
        -11    1    5    5    0    0 -0.56928792320E+03 -0.27621298446E+03  0.84975536957E+03  0.10594652143E+04  0.00000000000E+00 0. -1.
          4    1    6    6  503    0 -0.12332462677E+03  0.40841239245E+03  0.73666675298E+03  0.85128582205E+03  0.00000000000E+00 0. -1.
         -4    1    6    6    0  503 -0.65074289747E+02  0.71302609543E+02  0.14253301796E+03  0.17214641013E+03  0.00000000000E+00 0.  1.
<mgrwt>
<rscale>  0 0.20138104E+04</rscale>
<asrwt>0</asrwt>
<pdfrwt beam="1">  1        2 0.54560001E+00 0.20138104E+04</pdfrwt>
<pdfrwt beam="2">  1       -1 0.43982113E-01 0.20138104E+04</pdfrwt>
<totfact> 0.40944706E+00</totfact>
</mgrwt>
</event>
<event>
12    6  0.1542110E-007  0.2929034E+04  0.7818608E-02  0.8264291E-01
         -1   -1    0    0    0  501 -0.00000000000E+00  0.00000000000E+00  0.30828260834E+04  0.30828260834E+04  0.00000000000E+00 0.  1.
          2   -1    0    0  501    0  0.00000000000E+00 -0.00000000000E+00 -0.69572849585E+03  0.69572849585E+03  0.00000000000E+00 0. -1.
         24    2    1    2    0    0 -0.69820425292E+03  0.10840864147E+04  0.14511302221E+04  0.19429330596E+04  0.80482415947E+02 0.  0.
        254    2    1    2    0    0  0.69820425292E+03 -0.10840864147E+04  0.93596736545E+03  0.18356215197E+04  0.91144880322E+03 0.  0.
         23    2    4    4    0    0 -0.59840322743E+02 -0.43430126355E+03  0.65718966333E+03  0.79514633955E+03  0.90338230942E+02 0.  0.
         23    2    4    4    0    0  0.75804457566E+03 -0.64978515115E+03  0.27877770213E+03  0.10404751801E+04  0.89550387305E+02 0.  0.
          4    1    3    3  502    0 -0.29607098221E+03  0.49876917100E+03  0.60147360803E+03  0.83558315780E+03  0.00000000000E+00 0. -1.
         -3    1    3    3    0  502 -0.40213327071E+03  0.58531724370E+03  0.84965661411E+03  0.11073499018E+04  0.00000000000E+00 0.  1.
         11    1    5    5    0    0 -0.47882741308E+02 -0.31782841765E+03  0.40451635222E+03  0.51666346803E+03  0.00000000000E+00 0.  1.
        -11    1    5    5    0    0 -0.11957581434E+02 -0.11647284590E+03  0.25267331110E+03  0.27848287152E+03  0.00000000000E+00 0. -1.
          4    1    6    6  503    0  0.14025235485E+03 -0.10009090089E+03  0.80044202468E+02  0.18998943610E+03  0.00000000000E+00 0. -1.
         -4    1    6    6    0  503  0.61779222081E+03 -0.54969425026E+03  0.19873349966E+03  0.85048574400E+03  0.00000000000E+00 0.  1.
<mgrwt>
<rscale>  0 0.29290339E+04</rscale>
<asrwt>0</asrwt>
<pdfrwt beam="1">  1        2 0.10703515E+00 0.29290339E+04</pdfrwt>
<pdfrwt beam="2">  1       -1 0.47428093E+00 0.29290339E+04</pdfrwt>
<totfact> 0.89312622E-02</totfact>
</mgrwt>
</event>
<event>
12    6  0.1542110E-007  0.1203591E+04  0.7818608E-02  0.9109719E-01
          2   -1    0    0  501    0  0.00000000000E+00  0.00000000000E+00  0.19314144106E+04  0.19314144106E+04  0.00000000000E+00 0. -1.
         -1   -1    0    0    0  501 -0.00000000000E+00 -0.00000000000E+00 -0.18750916132E+03  0.18750916132E+03  0.00000000000E+00 0.  1.
         24    2    1    2    0    0 -0.46209036047E+02  0.10200670213E+03 -0.23113381127E+02  0.13856219134E+03  0.78259888762E+02 0.  0.
        254    2    1    2    0    0  0.46209036047E+02 -0.10200670213E+03  0.17670186304E+04  0.19803613806E+04  0.88709397204E+03 0.  0.
         23    2    4    4    0    0 -0.56060707961E+02 -0.47621367673E+03  0.10953900084E+04  0.11993586967E+04  0.93057745698E+02 0.  0.
         23    2    4    4    0    0  0.10226974401E+03  0.37420697461E+03  0.67162862200E+03  0.78100268385E+03  0.91598176345E+02 0.  0.
          2    1    3    3  502    0 -0.48229276581E+02  0.40206845333E+02  0.16758689691E+02  0.64988515996E+02  0.00000000000E+00 0. -1.
         -1    1    3    3    0  502  0.20202405336E+01  0.61799856795E+02 -0.39872070818E+02  0.73573675340E+02  0.00000000000E+00 0.  1.
         11    1    5    5    0    0  0.28924498181E+01 -0.81609337095E+02  0.27873639395E+03  0.29045210875E+03  0.00000000000E+00 0. -1.
        -11    1    5    5    0    0 -0.58953157779E+02 -0.39460433964E+03  0.81665361446E+03  0.90890658799E+03  0.00000000000E+00 0.  1.
          4    1    6    6  503    0  0.64160830074E+00  0.17371505736E+03  0.30161965061E+03  0.34806859446E+03  0.00000000000E+00 0. -1.
         -4    1    6    6    0  503  0.10162813571E+03  0.20049191725E+03  0.37000897139E+03  0.43293408939E+03  0.00000000000E+00 0.  1.
<mgrwt>
<rscale>  0 0.12035911E+04</rscale>
<asrwt>0</asrwt>
<pdfrwt beam="1">  1        2 0.29714067E+00 0.12035911E+04</pdfrwt>
<pdfrwt beam="2">  1       -1 0.28847565E-01 0.12035911E+04</pdfrwt>
<totfact> 0.89675441E+01</totfact>
</mgrwt>
</event>
<event>
12    6  0.1542110E-007  0.1365475E+04  0.7818608E-02  0.8979196E-01
         -1   -1    0    0    0  501 -0.00000000000E+00  0.00000000000E+00  0.78472185951E+03  0.78472185951E+03  0.00000000000E+00 0.  1.
          2   -1    0    0  501    0  0.00000000000E+00 -0.00000000000E+00 -0.59400751294E+03  0.59400751294E+03  0.00000000000E+00 0. -1.
         24    2    1    2    0    0  0.17505004010E+03  0.28362426034E+03 -0.13601553675E+03  0.36843732066E+03  0.78489460567E+02 0.  0.
        254    2    1    2    0    0 -0.17505004010E+03 -0.28362426034E+03  0.32672988332E+03  0.10102920518E+04  0.89602029869E+03 0.  0.
         23    2    4    4    0    0  0.70320974388E+02 -0.42407416884E+03  0.50004959369E+03  0.66653149331E+03  0.97111767064E+02 0.  0.
         23    2    4    4    0    0 -0.24537101449E+03  0.14044990850E+03 -0.17331971037E+03  0.34376055848E+03  0.90545502463E+02 0.  0.
          4    1    3    3  502    0  0.13206198640E+03  0.19585604519E+03 -0.13205635066E+03  0.27062675115E+03  0.00000000000E+00 0. -1.
         -3    1    3    3    0  502  0.42988053704E+02  0.87768215153E+02 -0.39591860898E+01  0.97810569505E+02  0.00000000000E+00 0.  1.
         11    1    5    5    0    0  0.23678747758E+02 -0.31270027706E+02  0.18563509568E+02  0.43394718753E+02  0.00000000000E+00 0.  1.
        -11    1    5    5    0    0  0.46642226630E+02 -0.39280414114E+03  0.48148608412E+03  0.62313677456E+03  0.00000000000E+00 0. -1.
          4    1    6    6  503    0 -0.10648136173E+03  0.11293621963E+03 -0.87121526837E+02  0.17799727677E+03  0.00000000000E+00 0. -1.
         -4    1    6    6    0  503 -0.13888965276E+03  0.27513688872E+02 -0.86198183535E+02  0.16576328172E+03  0.00000000000E+00 0.  1.
<mgrwt>
<rscale>  0 0.13654753E+04</rscale>
<asrwt>0</asrwt>
<pdfrwt beam="1">  1        2 0.91385771E-01 0.13654753E+04</pdfrwt>
<pdfrwt beam="2">  1       -1 0.12072644E+00 0.13654753E+04</pdfrwt>
<totfact> 0.34158177E+01</totfact>
</mgrwt>
</event>
<event>
12    6  0.1542110E-007  0.1606271E+04  0.7818608E-02  0.8816705E-01
         -1   -1    0    0    0  501 -0.00000000000E+00  0.00000000000E+00  0.62976276102E+03  0.62976276102E+03  0.00000000000E+00 0.  1.
          2   -1    0    0  501    0  0.00000000000E+00 -0.00000000000E+00 -0.10242378229E+04  0.10242378229E+04  0.00000000000E+00 0. -1.
         24    2    1    2    0    0  0.38750454004E+03  0.29411938352E+03  0.11984861082E+03  0.50724091522E+03  0.79143390396E+02 0.  0.
        254    2    1    2    0    0 -0.38750454004E+03 -0.29411938352E+03 -0.51432367270E+03  0.11467596687E+04  0.90214351250E+03 0.  0.
         23    2    4    4    0    0  0.19001691678E+03 -0.36996327084E+03 -0.13871417198E+03  0.44768328993E+03  0.90550848365E+02 0.  0.
         23    2    4    4    0    0 -0.57752145682E+03  0.75843887326E+02 -0.37560950072E+03  0.69907637877E+03  0.91334319860E+02 0.  0.
          4    1    3    3  502    0  0.27271465997E+03  0.19522594755E+03  0.45481732862E+02  0.33845981207E+03  0.00000000000E+00 0. -1.
         -3    1    3    3    0  502  0.11478988007E+03  0.98893435970E+02  0.74366877959E+02  0.16878110315E+03  0.00000000000E+00 0.  1.
         11    1    5    5    0    0  0.12892112504E+03 -0.17541617458E+03 -0.40829562688E+02  0.22149163410E+03  0.00000000000E+00 0. -1.
        -11    1    5    5    0    0  0.61095791743E+02 -0.19454709626E+03 -0.97884609288E+02  0.22619165583E+03  0.00000000000E+00 0.  1.
          2    1    6    6  503    0 -0.45088509073E+03  0.96675715066E+02 -0.28781541249E+03  0.54358188950E+03  0.00000000000E+00 0. -1.
         -2    1    6    6    0  503 -0.12663636609E+03 -0.20831827741E+02 -0.87794088235E+02  0.15549448927E+03  0.00000000000E+00 0.  1.
<mgrwt>
<rscale>  0 0.16062713E+04</rscale>
<asrwt>0</asrwt>
<pdfrwt beam="1">  1        2 0.15757505E+00 0.16062713E+04</pdfrwt>
<pdfrwt beam="2">  1       -1 0.96886580E-01 0.16062713E+04</pdfrwt>
<totfact> 0.27227212E+01</totfact>
</mgrwt>
</event>
<event>
12    6  0.1542110E-007  0.1629022E+04  0.7818608E-02  0.8802914E-01
          2   -1    0    0  501    0  0.00000000000E+00  0.00000000000E+00  0.34732901031E+04  0.34732901031E+04  0.00000000000E+00 0. -1.
         -1   -1    0    0    0  501 -0.00000000000E+00 -0.00000000000E+00 -0.19100862216E+03  0.19100862216E+03  0.00000000000E+00 0.  1.
         24    2    1    2    0    0 -0.19760410947E+03  0.14933962185E+03  0.23075544313E+04  0.23221256267E+04  0.78168191939E+02 0.  0.
        254    2    1    2    0    0  0.19760410947E+03 -0.14933962185E+03  0.97472704965E+03  0.13421730985E+04  0.88881162141E+03 0.  0.
         23    2    4    4    0    0  0.35657357937E+03 -0.43622645929E+03  0.70412946107E+03  0.90564632946E+03  0.83419031551E+02 0.  0.
         23    2    4    4    0    0 -0.15896946990E+03  0.28688683744E+03  0.27059758858E+03  0.43652676907E+03  0.98778617699E+02 0.  0.
          4    1    3    3  502    0 -0.16676515927E+03  0.10337659968E+03  0.20025914237E+04  0.20121803472E+04  0.00000000000E+00 0. -1.
         -3    1    3    3    0  502 -0.30838950198E+02  0.45963022169E+02  0.30496300760E+03  0.30994527946E+03  0.00000000000E+00 0.  1.
         11    1    5    5    0    0  0.56801352232E+02 -0.57611856786E+02  0.15146488156E+03  0.17171817028E+03  0.00000000000E+00 0. -1.
        -11    1    5    5    0    0  0.29977222714E+03 -0.37861460250E+03  0.55266457951E+03  0.73392815918E+03  0.00000000000E+00 0.  1.
          4    1    6    6  503    0 -0.15528201784E+02  0.79319975327E+02  0.25454390913E+02  0.84739067456E+02  0.00000000000E+00 0. -1.
         -4    1    6    6    0  503 -0.14344126811E+03  0.20756686211E+03  0.24514319766E+03  0.35178770161E+03  0.00000000000E+00 0.  1.
<mgrwt>
<rscale>  0 0.16290222E+04</rscale>
<asrwt>0</asrwt>
<pdfrwt beam="1">  1        2 0.53435228E+00 0.16290222E+04</pdfrwt>
<pdfrwt beam="2">  1       -1 0.29385944E-01 0.16290222E+04</pdfrwt>
<totfact> 0.98903128E+00</totfact>
</mgrwt>
</event>
<event>
12    6  0.1542110E-007  0.3498819E+04  0.7818608E-02  0.8114070E-01
          2   -1    0    0  501    0  0.00000000000E+00  0.00000000000E+00  0.28348189283E+04  0.28348189283E+04  0.00000000000E+00 0. -1.
         -1   -1    0    0    0  501 -0.00000000000E+00 -0.00000000000E+00 -0.10795871076E+04  0.10795871076E+04  0.00000000000E+00 0.  1.
         24    2    1    2    0    0  0.13950492167E+04 -0.17802954453E+03 -0.80557428538E+02  0.14109746293E+04  0.80641610121E+02 0.  0.
        254    2    1    2    0    0 -0.13950492167E+04  0.17802954453E+03  0.18357892492E+04  0.25034314067E+04  0.95874386808E+03 0.  0.
         23    2    4    4    0    0 -0.10772503745E+04  0.42559093526E+03  0.17169744657E+04  0.20731066742E+04  0.90409916293E+02 0.  0.
         23    2    4    4    0    0 -0.31779884222E+03 -0.24756139073E+03  0.11881478354E+03  0.43032473255E+03  0.93699927226E+02 0.  0.
          4    1    3    3  502    0  0.48360932825E+02 -0.22924119209E+00  0.10723968891E+02  0.49536207808E+02  0.00000000000E+00 0. -1.
         -3    1    3    3    0  502  0.13466882839E+04 -0.17780030334E+03 -0.91281397429E+02  0.13614384215E+04  0.00000000000E+00 0.  1.
         11    1    5    5    0    0 -0.34252416970E+03  0.17982659646E+03  0.55397533086E+03  0.67568415611E+03  0.00000000000E+00 0.  1.
        -11    1    5    5    0    0 -0.73472620483E+03  0.24576433880E+03  0.11629991349E+04  0.13974225180E+04  0.00000000000E+00 0. -1.
          3    1    6    6  503    0 -0.15632082338E+03 -0.17314798357E+03  0.43804406660E+02  0.23735047942E+03  0.00000000000E+00 0. -1.
         -3    1    6    6    0  503 -0.16147801884E+03 -0.74413407158E+02  0.75010376880E+02  0.19297425313E+03  0.00000000000E+00 0.  1.
<mgrwt>
<rscale>  0 0.34988192E+04</rscale>
<asrwt>0</asrwt>
<pdfrwt beam="1">  1        2 0.43612599E+00 0.34988192E+04</pdfrwt>
<pdfrwt beam="2">  1       -1 0.16609033E+00 0.34988192E+04</pdfrwt>
<totfact> 0.54047844E-01</totfact>
</mgrwt>
</event>
<event>
12    6  0.1542110E-007  0.1502181E+04  0.7818608E-02  0.8883004E-01
         -1   -1    0    0    0  501 -0.00000000000E+00  0.00000000000E+00  0.17089912949E+03  0.17089912949E+03  0.00000000000E+00 0.  1.
          2   -1    0    0  501    0  0.00000000000E+00 -0.00000000000E+00 -0.33009927866E+04  0.33009927866E+04  0.00000000000E+00 0. -1.
         24    2    1    2    0    0  0.19328789387E+03  0.41241549066E+02 -0.13929651777E+02  0.22046891705E+03  0.96702807096E+02 0.  0.
        254    2    1    2    0    0 -0.19328789387E+03 -0.41241549066E+02 -0.31161640053E+04  0.32514229990E+04  0.90675924880E+03 0.  0.
         23    2    4    4    0    0 -0.41428126324E+03  0.28745572699E+03 -0.14913326349E+04  0.15766951864E+04  0.87378044705E+02 0.  0.
         23    2    4    4    0    0  0.22099336937E+03 -0.32869727606E+03 -0.16248313704E+04  0.16747278126E+04  0.88069834013E+02 0.  0.
          4    1    3    3  502    0  0.99350147322E+02  0.50938836718E+02 -0.45974850379E+02  0.12074313118E+03  0.00000000000E+00 0. -1.
         -3    1    3    3    0  502  0.93937746552E+02 -0.96972876517E+01  0.32045198602E+02  0.99725785875E+02  0.00000000000E+00 0.  1.
         11    1    5    5    0    0 -0.21311569383E+03  0.16011802187E+03 -0.65581884971E+03  0.70792262537E+03  0.00000000000E+00 0. -1.
        -11    1    5    5    0    0 -0.20116556941E+03  0.12733770512E+03 -0.83551378522E+03  0.86877256101E+03  0.00000000000E+00 0.  1.
          2    1    6    6  503    0  0.20595743708E+03 -0.24286745481E+03 -0.12549234172E+04  0.12946952729E+04  0.00000000000E+00 0. -1.
         -2    1    6    6    0  503  0.15035932286E+02 -0.85829821245E+02 -0.36990795315E+03  0.38003253976E+03  0.00000000000E+00 0.  1.
<mgrwt>
<rscale>  0 0.15021808E+04</rscale>
<asrwt>0</asrwt>
<pdfrwt beam="1">  1        2 0.50784505E+00 0.15021808E+04</pdfrwt>
<pdfrwt beam="2">  1       -1 0.26292173E-01 0.15021808E+04</pdfrwt>
<totfact> 0.15887337E+01</totfact>
</mgrwt>
</event>
<event>
12    6  0.1542110E-007  0.1788243E+04  0.7818608E-02  0.8712577E-01
          2   -1    0    0  501    0  0.00000000000E+00  0.00000000000E+00  0.18875566810E+04  0.18875566810E+04  0.00000000000E+00 0. -1.
         -1   -1    0    0    0  501 -0.00000000000E+00 -0.00000000000E+00 -0.42353867977E+03  0.42353867977E+03  0.00000000000E+00 0.  1.
         24    2    1    2    0    0  0.24385548478E+03 -0.55287426141E+03  0.92053673708E+03  0.11040333003E+04  0.79788454576E+02 0.  0.
        254    2    1    2    0    0 -0.24385548478E+03  0.55287426141E+03  0.54348126419E+03  0.12070620605E+04  0.89246371746E+03 0.  0.
         23    2    4    4    0    0 -0.54974813278E+03  0.28297852364E+03  0.17636906881E+03  0.64941386891E+03  0.91282366083E+02 0.  0.
         23    2    4    4    0    0  0.30589264800E+03  0.26989573777E+03  0.36711219538E+03  0.55764819159E+03  0.98924821068E+02 0.  0.
          4    1    3    3  502    0  0.24962166198E+03 -0.54706296758E+03  0.90807462022E+03  0.10891227573E+04  0.00000000000E+00 0. -1.
         -3    1    3    3    0  502 -0.57661771986E+01 -0.58112938251E+01  0.12462116859E+02  0.14910542982E+02  0.00000000000E+00 0.  1.
         11    1    5    5    0    0 -0.30692323305E+03  0.10679538109E+03  0.94664811605E+02  0.33847976448E+03  0.00000000000E+00 0. -1.
        -11    1    5    5    0    0 -0.24282489973E+03  0.17618314255E+03  0.81704257206E+02  0.31093410443E+03  0.00000000000E+00 0.  1.
          3    1    6    6  503    0  0.23798550694E+03  0.24458570020E+03  0.26323538073E+03  0.43098971208E+03  0.00000000000E+00 0. -1.
         -3    1    6    6    0  503  0.67907141063E+02  0.25310037565E+02  0.10387681465E+03  0.12665847951E+03  0.00000000000E+00 0.  1.
<mgrwt>
<rscale>  0 0.17882430E+04</rscale>
<asrwt>0</asrwt>
<pdfrwt beam="1">  1        2 0.29039333E+00 0.17882430E+04</pdfrwt>
<pdfrwt beam="2">  1       -1 0.65159798E-01 0.17882430E+04</pdfrwt>
<totfact> 0.19825996E+01</totfact>
</mgrwt>
</event>
<event>
12    6  0.1542110E-007  0.1617641E+04  0.7818608E-02  0.8809783E-01
         -1   -1    0    0    0  501 -0.00000000000E+00  0.00000000000E+00  0.82788450706E+03  0.82788450706E+03  0.00000000000E+00 0.  1.
          2   -1    0    0  501    0  0.00000000000E+00 -0.00000000000E+00 -0.79019567875E+03  0.79019567875E+03  0.00000000000E+00 0. -1.
         24    2    1    2    0    0  0.20650500068E+03  0.51833513390E+02  0.52596691245E+03  0.57316271100E+03  0.80890493043E+02 0.  0.
        254    2    1    2    0    0 -0.20650500068E+03 -0.51833513390E+02 -0.48827808414E+03  0.10449174748E+04  0.89894716937E+03 0.  0.
         23    2    4    4    0    0 -0.30717745544E+03 -0.21347928862E+03 -0.66675120228E+03  0.76912342219E+03  0.84037354878E+02 0.  0.
         23    2    4    4    0    0  0.10067245475E+03  0.16164577523E+03  0.17847311815E+03  0.27579405263E+03  0.89137005616E+02 0.  0.
          4    1    3    3  502    0  0.90709303663E+02 -0.16904346260E+02  0.19023515482E+03  0.21143166467E+03  0.00000000000E+00 0. -1.
         -3    1    3    3    0  502  0.11579569702E+03  0.68737859649E+02  0.33573175763E+03  0.36173104633E+03  0.00000000000E+00 0.  1.
         11    1    5    5    0    0 -0.77743094741E+02 -0.18550281283E+02 -0.10712306063E+03  0.13365422490E+03  0.00000000000E+00 0.  1.
        -11    1    5    5    0    0 -0.22943436070E+03 -0.19492900733E+03 -0.55962814165E+03  0.63546919729E+03  0.00000000000E+00 0. -1.
          4    1    6    6  503    0  0.31744720193E+02  0.99127281041E+02  0.14150411324E+03  0.17566262884E+03  0.00000000000E+00 0. -1.
         -4    1    6    6    0  503  0.68927734561E+02  0.62518494186E+02  0.36969004910E+02  0.10013142379E+03  0.00000000000E+00 0.  1.
<mgrwt>
<rscale>  0 0.16176412E+04</rscale>
<asrwt>0</asrwt>
<pdfrwt beam="1">  1        2 0.12156857E+00 0.16176412E+04</pdfrwt>
<pdfrwt beam="2">  1       -1 0.12736685E+00 0.16176412E+04</pdfrwt>
<totfact> 0.20447043E+01</totfact>
</mgrwt>
</event>
<event>
12    6  0.1542110E-007  0.1864674E+04  0.7818608E-02  0.8672643E-01
         -3   -1    0    0    0  501 -0.00000000000E+00  0.00000000000E+00  0.19459811927E+04  0.19459811927E+04  0.00000000000E+00 0.  1.
          2   -1    0    0  501    0  0.00000000000E+00 -0.00000000000E+00 -0.44669099170E+03  0.44669099170E+03  0.00000000000E+00 0. -1.
         24    2    1    2    0    0 -0.19138494008E+03  0.56297872958E+03  0.58218635795E+02  0.60193794296E+03  0.73257302482E+02 0.  0.
        254    2    1    2    0    0  0.19138494008E+03 -0.56297872958E+03  0.14410715652E+04  0.17907342414E+04  0.88117456964E+03 0.  0.
         23    2    4    4    0    0 -0.31889108275E+03 -0.94121505936E+02  0.32937197588E+03  0.47753440930E+03  0.94883260035E+02 0.  0.
         23    2    4    4    0    0  0.51027602283E+03 -0.46885722365E+03  0.11116995893E+04  0.13131998321E+04  0.91701180995E+02 0.  0.
          4    1    3    3  502    0 -0.17835322391E+03  0.50262899308E+03  0.30345853402E+02  0.53419719953E+03  0.00000000000E+00 0. -1.
         -1    1    3    3    0  502 -0.13031716168E+02  0.60349736506E+02  0.27872782393E+02  0.67740743433E+02  0.00000000000E+00 0.  1.
         11    1    5    5    0    0 -0.10670010944E+03 -0.60636901495E+02  0.17175567117E+03  0.21109656026E+03  0.00000000000E+00 0. -1.
        -11    1    5    5    0    0 -0.21219097331E+03 -0.33484604440E+02  0.15761630471E+03  0.26643784903E+03  0.00000000000E+00 0.  1.
          3    1    6    6  503    0  0.25668428157E+03 -0.21795988557E+03  0.45760831780E+03  0.56815376848E+03  0.00000000000E+00 0. -1.
         -3    1    6    6    0  503  0.25359174126E+03 -0.25089733807E+03  0.65409127152E+03  0.74504606365E+03  0.00000000000E+00 0.  1.
<mgrwt>
<rscale>  0 0.18646740E+04</rscale>
<asrwt>0</asrwt>
<pdfrwt beam="1">  1        2 0.68721692E-01 0.18646740E+04</pdfrwt>
<pdfrwt beam="2">  1       -3 0.29938172E+00 0.18646740E+04</pdfrwt>
<totfact> 0.15732850E+00</totfact>
</mgrwt>
</event>
<event>
12    6  0.1542110E-007  0.3390579E+04  0.7818608E-02  0.8140223E-01
          2   -1    0    0  501    0  0.00000000000E+00  0.00000000000E+00  0.23157858405E+04  0.23157858405E+04  0.00000000000E+00 0. -1.
         -1   -1    0    0    0  501 -0.00000000000E+00 -0.00000000000E+00 -0.12410498851E+04  0.12410498851E+04  0.00000000000E+00 0.  1.
         24    2    1    2    0    0 -0.15289946206E+04  0.54763135026E+02  0.10873813707E+03  0.15361178293E+04  0.83728442180E+02 0.  0.
        254    2    1    2    0    0  0.15289946206E+04 -0.54763135026E+02  0.96599781831E+03  0.20207178964E+04  0.89962518922E+03 0.  0.
         23    2    4    4    0    0  0.14573218722E+03 -0.19025597522E+03  0.48108278063E+03  0.54598561444E+03  0.96043963180E+02 0.  0.
         23    2    4    4    0    0  0.13832624334E+04  0.13549284019E+03  0.48491503768E+03  0.14747322820E+04  0.88991237321E+02 0.  0.
          2    1    3    3  502    0 -0.70527158397E+03 -0.14776749645E+02  0.38176590588E+02  0.70645864108E+03  0.00000000000E+00 0. -1.
         -1    1    3    3    0  502 -0.82372303665E+03  0.69539884672E+02  0.70561546478E+02  0.82965918817E+03  0.00000000000E+00 0.  1.
         11    1    5    5    0    0 -0.69620049616E+01 -0.35745041326E+02  0.11141994948E+03  0.11722023133E+03  0.00000000000E+00 0. -1.
        -11    1    5    5    0    0  0.15269419218E+03 -0.15451093389E+03  0.36966283115E+03  0.42876538311E+03  0.00000000000E+00 0.  1.
          1    1    6    6  503    0  0.16521359490E+03  0.43890558113E+02  0.49630357135E+02  0.17800304880E+03  0.00000000000E+00 0. -1.
         -1    1    6    6    0  503  0.12180488385E+04  0.91602282076E+02  0.43528468055E+03  0.12967292332E+04  0.00000000000E+00 0.  1.
<mgrwt>
<rscale>  0 0.33905786E+04</rscale>
<asrwt>0</asrwt>
<pdfrwt beam="1">  1        2 0.35627475E+00 0.33905786E+04</pdfrwt>
<pdfrwt beam="2">  1       -1 0.19093075E+00 0.33905786E+04</pdfrwt>
<totfact> 0.72848128E-01</totfact>
</mgrwt>
</event>
<event>
12    6  0.1585125E-007  0.1752918E+04  0.7818608E-02  0.8731746E-01
          2   -1    0    0  501    0  0.00000000000E+00  0.00000000000E+00  0.11479565073E+04  0.11479565073E+04  0.00000000000E+00 0. -1.
         -1   -1    0    0    0  501 -0.00000000000E+00 -0.00000000000E+00 -0.66917232254E+03  0.66917232254E+03  0.00000000000E+00 0.  1.
         24    2    1    2    0    0 -0.44236380936E+03 -0.15398032184E+03  0.62552812880E+03  0.78549303050E+03  0.79486990712E+02 0.  0.
        254    2    1    2    0    0  0.44236380936E+03  0.15398032184E+03 -0.14674394408E+03  0.10316357993E+04  0.90738247611E+03 0.  0.
         23    2    4    4    0    0  0.42784314157E+03 -0.25715811438E+03  0.13380238406E+03  0.52478127411E+03  0.91171586019E+02 0.  0.
         23    2    4    4    0    0  0.14520667793E+02  0.41113843622E+03 -0.28054632814E+03  0.50685452520E+03  0.94602346423E+02 0.  0.
          4    1    3    3  502    0 -0.34419266309E+03 -0.13741835351E+03  0.44303356300E+03  0.57760811209E+03  0.00000000000E+00 0. -1.
         -3    1    3    3    0  502 -0.98171146267E+02 -0.16561968336E+02  0.18249456580E+03  0.20788491840E+03  0.00000000000E+00 0.  1.
         11    1    5    5    0    0  0.41895290093E+03 -0.26471453574E+03  0.13285684138E+03  0.51307529558E+03  0.00000000000E+00 0. -1.
        -11    1    5    5    0    0  0.88902406343E+01  0.75564213632E+01  0.94554268529E+00  0.11705978529E+02  0.00000000000E+00 0.  1.
          1    1    6    6  503    0  0.26794203983E+02  0.39818014396E+03 -0.24836099598E+03  0.47005163625E+03  0.00000000000E+00 0. -1.
         -1    1    6    6    0  503 -0.12273536190E+02  0.12958292260E+02 -0.32185332164E+02  0.36802888955E+02  0.00000000000E+00 0.  1.
<mgrwt>
<rscale>  0 0.17529184E+04</rscale>
<asrwt>0</asrwt>
<pdfrwt beam="1">  1        2 0.17660869E+00 0.17529184E+04</pdfrwt>
<pdfrwt beam="2">  1       -1 0.10294959E+00 0.17529184E+04</pdfrwt>
<totfact> 0.19614107E+01</totfact>
</mgrwt>
</event>
<event>
12    6  0.1542110E-007  0.2270296E+04  0.7818608E-02  0.8489726E-01
          2   -1    0    0  501    0  0.00000000000E+00  0.00000000000E+00  0.26159242548E+04  0.26159242548E+04  0.00000000000E+00 0. -1.
         -1   -1    0    0    0  501 -0.00000000000E+00 -0.00000000000E+00 -0.49258343246E+03  0.49258343246E+03  0.00000000000E+00 0.  1.
         24    2    1    2    0    0  0.46149727349E+03  0.28910773125E+03  0.19698205594E+04  0.20452448243E+04  0.79185486846E+02 0.  0.
        254    2    1    2    0    0 -0.46149727349E+03 -0.28910773125E+03  0.15352026296E+03  0.10632628630E+04  0.90022021250E+03 0.  0.
         23    2    4    4    0    0 -0.88015814506E+02  0.22667226715E+03 -0.20026942416E+03  0.32833561016E+03  0.92570677573E+02 0.  0.
         23    2    4    4    0    0 -0.37348145898E+03 -0.51577999840E+03  0.35378968712E+03  0.73492725284E+03  0.97126295687E+02 0.  0.
          4    1    3    3  502    0  0.30676930500E+03  0.15522755204E+03  0.13150669390E+04  0.13592659980E+04  0.00000000000E+00 0. -1.
         -3    1    3    3    0  502  0.15472796848E+03  0.13388017921E+03  0.65475362040E+03  0.68597882623E+03  0.00000000000E+00 0.  1.
         11    1    5    5    0    0 -0.10500346443E+03  0.16343053239E+03 -0.14125862006E+03  0.24018589510E+03  0.00000000000E+00 0.  1.
        -11    1    5    5    0    0  0.16987649928E+02  0.63241734758E+02 -0.59010804097E+02  0.88149715062E+02  0.00000000000E+00 0. -1.
          4    1    6    6  503    0 -0.23131621017E+03 -0.23711415286E+03  0.18760938348E+03  0.38069356620E+03  0.00000000000E+00 0. -1.
         -4    1    6    6    0  503 -0.14216524880E+03 -0.27866584554E+03  0.16618030364E+03  0.35423368664E+03  0.00000000000E+00 0.  1.
<mgrwt>
<rscale>  0 0.22702960E+04</rscale>
<asrwt>0</asrwt>
<pdfrwt beam="1">  1        2 0.40244988E+00 0.22702960E+04</pdfrwt>
<pdfrwt beam="2">  1       -1 0.75782068E-01 0.22702960E+04</pdfrwt>
<totfact> 0.53883445E+00</totfact>
</mgrwt>
</event>
<event>
12    6  0.1542110E-007  0.1564226E+04  0.7818608E-02  0.8842832E-01
          2   -1    0    0  501    0  0.00000000000E+00  0.00000000000E+00  0.25754876429E+04  0.25754876429E+04  0.00000000000E+00 0. -1.
         -1   -1    0    0    0  501 -0.00000000000E+00 -0.00000000000E+00 -0.23750862651E+03  0.23750862651E+03  0.00000000000E+00 0.  1.
         24    2    1    2    0    0 -0.30364403069E+02 -0.44742409440E+03  0.30043252189E+03  0.54552538198E+03  0.78917203117E+02 0.  0.
        254    2    1    2    0    0  0.30364403069E+02  0.44742409440E+03  0.20375464945E+04  0.22674708874E+04  0.88809807502E+03 0.  0.
         23    2    4    4    0    0 -0.32592140468E+03  0.45523281345E+02  0.13388915281E+04  0.13817620872E+04  0.91317088041E+02 0.  0.
         23    2    4    4    0    0  0.35628580775E+03  0.40190081306E+03  0.69865496637E+03  0.88570880015E+03  0.88867746058E+02 0.  0.
          4    1    3    3  502    0  0.18534628424E+02 -0.55993386853E+02  0.23214263208E+02  0.63385280929E+02  0.00000000000E+00 0. -1.
         -3    1    3    3    0  502 -0.48899031493E+02 -0.39143070755E+03  0.27721825869E+03  0.48214010105E+03  0.00000000000E+00 0.  1.
         11    1    5    5    0    0 -0.77722004491E+02  0.36174051144E+02  0.48346697374E+03  0.49100874397E+03  0.00000000000E+00 0. -1.
        -11    1    5    5    0    0 -0.24819940019E+03  0.93492302002E+01  0.85542455435E+03  0.89075334327E+03  0.00000000000E+00 0.  1.
          2    1    6    6  503    0  0.14898193035E+03  0.13619331113E+03  0.20249311689E+03  0.28591553990E+03  0.00000000000E+00 0. -1.
         -2    1    6    6    0  503  0.20730387740E+03  0.26570750193E+03  0.49616184948E+03  0.59979326025E+03  0.00000000000E+00 0.  1.
<mgrwt>
<rscale>  0 0.15642257E+04</rscale>
<asrwt>0</asrwt>
<pdfrwt beam="1">  1        2 0.39622885E+00 0.15642257E+04</pdfrwt>
<pdfrwt beam="2">  1       -1 0.36539790E-01 0.15642257E+04</pdfrwt>
<totfact> 0.24805124E+01</totfact>
</mgrwt>
</event>
<event>
12    6  0.1542110E-007  0.2297259E+04  0.7818608E-02  0.8479003E-01
         -1   -1    0    0    0  501 -0.00000000000E+00  0.00000000000E+00  0.54213724444E+03  0.54213724444E+03  0.00000000000E+00 0.  1.
          2   -1    0    0  501    0  0.00000000000E+00 -0.00000000000E+00 -0.24336088682E+04  0.24336088682E+04  0.00000000000E+00 0. -1.
         24    2    1    2    0    0  0.52697224793E+03  0.57456500407E+03 -0.15214338301E+04  0.17115858467E+04  0.83309766896E+02 0.  0.
        254    2    1    2    0    0 -0.52697224793E+03 -0.57456500407E+03 -0.37003779364E+03  0.12641602659E+04  0.92376864810E+03 0.  0.
         23    2    4    4    0    0  0.16841328036E+03 -0.45242501646E+03 -0.20937585003E+03  0.53364855894E+03  0.88831916369E+02 0.  0.
         23    2    4    4    0    0 -0.69538552829E+03 -0.12213998761E+03 -0.16066194361E+03  0.73051170698E+03  0.96725820638E+02 0.  0.
          2    1    3    3  502    0  0.54993774733E+02  0.45901306894E+02 -0.19425837171E+03  0.20704482658E+03  0.00000000000E+00 0. -1.
         -1    1    3    3    0  502  0.47197847319E+03  0.52866369717E+03 -0.13271754584E+04  0.15045410201E+04  0.00000000000E+00 0.  1.
         11    1    5    5    0    0  0.17132689250E+03 -0.39974768016E+03 -0.16661515956E+03  0.46573782676E+03  0.00000000000E+00 0.  1.
        -11    1    5    5    0    0 -0.29136121390E+01 -0.52677336303E+02 -0.42760690466E+02  0.67910732177E+02  0.00000000000E+00 0. -1.
          3    1    6    6  503    0 -0.24238948528E+03 -0.82484515612E+02 -0.83300455540E+02  0.26924955670E+03  0.00000000000E+00 0. -1.
         -3    1    6    6    0  503 -0.45299604301E+03 -0.39655471996E+02 -0.77361488073E+02  0.46126215028E+03  0.00000000000E+00 0.  1.
<mgrwt>
<rscale>  0 0.22972592E+04</rscale>
<asrwt>0</asrwt>
<pdfrwt beam="1">  1        2 0.37440137E+00 0.22972592E+04</pdfrwt>
<pdfrwt beam="2">  1       -1 0.83405728E-01 0.22972592E+04</pdfrwt>
<totfact> 0.55960017E+00</totfact>
</mgrwt>
</event>
<event>
12    6  0.1542110E-007  0.1592637E+04  0.7818608E-02  0.8825084E-01
         -1   -1    0    0    0  501 -0.00000000000E+00  0.00000000000E+00  0.39751833572E+03  0.39751833572E+03  0.00000000000E+00 0.  1.
          2   -1    0    0  501    0  0.00000000000E+00 -0.00000000000E+00 -0.15952050880E+04  0.15952050880E+04  0.00000000000E+00 0. -1.
         24    2    1    2    0    0  0.23079026386E+03  0.47504421494E+03 -0.53652215479E+03  0.75723825770E+03  0.81379385070E+02 0.  0.
        254    2    1    2    0    0 -0.23079026386E+03 -0.47504421494E+03 -0.66116459753E+03  0.12354851661E+04  0.90019654436E+03 0.  0.
         23    2    4    4    0    0 -0.19151350831E+02  0.14424305142E+03 -0.53533888675E+03  0.56209103444E+03  0.90475273999E+02 0.  0.
         23    2    4    4    0    0 -0.21163891303E+03 -0.61928726636E+03 -0.12582571078E+03  0.67339413162E+03  0.96539107236E+02 0.  0.
          2    1    3    3  502    0  0.72015982139E+02  0.13241737840E+03 -0.20691147157E+03  0.25599418129E+03  0.00000000000E+00 0. -1.
         -1    1    3    3    0  502  0.15877428172E+03  0.34262683653E+03 -0.32961068321E+03  0.50124407641E+03  0.00000000000E+00 0.  1.
         11    1    5    5    0    0  0.48905346804E+01  0.11581349312E+03 -0.48949312476E+03  0.50303101465E+03  0.00000000000E+00 0. -1.
        -11    1    5    5    0    0 -0.24041885512E+02  0.28429558301E+02 -0.45845761994E+02  0.59060019785E+02  0.00000000000E+00 0.  1.
          1    1    6    6  503    0 -0.18917441785E+03 -0.60653684339E+03 -0.12510579786E+03  0.64755336723E+03  0.00000000000E+00 0. -1.
         -1    1    6    6    0  503 -0.22464495176E+02 -0.12750422968E+02 -0.71991292119E+00  0.25840764385E+02  0.00000000000E+00 0.  1.
<mgrwt>
<rscale>  0 0.15926371E+04</rscale>
<asrwt>0</asrwt>
<pdfrwt beam="1">  1        2 0.24541616E+00 0.15926371E+04</pdfrwt>
<pdfrwt beam="2">  1       -1 0.61156668E-01 0.15926371E+04</pdfrwt>
<totfact> 0.33261424E+01</totfact>
</mgrwt>
</event>
<event>
12    6  0.1542110E-007  0.2923916E+04  0.7818608E-02  0.8265797E-01
         -1   -1    0    0    0  501 -0.00000000000E+00  0.00000000000E+00  0.23124629840E+04  0.23124629840E+04  0.00000000000E+00 0.  1.
          2   -1    0    0  501    0  0.00000000000E+00 -0.00000000000E+00 -0.92426150939E+03  0.92426150939E+03  0.00000000000E+00 0. -1.
         24    2    1    2    0    0  0.32013471204E+03 -0.42873595815E+02  0.20488177555E+04  0.20757450804E+04  0.82091804816E+02 0.  0.
        254    2    1    2    0    0 -0.32013471204E+03  0.42873595815E+02 -0.66061628084E+03  0.11609794130E+04  0.89840689442E+03 0.  0.
         23    2    4    4    0    0  0.26223378148E+03 -0.67835875875E+02 -0.23458833429E+02  0.28592859251E+03  0.88524465243E+02 0.  0.
         23    2    4    4    0    0 -0.58236849352E+03  0.11070947169E+03 -0.63715744741E+03  0.87505082053E+03  0.91294448654E+02 0.  0.
          2    1    3    3  502    0  0.96457175830E+01 -0.19613104929E+02  0.12608388069E+03  0.12796428690E+03  0.00000000000E+00 0. -1.
         -1    1    3    3    0  502  0.31048899446E+03 -0.23260490885E+02  0.19227338748E+04  0.19477807935E+04  0.00000000000E+00 0.  1.
         11    1    5    5    0    0  0.25877959312E+03 -0.45992573020E+02 -0.22421828056E+02  0.26378956189E+03  0.00000000000E+00 0. -1.
        -11    1    5    5    0    0  0.34541883585E+01 -0.21843302855E+02 -0.10370053726E+01  0.22139030624E+02  0.00000000000E+00 0.  1.
          1    1    6    6  503    0 -0.42801709557E+03  0.65655106700E+02 -0.40686139482E+03  0.59417625476E+03  0.00000000000E+00 0. -1.
         -1    1    6    6    0  503 -0.15435139796E+03  0.45054364990E+02 -0.23029605260E+03  0.28087456577E+03  0.00000000000E+00 0.  1.
<mgrwt>
<rscale>  0 0.29239155E+04</rscale>
<asrwt>0</asrwt>
<pdfrwt beam="1">  1        2 0.14219408E+00 0.29239155E+04</pdfrwt>
<pdfrwt beam="2">  1       -1 0.35576353E+00 0.29239155E+04</pdfrwt>
<totfact> 0.39435084E-01</totfact>
</mgrwt>
</event>
<event>
12    6  0.1542110E-007  0.1399157E+04  0.7818608E-02  0.8954429E-01
         -1   -1    0    0    0  501 -0.00000000000E+00  0.00000000000E+00  0.38499770986E+03  0.38499770986E+03  0.00000000000E+00 0.  1.
          2   -1    0    0  501    0  0.00000000000E+00 -0.00000000000E+00 -0.12712033228E+04  0.12712033228E+04  0.00000000000E+00 0. -1.
         24    2    1    2    0    0 -0.29335558344E+03  0.24458713210E+03 -0.96774500935E+02  0.40185640130E+03  0.79012022577E+02 0.  0.
        254    2    1    2    0    0  0.29335558344E+03 -0.24458713210E+03 -0.78943111203E+03  0.12543446314E+04  0.89682696776E+03 0.  0.
         23    2    4    4    0    0  0.27252050065E+02  0.30638523873E+03 -0.12070425169E+03  0.34279518067E+03  0.91238318547E+02 0.  0.
         23    2    4    4    0    0  0.26610353338E+03 -0.55097237083E+03 -0.66872686034E+03  0.91154945071E+03  0.96670282217E+02 0.  0.
          4    1    3    3  502    0 -0.13079000049E+03  0.12965368532E+03 -0.83829297006E+02  0.20234488721E+03  0.00000000000E+00 0. -1.
         -3    1    3    3    0  502 -0.16256558295E+03  0.11493344678E+03 -0.12945203929E+02  0.19951151409E+03  0.00000000000E+00 0.  1.
         11    1    5    5    0    0  0.11158254442E+02  0.37674802184E+02 -0.51632259769E+02  0.64882876097E+02  0.00000000000E+00 0. -1.
        -11    1    5    5    0    0  0.16093795623E+02  0.26871043654E+03 -0.69071991921E+02  0.27791230457E+03  0.00000000000E+00 0.  1.
          3    1    6    6  503    0  0.83631817867E+02 -0.86844502088E+02 -0.13905304148E+03  0.18404346456E+03  0.00000000000E+00 0. -1.
         -3    1    6    6    0  503  0.18247171551E+03 -0.46412786874E+03 -0.52967381886E+03  0.72750598615E+03  0.00000000000E+00 0.  1.
<mgrwt>
<rscale>  0 0.13991574E+04</rscale>
<asrwt>0</asrwt>
<pdfrwt beam="1">  1        2 0.19556974E+00 0.13991574E+04</pdfrwt>
<pdfrwt beam="2">  1       -1 0.59230417E-01 0.13991574E+04</pdfrwt>
<totfact> 0.55099943E+01</totfact>
</mgrwt>
</event>
<event>
12    6  0.1542110E-007  0.1831161E+04  0.7818608E-02  0.8689901E-01
         -1   -1    0    0    0  501 -0.00000000000E+00  0.00000000000E+00  0.27628813100E+03  0.27628813100E+03  0.00000000000E+00 0.  1.
          2   -1    0    0  501    0  0.00000000000E+00 -0.00000000000E+00 -0.30341080889E+04  0.30341080889E+04  0.00000000000E+00 0. -1.
         24    2    1    2    0    0 -0.34633116586E+03 -0.60697096593E+03 -0.10638136506E+04  0.12753038670E+04  0.79633158943E+02 0.  0.
        254    2    1    2    0    0  0.34633116586E+03  0.60697096593E+03 -0.16940063073E+04  0.20350923529E+04  0.88520307603E+03 0.  0.
         23    2    4    4    0    0  0.40119986938E+03  0.46672774834E+03 -0.42619387680E+03  0.75420341183E+03  0.91572045563E+02 0.  0.
         23    2    4    4    0    0 -0.54868703518E+02  0.14024321759E+03 -0.12678124305E+04  0.12808889411E+04  0.10319586123E+03 0.  0.
          2    1    3    3  502    0 -0.32890044968E+03 -0.53852586052E+03 -0.98145343615E+03  0.11668060917E+04  0.00000000000E+00 0. -1.
         -1    1    3    3    0  502 -0.17430716177E+02 -0.68445105408E+02 -0.82360214458E+02  0.10849777531E+03  0.00000000000E+00 0.  1.
         11    1    5    5    0    0  0.26634777900E+03  0.36814372240E+03 -0.32837288824E+03  0.56062437821E+03  0.00000000000E+00 0. -1.
        -11    1    5    5    0    0  0.13485209038E+03  0.98584025945E+02 -0.97820988565E+02  0.19357903362E+03  0.00000000000E+00 0.  1.
          3    1    6    6  503    0 -0.57061195701E+01  0.71879426406E+02 -0.92806788364E+03  0.93086476374E+03  0.00000000000E+00 0. -1.
         -3    1    6    6    0  503 -0.49162583948E+02  0.68363791181E+02 -0.33974454688E+03  0.35002417736E+03  0.00000000000E+00 0.  1.
<mgrwt>
<rscale>  0 0.18311614E+04</rscale>
<asrwt>0</asrwt>
<pdfrwt beam="1">  1        2 0.46678585E+00 0.18311614E+04</pdfrwt>
<pdfrwt beam="2">  1       -1 0.42505867E-01 0.18311614E+04</pdfrwt>
<totfact> 0.97121180E+00</totfact>
</mgrwt>
</event>
<event>
12    6  0.1542110E-007  0.2739353E+04  0.7818608E-02  0.8322348E-01
         -1   -1    0    0    0  501 -0.00000000000E+00  0.00000000000E+00  0.63359722812E+03  0.63359722812E+03  0.00000000000E+00 0.  1.
          2   -1    0    0  501    0  0.00000000000E+00 -0.00000000000E+00 -0.29608932797E+04  0.29608932797E+04  0.00000000000E+00 0. -1.
         24    2    1    2    0    0 -0.50047332123E+02  0.74883377456E+03  0.22891270410E+03  0.78825086488E+03  0.75376670874E+02 0.  0.
        254    2    1    2    0    0  0.50047332123E+02 -0.74883377456E+03 -0.25562087557E+04  0.28062396429E+04  0.88177149738E+03 0.  0.
         23    2    4    4    0    0 -0.16025787612E+03  0.12802310747E+03 -0.79026285225E+03  0.82131747414E+03  0.89300138752E+02 0.  0.
         23    2    4    4    0    0  0.21030520824E+03 -0.87685688203E+03 -0.17659459034E+04  0.19849221688E+04  0.90800936964E+02 0.  0.
          2    1    3    3  502    0 -0.22968039810E+02  0.66987379408E+02  0.34132533687E+02  0.78612147335E+02  0.00000000000E+00 0. -1.
         -1    1    3    3    0  502 -0.27079292313E+02  0.68184639516E+03  0.19478017042E+03  0.70963871755E+03  0.00000000000E+00 0.  1.
         11    1    5    5    0    0 -0.78279516869E+02  0.11657570536E+03 -0.46970295028E+03  0.49024324508E+03  0.00000000000E+00 0. -1.
        -11    1    5    5    0    0 -0.81978359251E+02  0.11447402107E+02 -0.32055990197E+03  0.33107422906E+03  0.00000000000E+00 0.  1.
          3    1    6    6  503    0  0.14078503190E+03 -0.72784380806E+03 -0.14188559342E+04  0.16008526466E+04  0.00000000000E+00 0. -1.
         -3    1    6    6    0  503  0.69520176342E+02 -0.14901307397E+03 -0.34708996921E+03  0.38406952217E+03  0.00000000000E+00 0.  1.
<mgrwt>
<rscale>  0 0.27393530E+04</rscale>
<asrwt>0</asrwt>
<pdfrwt beam="1">  1        2 0.45552204E+00 0.27393530E+04</pdfrwt>
<pdfrwt beam="2">  1       -1 0.97476498E-01 0.27393530E+04</pdfrwt>
<totfact> 0.18491451E+00</totfact>
</mgrwt>
</event>
<event>
12    6  0.1542110E-007  0.1518079E+04  0.7818608E-02  0.8872519E-01
         -1   -1    0    0    0  501 -0.00000000000E+00  0.00000000000E+00  0.60063365201E+03  0.60063365201E+03  0.00000000000E+00 0.  1.
          2   -1    0    0  501    0  0.00000000000E+00 -0.00000000000E+00 -0.95922232427E+03  0.95922232427E+03  0.00000000000E+00 0. -1.
         24    2    1    2    0    0  0.19020787243E+03  0.26699039978E+03 -0.49340825378E+03  0.59822224476E+03  0.83398087069E+02 0.  0.
        254    2    1    2    0    0 -0.19020787243E+03 -0.26699039978E+03  0.13481958151E+03  0.96163373152E+03  0.89392404920E+03 0.  0.
         23    2    4    4    0    0 -0.46501434347E+03  0.50688467657E+02  0.21721520771E+03  0.52359731748E+03  0.90355099585E+02 0.  0.
         23    2    4    4    0    0  0.27480647104E+03 -0.31767886744E+03 -0.82395626196E+02  0.43803641404E+03  0.92996782042E+02 0.  0.
          2    1    3    3  502    0  0.16620648931E+03  0.26670283908E+03 -0.45796321813E+03  0.55541453944E+03  0.00000000000E+00 0. -1.
         -1    1    3    3    0  502  0.24001383121E+02  0.28756069424E+00 -0.35445035648E+02  0.42807705322E+02  0.00000000000E+00 0.  1.
         11    1    5    5    0    0 -0.44249726942E+03  0.42279775718E+02  0.18060419221E+03  0.47980129963E+03  0.00000000000E+00 0.  1.
        -11    1    5    5    0    0 -0.22517074051E+02  0.84086919384E+01  0.36611015492E+02  0.43796017848E+02  0.00000000000E+00 0. -1.
          2    1    6    6  503    0  0.39873501577E+02 -0.92265159732E+02 -0.45624348276E+02  0.11038268426E+03  0.00000000000E+00 0. -1.
         -2    1    6    6    0  503  0.23493296947E+03 -0.22541370770E+03 -0.36771277920E+02  0.32765372979E+03  0.00000000000E+00 0.  1.
<mgrwt>
<rscale>  0 0.15180793E+04</rscale>
<asrwt>0</asrwt>
<pdfrwt beam="1">  1        2 0.14757266E+00 0.15180793E+04</pdfrwt>
<pdfrwt beam="2">  1       -1 0.92405178E-01 0.15180793E+04</pdfrwt>
<totfact> 0.33591541E+01</totfact>
</mgrwt>
</event>
<event>
12    6  0.1542110E-007  0.1610991E+04  0.7818608E-02  0.8813824E-01
          2   -1    0    0  501    0  0.00000000000E+00  0.00000000000E+00  0.18027312829E+04  0.18027312829E+04  0.00000000000E+00 0. -1.
         -1   -1    0    0    0  501 -0.00000000000E+00 -0.00000000000E+00 -0.35991089497E+03  0.35991089497E+03  0.00000000000E+00 0.  1.
         24    2    1    2    0    0 -0.36367717516E+03  0.16129015717E+03  0.97181736798E+03  0.10530220240E+04  0.78426932702E+02 0.  0.
        254    2    1    2    0    0  0.36367717516E+03 -0.16129015717E+03  0.47100301994E+03  0.11096201539E+04  0.92257110216E+03 0.  0.
         23    2    4    4    0    0  0.84490385678E+02 -0.42210185938E+03 -0.65131454545E+02  0.44516860663E+03  0.92867523870E+02 0.  0.
         23    2    4    4    0    0  0.27918678948E+03  0.26081170221E+03  0.53613447448E+03  0.66445154724E+03  0.89931509872E+02 0.  0.
          2    1    3    3  502    0 -0.35975164847E+03  0.15374380241E+03  0.90878538262E+03  0.98941865609E+03  0.00000000000E+00 0. -1.
         -1    1    3    3    0  502 -0.39255266889E+01  0.75463547624E+01  0.63031985363E+02  0.63603367904E+02  0.00000000000E+00 0.  1.
         11    1    5    5    0    0  0.37555145828E+02 -0.31718961553E+03 -0.80018564927E+02  0.32927589027E+03  0.00000000000E+00 0. -1.
        -11    1    5    5    0    0  0.46935239850E+02 -0.10491224385E+03  0.14887110382E+02  0.11589271636E+03  0.00000000000E+00 0.  1.
          2    1    6    6  503    0  0.26926121928E+03  0.26493165739E+03  0.49936382185E+03  0.62614264658E+03  0.00000000000E+00 0. -1.
         -2    1    6    6    0  503  0.99255702085E+01 -0.41199551809E+01  0.36770652635E+02  0.38308900661E+02  0.00000000000E+00 0.  1.
<mgrwt>
<rscale>  0 0.16109905E+04</rscale>
<asrwt>0</asrwt>
<pdfrwt beam="1">  1        2 0.27734327E+00 0.16109905E+04</pdfrwt>
<pdfrwt beam="2">  1       -1 0.55370908E-01 0.16109905E+04</pdfrwt>
<totfact> 0.30948304E+01</totfact>
</mgrwt>
</event>
<event>
12    6  0.1542110E-007  0.2060155E+04  0.7818608E-02  0.8579001E-01
         -1   -1    0    0    0  501 -0.00000000000E+00  0.00000000000E+00  0.46773041322E+03  0.46773041322E+03  0.00000000000E+00 0.  1.
          2   -1    0    0  501    0  0.00000000000E+00 -0.00000000000E+00 -0.22685280947E+04  0.22685280947E+04  0.00000000000E+00 0. -1.
         24    2    1    2    0    0  0.29229318205E+03  0.67270569077E+03 -0.12650145842E+04  0.14644724765E+04  0.80308689016E+02 0.  0.
        254    2    1    2    0    0 -0.29229318205E+03 -0.67270569077E+03 -0.53578309729E+03  0.12717860314E+04  0.89017297854E+03 0.  0.
         23    2    4    4    0    0  0.21200605747E+03 -0.58065092318E+03 -0.22192874494E+03  0.66337771199E+03  0.93357152589E+02 0.  0.
         23    2    4    4    0    0 -0.50429923952E+03 -0.92054767587E+02 -0.31385435235E+03  0.60840831944E+03  0.94150546763E+02 0.  0.
          2    1    3    3  502    0  0.23806941582E+03  0.48294856733E+03 -0.97251508116E+03  0.11116213153E+04  0.00000000000E+00 0. -1.
         -1    1    3    3    0  502  0.54223766236E+02  0.18975712344E+03 -0.29249950307E+03  0.35285116128E+03  0.00000000000E+00 0.  1.
         11    1    5    5    0    0  0.18357800613E+03 -0.53367786719E+03 -0.22684405746E+03  0.60825255993E+03  0.00000000000E+00 0. -1.
        -11    1    5    5    0    0  0.28428051339E+02 -0.46973055994E+02  0.49153125152E+01  0.55125152059E+02  0.00000000000E+00 0.  1.
          3    1    6    6  503    0 -0.33903462099E+03 -0.64715592554E+02 -0.15797865161E+03  0.37959167076E+03  0.00000000000E+00 0. -1.
         -3    1    6    6    0  503 -0.16526461853E+03 -0.27339175033E+02 -0.15587570073E+03  0.22881664867E+03  0.00000000000E+00 0.  1.
<mgrwt>
<rscale>  0 0.20601549E+04</rscale>
<asrwt>0</asrwt>
<pdfrwt beam="1">  1        2 0.34900433E+00 0.20601549E+04</pdfrwt>
<pdfrwt beam="2">  1       -1 0.71958524E-01 0.20601549E+04</pdfrwt>
<totfact> 0.96894443E+00</totfact>
</mgrwt>
</event>
<event>
12    6  0.1542110E-007  0.1373399E+04  0.7818608E-02  0.8973302E-01
          2   -1    0    0  501    0  0.00000000000E+00  0.00000000000E+00  0.13146951854E+04  0.13146951854E+04  0.00000000000E+00 0. -1.
         -1   -1    0    0    0  501 -0.00000000000E+00 -0.00000000000E+00 -0.35868078954E+03  0.35868078954E+03  0.00000000000E+00 0.  1.
         24    2    1    2    0    0 -0.97636691869E+02  0.37627768057E+03  0.21617343524E+03  0.45201106131E+03  0.80406647390E+02 0.  0.
        254    2    1    2    0    0  0.97636691869E+02 -0.37627768057E+03  0.73984096060E+03  0.12213649136E+04  0.89064571449E+03 0.  0.
         23    2    4    4    0    0  0.33457857745E+03  0.41755399881E+02  0.18527910355E+02  0.34980816084E+03  0.91302398767E+02 0.  0.
         23    2    4    4    0    0 -0.23694188559E+03 -0.41803308046E+03  0.72131305024E+03  0.87155675277E+03  0.91790758523E+02 0.  0.
          4    1    3    3  502    0 -0.11464463099E+02  0.10494381915E+03  0.23212411653E+02  0.10809003260E+03  0.00000000000E+00 0. -1.
         -3    1    3    3    0  502 -0.86172228770E+02  0.27133386142E+03  0.19296102358E+03  0.34392102871E+03  0.00000000000E+00 0.  1.
         11    1    5    5    0    0  0.21177599054E+03 -0.17137128533E+02  0.21729770875E+02  0.21357653028E+03  0.00000000000E+00 0. -1.
        -11    1    5    5    0    0  0.12280258691E+03  0.58892528414E+02 -0.32018605199E+01  0.13623163056E+03  0.00000000000E+00 0.  1.
          1    1    6    6  503    0 -0.13446699354E+03 -0.31447639429E+03  0.47377414608E+03  0.58432757629E+03  0.00000000000E+00 0. -1.
         -1    1    6    6    0  503 -0.10247489204E+03 -0.10355668617E+03  0.24753890416E+03  0.28722917648E+03  0.00000000000E+00 0.  1.
<mgrwt>
<rscale>  0 0.13733986E+04</rscale>
<asrwt>0</asrwt>
<pdfrwt beam="1">  1        2 0.20226080E+00 0.13733986E+04</pdfrwt>
<pdfrwt beam="2">  1       -1 0.55181660E-01 0.13733986E+04</pdfrwt>
<totfact> 0.59803592E+01</totfact>
</mgrwt>
</event>
<event>
12    6  0.1542110E-007  0.1177171E+04  0.7818608E-02  0.9133077E-01
         -1   -1    0    0    0  501 -0.00000000000E+00  0.00000000000E+00  0.44952061205E+03  0.44952061205E+03  0.00000000000E+00 0.  1.
          2   -1    0    0  501    0  0.00000000000E+00 -0.00000000000E+00 -0.77067162196E+03  0.77067162196E+03  0.00000000000E+00 0. -1.
         24    2    1    2    0    0 -0.14563286991E+03  0.42035141809E+02  0.11536532110E+03  0.20731529444E+03  0.81820462310E+02 0.  0.
        254    2    1    2    0    0  0.14563286991E+03 -0.42035141809E+02 -0.43651633102E+03  0.10128769396E+04  0.90133085019E+03 0.  0.
         23    2    4    4    0    0  0.16504854500E+03  0.49047507980E+02 -0.69501870745E+03  0.72270675897E+03  0.98017220407E+02 0.  0.
         23    2    4    4    0    0 -0.19415675093E+02 -0.91082649788E+02  0.25850237644E+03  0.29017018060E+03  0.93285784296E+02 0.  0.
          4    1    3    3  502    0 -0.42478846291E+02  0.35349381523E+02  0.40589228577E+01  0.55412146783E+02  0.00000000000E+00 0. -1.
         -3    1    3    3    0  502 -0.10315402362E+03  0.66857602853E+01  0.11130639825E+03  0.15190314766E+03  0.00000000000E+00 0.  1.
         11    1    5    5    0    0  0.11747516508E+03  0.15044448673E+02 -0.59647397237E+03  0.60811836805E+03  0.00000000000E+00 0.  1.
        -11    1    5    5    0    0  0.47573379925E+02  0.34003059306E+02 -0.98544735087E+02  0.11458839092E+03  0.00000000000E+00 0. -1.
          2    1    6    6  503    0 -0.41231909895E+02 -0.75772557002E+01  0.55269502269E+02  0.69370044534E+02  0.00000000000E+00 0. -1.
         -2    1    6    6    0  503  0.21816234802E+02 -0.83505394088E+02  0.20323287417E+03  0.22080013606E+03  0.00000000000E+00 0.  1.
<mgrwt>
<rscale>  0 0.11771708E+04</rscale>
<asrwt>0</asrwt>
<pdfrwt beam="1">  1        2 0.11856486E+00 0.11771708E+04</pdfrwt>
<pdfrwt beam="2">  1       -1 0.69157018E-01 0.11771708E+04</pdfrwt>
<totfact> 0.86399750E+01</totfact>
</mgrwt>
</event>
<event>
12    6  0.1542110E-007  0.1783013E+04  0.7818608E-02  0.8715386E-01
          2   -1    0    0  501    0  0.00000000000E+00  0.00000000000E+00  0.80340789705E+03  0.80340789705E+03  0.00000000000E+00 0. -1.
         -1   -1    0    0    0  501 -0.00000000000E+00 -0.00000000000E+00 -0.98926530980E+03  0.98926530980E+03  0.00000000000E+00 0.  1.
         24    2    1    2    0    0 -0.51040803774E+03 -0.33103934635E+03 -0.32643148004E+03  0.69540277840E+03  0.83211172392E+02 0.  0.
        254    2    1    2    0    0  0.51040803774E+03  0.33103934635E+03  0.14057406729E+03  0.10972704285E+04  0.90229591096E+03 0.  0.
         23    2    4    4    0    0  0.30454132815E+02 -0.54432374661E+02  0.40567601839E+03  0.42083314897E+03  0.92936374799E+02 0.  0.
         23    2    4    4    0    0  0.47995390493E+03  0.38547172102E+03 -0.26510195110E+03  0.67643727948E+03  0.91346319176E+02 0.  0.
          2    1    3    3  502    0 -0.83789920963E+02 -0.90599734966E+02 -0.50794994865E+02  0.13345109342E+03  0.00000000000E+00 0. -1.
         -1    1    3    3    0  502 -0.42661811678E+03 -0.24043961139E+03 -0.27563648518E+03  0.56195168498E+03  0.00000000000E+00 0.  1.
         11    1    5    5    0    0  0.22667031109E+02 -0.66445038938E+02  0.15981086094E+03  0.17455156480E+03  0.00000000000E+00 0. -1.
        -11    1    5    5    0    0  0.77871017064E+01  0.12012664277E+02  0.24586515745E+03  0.24628158418E+03  0.00000000000E+00 0.  1.
          1    1    6    6  503    0  0.46937370892E+03  0.38610679248E+03 -0.24822987920E+03  0.65651215278E+03  0.00000000000E+00 0. -1.
         -1    1    6    6    0  503  0.10580196006E+02 -0.63507146222E+00 -0.16872071908E+02  0.19925126694E+02  0.00000000000E+00 0.  1.
<mgrwt>
<rscale>  0 0.17830127E+04</rscale>
<asrwt>0</asrwt>
<pdfrwt beam="1">  1        2 0.12360122E+00 0.17830127E+04</pdfrwt>
<pdfrwt beam="2">  1       -1 0.15219466E+00 0.17830127E+04</pdfrwt>
<totfact> 0.12398839E+01</totfact>
</mgrwt>
</event>
<event>
12    6  0.1542110E-007  0.1755338E+04  0.7818608E-02  0.8730418E-01
         -1   -1    0    0    0  501 -0.00000000000E+00  0.00000000000E+00  0.25963818617E+03  0.25963818617E+03  0.00000000000E+00 0.  1.
          2   -1    0    0  501    0  0.00000000000E+00 -0.00000000000E+00 -0.29668317429E+04  0.29668317429E+04  0.00000000000E+00 0. -1.
         24    2    1    2    0    0  0.37767812664E+03 -0.42558180977E+03 -0.44132754651E+03  0.72446934764E+03  0.79531051935E+02 0.  0.
        254    2    1    2    0    0 -0.37767812664E+03  0.42558180977E+03 -0.22658660103E+04  0.25020005815E+04  0.89559895549E+03 0.  0.
         23    2    4    4    0    0 -0.30380007284E+03  0.17111552750E+03 -0.21789377692E+04  0.22085322423E+04  0.90938742572E+02 0.  0.
         23    2    4    4    0    0 -0.73878053800E+02  0.25446628227E+03 -0.86928241021E+02  0.29346833921E+03  0.91411658911E+02 0.  0.
          2    1    3    3  502    0  0.22896251103E+03 -0.29263520093E+03 -0.32439536169E+03  0.49324592545E+03  0.00000000000E+00 0. -1.
         -1    1    3    3    0  502  0.14871561561E+03 -0.13294660884E+03 -0.11693218482E+03  0.23122342220E+03  0.00000000000E+00 0.  1.
         11    1    5    5    0    0 -0.27260660370E+03  0.16633348769E+03 -0.17857006943E+04  0.18140309146E+04  0.00000000000E+00 0.  1.
        -11    1    5    5    0    0 -0.31193469136E+02  0.47820398082E+01 -0.39323707490E+03  0.39450132763E+03  0.00000000000E+00 0. -1.
          3    1    6    6  503    0 -0.50245524854E+02  0.22051410721E+03 -0.10372999151E+03  0.24881920221E+03  0.00000000000E+00 0. -1.
         -3    1    6    6    0  503 -0.23632528945E+02  0.33952175055E+02  0.16801750489E+02  0.44649137000E+02  0.00000000000E+00 0.  1.
<mgrwt>
<rscale>  0 0.17553379E+04</rscale>
<asrwt>0</asrwt>
<pdfrwt beam="1">  1        2 0.45643565E+00 0.17553379E+04</pdfrwt>
<pdfrwt beam="2">  1       -1 0.39944337E-01 0.17553379E+04</pdfrwt>
<totfact> 0.12078675E+01</totfact>
</mgrwt>
</event>
<event>
12    6  0.1542110E-007  0.1465017E+04  0.7818608E-02  0.8908056E-01
         -1   -1    0    0    0  501 -0.00000000000E+00  0.00000000000E+00  0.20430119277E+03  0.20430119277E+03  0.00000000000E+00 0.  1.
          2   -1    0    0  501    0  0.00000000000E+00 -0.00000000000E+00 -0.26263594800E+04  0.26263594800E+04  0.00000000000E+00 0. -1.
         24    2    1    2    0    0 -0.46653764874E+03  0.12256828438E+03 -0.10498903365E+04  0.11581433036E+04  0.79660724968E+02 0.  0.
        254    2    1    2    0    0  0.46653764874E+03 -0.12256828438E+03 -0.13721679507E+04  0.16725173691E+04  0.82570521552E+03 0.  0.
         23    2    4    4    0    0  0.37215814490E+03 -0.21840560962E+03 -0.14326582283E+04  0.14991819711E+04  0.93990894581E+02 0.  0.
         23    2    4    4    0    0  0.94379503845E+02  0.95837325241E+02  0.60490277555E+02  0.17333539801E+03  0.91070318271E+02 0.  0.
          2    1    3    3  502    0 -0.42625728723E+03  0.12576214829E+03 -0.91312273088E+03  0.10155316413E+04  0.00000000000E+00 0. -1.
         -3    1    3    3    0  502 -0.40280361519E+02 -0.31938639109E+01 -0.13676760560E+03  0.14261166233E+03  0.00000000000E+00 0.  1.
         11    1    5    5    0    0  0.25150268843E+03 -0.11960474191E+03 -0.10412801553E+04  0.10778790555E+04  0.00000000000E+00 0.  1.
        -11    1    5    5    0    0  0.12065545647E+03 -0.98800867709E+02 -0.39137807303E+03  0.42130291559E+03  0.00000000000E+00 0. -1.
          1    1    6    6  503    0  0.31287140874E+02  0.28970351181E+02 -0.23607542745E+02  0.48738921881E+02  0.00000000000E+00 0. -1.
         -1    1    6    6    0  503  0.63092362971E+02  0.66866974060E+02  0.84097820300E+02  0.12459647613E+03  0.00000000000E+00 0.  1.
<mgrwt>
<rscale>  0 0.14650166E+04</rscale>
<asrwt>0</asrwt>
<pdfrwt beam="1">  1        2 0.40405529E+00 0.14650166E+04</pdfrwt>
<pdfrwt beam="2">  1       -1 0.31430954E-01 0.14650166E+04</pdfrwt>
<totfact> 0.30572663E+01</totfact>
</mgrwt>
</event>
<event>
12    6  0.1542110E-007  0.2253485E+04  0.7818608E-02  0.8496491E-01
          2   -1    0    0  501    0  0.00000000000E+00  0.00000000000E+00  0.20853522464E+04  0.20853522464E+04  0.00000000000E+00 0. -1.
         -1   -1    0    0    0  501 -0.00000000000E+00 -0.00000000000E+00 -0.60879315154E+03  0.60879315154E+03  0.00000000000E+00 0.  1.
         24    2    1    2    0    0  0.45111772081E+03 -0.82996058480E+03  0.60175711402E+03  0.11228204785E+04  0.79198688415E+02 0.  0.
        254    2    1    2    0    0 -0.45111772081E+03  0.82996058480E+03  0.87480198085E+03  0.15713249195E+04  0.90080060309E+03 0.  0.
         23    2    4    4    0    0  0.13215262646E+03  0.44220884997E+03  0.70087190796E+03  0.84400881893E+03  0.90091461286E+02 0.  0.
         23    2    4    4    0    0 -0.58327034727E+03  0.38775173484E+03  0.17393007289E+03  0.72731610055E+03  0.90450726856E+02 0.  0.
          2    1    3    3  502    0  0.17353965325E+02 -0.31960685174E+02  0.66983724011E+01  0.36979909439E+02  0.00000000000E+00 0. -1.
         -1    1    3    3    0  502  0.43376375548E+03 -0.79799989963E+03  0.59505874162E+03  0.10858405690E+04  0.00000000000E+00 0.  1.
         11    1    5    5    0    0  0.46157865577E+02  0.10827024370E+03  0.11730021717E+03  0.16616959762E+03  0.00000000000E+00 0.  1.
        -11    1    5    5    0    0  0.85994760886E+02  0.33393860627E+03  0.58357169079E+03  0.67783922131E+03  0.00000000000E+00 0. -1.
          4    1    6    6  503    0 -0.32373250448E+03  0.23720840795E+03  0.57296555377E+02  0.40540530155E+03  0.00000000000E+00 0. -1.
         -4    1    6    6    0  503 -0.25953784279E+03  0.15054332688E+03  0.11663351752E+03  0.32191079900E+03  0.00000000000E+00 0.  1.
<mgrwt>
<rscale>  0 0.22534846E+04</rscale>
<asrwt>0</asrwt>
<pdfrwt beam="1">  1        2 0.32082342E+00 0.22534846E+04</pdfrwt>
<pdfrwt beam="2">  1       -1 0.93660486E-01 0.22534846E+04</pdfrwt>
<totfact> 0.68547466E+00</totfact>
</mgrwt>
</event>
<event>
12    6  0.1542110E-007  0.1502961E+04  0.7818608E-02  0.8882486E-01
          2   -1    0    0  501    0  0.00000000000E+00  0.00000000000E+00  0.14890742012E+04  0.14890742012E+04  0.00000000000E+00 0. -1.
         -1   -1    0    0    0  501 -0.00000000000E+00 -0.00000000000E+00 -0.37924419495E+03  0.37924419495E+03  0.00000000000E+00 0.  1.
         24    2    1    2    0    0 -0.18978251961E+03 -0.34548650992E+03  0.12395872549E+02  0.40257478685E+03  0.80836056703E+02 0.  0.
        254    2    1    2    0    0  0.18978251961E+03  0.34548650992E+03  0.10974341337E+04  0.14657436093E+04  0.88806774354E+03 0.  0.
         23    2    4    4    0    0  0.20480024676E+03 -0.25139466156E+03  0.57482101310E+03  0.66715608116E+03  0.97650512520E+02 0.  0.
         23    2    4    4    0    0 -0.15017727153E+02  0.59688117148E+03  0.52261312063E+03  0.79858752816E+03  0.90138234278E+02 0.  0.
          2    1    3    3  502    0 -0.13048889571E+03 -0.19816305281E+03 -0.27433717294E+02  0.23884839595E+03  0.00000000000E+00 0. -1.
         -1    1    3    3    0  502 -0.59293623899E+02 -0.14732345711E+03  0.39829589843E+02  0.16372639090E+03  0.00000000000E+00 0.  1.
         11    1    5    5    0    0  0.89189687302E+02 -0.97765560686E+02  0.33219163311E+03  0.35758102059E+03  0.00000000000E+00 0. -1.
        -11    1    5    5    0    0  0.11561055946E+03 -0.15362910088E+03  0.24262937999E+03  0.30957506057E+03  0.00000000000E+00 0.  1.
          1    1    6    6  503    0 -0.35388931277E+02  0.15712486051E+03  0.17349318409E+03  0.23672871219E+03  0.00000000000E+00 0. -1.
         -1    1    6    6    0  503  0.20371204124E+02  0.43975631097E+03  0.34911993653E+03  0.56185881597E+03  0.00000000000E+00 0.  1.
<mgrwt>
<rscale>  0 0.15029607E+04</rscale>
<asrwt>0</asrwt>
<pdfrwt beam="1">  1        2 0.22908834E+00 0.15029607E+04</pdfrwt>
<pdfrwt beam="2">  1       -1 0.58345262E-01 0.15029607E+04</pdfrwt>
<totfact> 0.42184774E+01</totfact>
</mgrwt>
</event>
<event>
12    6  0.1542110E-007  0.2541097E+04  0.7818608E-02  0.8388489E-01
          2   -1    0    0  501    0  0.00000000000E+00  0.00000000000E+00  0.16528169804E+04  0.16528169804E+04  0.00000000000E+00 0. -1.
         -1   -1    0    0    0  501 -0.00000000000E+00 -0.00000000000E+00 -0.97669212653E+03  0.97669212653E+03  0.00000000000E+00 0.  1.
         24    2    1    2    0    0  0.13511243846E+03  0.38862351804E+03 -0.75914511533E+03  0.86716407785E+03  0.79928855782E+02 0.  0.
        254    2    1    2    0    0 -0.13511243846E+03 -0.38862351804E+03  0.14352699692E+04  0.17623450291E+04  0.93625664604E+03 0.  0.
         23    2    4    4    0    0  0.60707101119E+02  0.90400987295E+02 -0.76108905134E+02  0.16234692826E+03  0.93307390082E+02 0.  0.
         23    2    4    4    0    0 -0.19581953958E+03 -0.47902450533E+03  0.15113788744E+04  0.15999981008E+04  0.88983437037E+02 0.  0.
          2    1    3    3  502    0  0.30393712416E+02  0.79325393921E+02 -0.23210518841E+03  0.24716212162E+03  0.00000000000E+00 0. -1.
         -1    1    3    3    0  502  0.10471872605E+03  0.30929812412E+03 -0.52703992692E+03  0.62000195624E+03  0.00000000000E+00 0.  1.
         11    1    5    5    0    0  0.95051893599E+01  0.83430750948E+02 -0.71820083008E+02  0.11049508203E+03  0.00000000000E+00 0. -1.
        -11    1    5    5    0    0  0.51201911759E+02  0.69702363470E+01 -0.42888221263E+01  0.51851846233E+02  0.00000000000E+00 0.  1.
          1    1    6    6  503    0 -0.13001207415E+03 -0.39079048050E+03  0.11154670876E+04  0.11890698729E+04  0.00000000000E+00 0. -1.
         -1    1    6    6    0  503 -0.65807465437E+02 -0.88234024831E+02  0.39591178677E+03  0.41092822798E+03  0.00000000000E+00 0.  1.
<mgrwt>
<rscale>  0 0.25410969E+04</rscale>
<asrwt>0</asrwt>
<pdfrwt beam="1">  1        2 0.25427954E+00 0.25410969E+04</pdfrwt>
<pdfrwt beam="2">  1       -1 0.15026033E+00 0.25410969E+04</pdfrwt>
<totfact> 0.36619812E+00</totfact>
</mgrwt>
</event>
<event>
12    6  0.1542110E-007  0.2823409E+04  0.7818608E-02  0.8296038E-01
         -1   -1    0    0    0  501 -0.00000000000E+00  0.00000000000E+00  0.54751756193E+03  0.54751756193E+03  0.00000000000E+00 0.  1.
          2   -1    0    0  501    0  0.00000000000E+00 -0.00000000000E+00 -0.36399000741E+04  0.36399000741E+04  0.00000000000E+00 0. -1.
         24    2    1    2    0    0 -0.12132754638E+04 -0.12416075492E+03 -0.19278600015E+04  0.22825324443E+04  0.76530578057E+02 0.  0.
        254    2    1    2    0    0  0.12132754638E+04  0.12416075492E+03 -0.11645225106E+04  0.19048851917E+04  0.88601448734E+03 0.  0.
         23    2    4    4    0    0  0.47739456035E+03  0.48197870977E+03 -0.50503928972E+03  0.85068895682E+03  0.91640461456E+02 0.  0.
         23    2    4    4    0    0  0.73588090349E+03 -0.35781795485E+03 -0.65948322090E+03  0.10541962349E+04  0.82808152646E+02 0.  0.
          4    1    3    3  502    0 -0.36251766902E+02  0.87487196527E+01 -0.51799597330E+02  0.63827337267E+02  0.00000000000E+00 0. -1.
         -3    1    3    3    0  502 -0.11770236969E+04 -0.13290947457E+03 -0.18760604042E+04  0.22187051070E+04  0.00000000000E+00 0.  1.
         11    1    5    5    0    0  0.26889912408E+03  0.26634830390E+03 -0.33761791750E+03  0.50718242885E+03  0.00000000000E+00 0. -1.
        -11    1    5    5    0    0  0.20849543628E+03  0.21563040587E+03 -0.16742137223E+03  0.34350652798E+03  0.00000000000E+00 0.  1.
          4    1    6    6  503    0  0.10879223995E+03 -0.72139190431E+02 -0.74607415854E+02  0.15035318677E+03  0.00000000000E+00 0. -1.
         -4    1    6    6    0  503  0.62708866354E+03 -0.28567876442E+03 -0.58487580504E+03  0.90384304816E+03  0.00000000000E+00 0.  1.
<mgrwt>
<rscale>  0 0.28234087E+04</rscale>
<asrwt>0</asrwt>
<pdfrwt beam="1">  1        2 0.55998460E+00 0.28234087E+04</pdfrwt>
<pdfrwt beam="2">  1       -1 0.84233475E-01 0.28234087E+04</pdfrwt>
<totfact> 0.89020938E-01</totfact>
</mgrwt>
</event>
<event>
12    6  0.1542110E-007  0.1097012E+04  0.7818608E-02  0.9208109E-01
          2   -1    0    0  501    0  0.00000000000E+00  0.00000000000E+00  0.13508544399E+04  0.13508544399E+04  0.00000000000E+00 0. -1.
         -1   -1    0    0    0  501 -0.00000000000E+00 -0.00000000000E+00 -0.22271739635E+03  0.22271739635E+03  0.00000000000E+00 0.  1.
         24    2    1    2    0    0 -0.58664245848E+02 -0.14307651221E+03  0.13245744732E+03  0.21863400209E+03  0.79645900296E+02 0.  0.
        254    2    1    2    0    0  0.58664245848E+02  0.14307651221E+03  0.99567959626E+03  0.13549378342E+04  0.90585114341E+03 0.  0.
         23    2    4    4    0    0  0.22235451342E+03 -0.32786827893E+03  0.37326134990E+03  0.55210226199E+03  0.92486401144E+02 0.  0.
         23    2    4    4    0    0 -0.16369026757E+03  0.47094479114E+03  0.62241824636E+03  0.80283557220E+03  0.92503959867E+02 0.  0.
          2    1    3    3  502    0 -0.72269734744E+02 -0.14146971879E+03  0.12863619845E+03  0.20441102575E+03  0.00000000000E+00 0. -1.
         -1    1    3    3    0  502  0.13605488896E+02 -0.16067934163E+01  0.38212488643E+01  0.14222976343E+02  0.00000000000E+00 0.  1.
         11    1    5    5    0    0  0.18247081019E+03 -0.31628831389E+03  0.33924937451E+03  0.49842154065E+03  0.00000000000E+00 0. -1.
        -11    1    5    5    0    0  0.39883703229E+02 -0.11579965036E+02  0.34011975387E+02  0.53680721337E+02  0.00000000000E+00 0.  1.
          3    1    6    6  503    0 -0.14939357607E+03  0.46222119083E+03  0.61691277291E+03  0.78520585785E+03  0.00000000000E+00 0. -1.
         -3    1    6    6    0  503 -0.14296691499E+02  0.87236003083E+01  0.55054734505E+01  0.17629714350E+02  0.00000000000E+00 0.  1.
<mgrwt>
<rscale>  0 0.10970119E+04</rscale>
<asrwt>0</asrwt>
<pdfrwt beam="1">  1        2 0.20782375E+00 0.10970119E+04</pdfrwt>
<pdfrwt beam="2">  1       -1 0.34264216E-01 0.10970119E+04</pdfrwt>
<totfact> 0.14075621E+02</totfact>
</mgrwt>
</event>
<event>
12    6  0.1542110E-007  0.1412741E+04  0.7818608E-02  0.8944648E-01
         -1   -1    0    0    0  501 -0.00000000000E+00  0.00000000000E+00  0.22005323905E+03  0.22005323905E+03  0.00000000000E+00 0.  1.
          2   -1    0    0  501    0  0.00000000000E+00 -0.00000000000E+00 -0.22674467975E+04  0.22674467975E+04  0.00000000000E+00 0. -1.
         24    2    1    2    0    0  0.34795761893E+03 -0.17564092845E+03 -0.29044514156E+03  0.49255595886E+03  0.79553453971E+02 0.  0.
        254    2    1    2    0    0 -0.34795761893E+03  0.17564092845E+03 -0.17569484168E+04  0.19949440776E+04  0.86081931502E+03 0.  0.
         23    2    4    4    0    0 -0.34634421789E+03 -0.29249611465E+03 -0.96504477481E+03  0.10700587755E+04  0.90587368833E+02 0.  0.
         23    2    4    4    0    0 -0.16134010415E+01  0.46813704310E+03 -0.79190364204E+03  0.92488530209E+03  0.95637594875E+02 0.  0.
          2    1    3    3  502    0  0.18610956511E+02  0.26799650567E+01 -0.33336496760E+02  0.38273645387E+02  0.00000000000E+00 0. -1.
         -1    1    3    3    0  502  0.32934666242E+03 -0.17832089351E+03 -0.25710864480E+03  0.45428231348E+03  0.00000000000E+00 0.  1.
         11    1    5    5    0    0 -0.31701425882E+03 -0.23358990349E+03 -0.86360323916E+03  0.94914321259E+03  0.00000000000E+00 0. -1.
        -11    1    5    5    0    0 -0.29329959068E+02 -0.58906211157E+02 -0.10144153565E+03  0.12091556296E+03  0.00000000000E+00 0.  1.
          4    1    6    6  503    0  0.36455780201E+02  0.25104113005E+03 -0.48080450231E+03  0.54362086267E+03  0.00000000000E+00 0. -1.
         -4    1    6    6    0  503 -0.38069181243E+02  0.21709591305E+03 -0.31109913973E+03  0.38126443941E+03  0.00000000000E+00 0.  1.
<mgrwt>
<rscale>  0 0.14127406E+04</rscale>
<asrwt>0</asrwt>
<pdfrwt beam="1">  1        2 0.34883797E+00 0.14127406E+04</pdfrwt>
<pdfrwt beam="2">  1       -1 0.33854344E-01 0.14127406E+04</pdfrwt>
<totfact> 0.43233136E+01</totfact>
</mgrwt>
</event>
<event>
12    6  0.1542110E-007  0.1383693E+04  0.7818608E-02  0.8965707E-01
         -1   -1    0    0    0  501 -0.00000000000E+00  0.00000000000E+00  0.11840439036E+04  0.11840439036E+04  0.00000000000E+00 0.  1.
          2   -1    0    0  501    0  0.00000000000E+00 -0.00000000000E+00 -0.40425176402E+03  0.40425176402E+03  0.00000000000E+00 0. -1.
         24    2    1    2    0    0  0.47633637106E+02  0.39063574426E+03  0.26704149249E+03  0.48222747037E+03  0.79793022214E+02 0.  0.
        254    2    1    2    0    0 -0.47633637106E+02 -0.39063574426E+03  0.51275064713E+03  0.11060681973E+04  0.89755689670E+03 0.  0.
         23    2    4    4    0    0  0.65006358380E+01  0.50156011659E+02  0.62951706604E+03  0.63816239653E+03  0.91660373835E+02 0.  0.
         23    2    4    4    0    0 -0.54134272944E+02 -0.44079175592E+03 -0.11676641891E+03  0.46790580075E+03  0.89852936486E+02 0.  0.
          4    1    3    3  502    0 -0.29674777291E+01  0.67348338046E+02  0.82546988083E+02  0.10657677891E+03  0.00000000000E+00 0. -1.
         -3    1    3    3    0  502  0.50601114835E+02  0.32328740621E+03  0.18449450440E+03  0.37565069146E+03  0.00000000000E+00 0.  1.
         11    1    5    5    0    0 -0.15374126654E+02  0.71895288053E+02  0.41967231047E+03  0.42606354502E+03  0.00000000000E+00 0. -1.
        -11    1    5    5    0    0  0.21874762492E+02 -0.21739276394E+02  0.20984475557E+03  0.21209885151E+03  0.00000000000E+00 0.  1.
          1    1    6    6  503    0 -0.31884767473E+02 -0.42376243589E+03 -0.11214683892E+03  0.43950899188E+03  0.00000000000E+00 0. -1.
         -1    1    6    6    0  503 -0.22249505471E+02 -0.17029320030E+02 -0.46195799942E+01  0.28396808865E+02  0.00000000000E+00 0.  1.
<mgrwt>
<rscale>  0 0.13836934E+04</rscale>
<asrwt>0</asrwt>
<pdfrwt beam="1">  1        2 0.62192580E-01 0.13836934E+04</pdfrwt>
<pdfrwt beam="2">  1       -1 0.18216060E+00 0.13836934E+04</pdfrwt>
<totfact> 0.17591481E+01</totfact>
</mgrwt>
</event>
<event>
12    6  0.1542110E-007  0.1477251E+04  0.7818608E-02  0.8899723E-01
         -1   -1    0    0    0  501 -0.00000000000E+00  0.00000000000E+00  0.19597602738E+03  0.19597602738E+03  0.00000000000E+00 0.  1.
          2   -1    0    0  501    0  0.00000000000E+00 -0.00000000000E+00 -0.27838501485E+04  0.27838501485E+04  0.00000000000E+00 0. -1.
         24    2    1    2    0    0  0.32960323178E+02  0.43426869630E+03 -0.10923431950E+04  0.11787244758E+04  0.80635294280E+02 0.  0.
        254    2    1    2    0    0 -0.32960323178E+02 -0.43426869630E+03 -0.14955309261E+04  0.18011017001E+04  0.90425599228E+03 0.  0.
         23    2    4    4    0    0 -0.91918539734E+02 -0.28988745059E+03 -0.23773412083E+02  0.31834526272E+03  0.91075678501E+02 0.  0.
         23    2    4    4    0    0  0.58958216557E+02 -0.14438124571E+03 -0.14717575140E+04  0.14827564374E+04  0.90412703840E+02 0.  0.
          4    1    3    3  502    0 -0.83123110578E+00  0.32018530135E+03 -0.72399674039E+03  0.79163792117E+03  0.00000000000E+00 0. -1.
         -3    1    3    3    0  502  0.33791554283E+02  0.11408339495E+03 -0.36834645461E+03  0.38708655462E+03  0.00000000000E+00 0.  1.
         11    1    5    5    0    0 -0.41933515060E+02 -0.44397160811E+02 -0.29348332989E+02  0.67755827961E+02  0.00000000000E+00 0.  1.
        -11    1    5    5    0    0 -0.49985024674E+02 -0.24549028978E+03  0.55749209061E+01  0.25058943476E+03  0.00000000000E+00 0. -1.
          1    1    6    6  503    0 -0.16944406736E+02 -0.69410857880E+02 -0.48221700588E+03  0.48748150823E+03  0.00000000000E+00 0. -1.
         -1    1    6    6    0  503  0.75902623293E+02 -0.74970387828E+02 -0.98954050816E+03  0.99527492913E+03  0.00000000000E+00 0.  1.
<mgrwt>
<rscale>  0 0.14772514E+04</rscale>
<asrwt>0</asrwt>
<pdfrwt beam="1">  1        2 0.42828463E+00 0.14772514E+04</pdfrwt>
<pdfrwt beam="2">  1       -1 0.30150159E-01 0.14772514E+04</pdfrwt>
<totfact> 0.26508055E+01</totfact>
</mgrwt>
</event>
<event>
12    6  0.1542110E-007  0.3365902E+04  0.7818608E-02  0.8146326E-01
          2   -1    0    0  501    0  0.00000000000E+00  0.00000000000E+00  0.20753746558E+04  0.20753746558E+04  0.00000000000E+00 0. -1.
         -1   -1    0    0    0  501 -0.00000000000E+00 -0.00000000000E+00 -0.13647288441E+04  0.13647288441E+04  0.00000000000E+00 0.  1.
         24    2    1    2    0    0  0.10382030940E+04 -0.60388999225E+03  0.13508402784E+04  0.18091771150E+04  0.76181287174E+02 0.  0.
        254    2    1    2    0    0 -0.10382030940E+04  0.60388999225E+03 -0.64019446672E+03  0.16309263849E+04  0.89862290784E+03 0.  0.
         23    2    4    4    0    0 -0.95036153166E+03  0.19110830907E+03 -0.16363485402E+03  0.98783824608E+03  0.96636475092E+02 0.  0.
         23    2    4    4    0    0 -0.87841562363E+02  0.41278168318E+03 -0.47655961270E+03  0.64308813880E+03  0.91369753000E+02 0.  0.
          4    1    3    3  502    0  0.62410523582E+03 -0.33182750519E+03  0.83309716020E+03  0.10925510134E+04  0.00000000000E+00 0. -1.
         -3    1    3    3    0  502  0.41409785820E+03 -0.27206248706E+03  0.51774311824E+03  0.71662610161E+03  0.00000000000E+00 0.  1.
         11    1    5    5    0    0 -0.29837222163E+03  0.90266043105E+02 -0.18209977782E+02  0.31225877805E+03  0.00000000000E+00 0. -1.
        -11    1    5    5    0    0 -0.65198931003E+03  0.10084226597E+03 -0.14542487624E+03  0.67557946803E+03  0.00000000000E+00 0.  1.
          3    1    6    6  503    0 -0.55973626238E+02  0.81790786235E+02 -0.11713955944E+03  0.15344202793E+03  0.00000000000E+00 0. -1.
         -3    1    6    6    0  503 -0.31867936124E+02  0.33099089694E+03 -0.35942005325E+03  0.48964611087E+03  0.00000000000E+00 0.  1.
<mgrwt>
<rscale>  0 0.33659018E+04</rscale>
<asrwt>0</asrwt>
<pdfrwt beam="1">  1        2 0.31928841E+00 0.33659018E+04</pdfrwt>
<pdfrwt beam="2">  1       -1 0.20995828E+00 0.33659018E+04</pdfrwt>
<totfact> 0.73716467E-01</totfact>
</mgrwt>
</event>
<event>
12    6  0.1542110E-007  0.3624625E+04  0.7818608E-02  0.8084874E-01
          2   -1    0    0  501    0  0.00000000000E+00  0.00000000000E+00  0.23976372793E+04  0.23976372793E+04  0.00000000000E+00 0. -1.
         -1   -1    0    0    0  501 -0.00000000000E+00 -0.00000000000E+00 -0.13698804750E+04  0.13698804750E+04  0.00000000000E+00 0.  1.
         24    2    1    2    0    0  0.66513587118E+03  0.11504176692E+04 -0.63008197896E+03  0.14730332720E+04  0.83409708341E+02 0.  0.
        254    2    1    2    0    0 -0.66513587118E+03 -0.11504176692E+04  0.16578387833E+04  0.22944844824E+04  0.86623499590E+03 0.  0.
         23    2    4    4    0    0 -0.49795786903E+03 -0.87903182945E+03  0.16794001158E+04  0.19620159621E+04  0.91993967367E+02 0.  0.
         23    2    4    4    0    0 -0.16717800214E+03 -0.27138583972E+03 -0.21561332514E+02  0.33246852036E+03  0.92041662114E+02 0.  0.
          4    1    3    3  502    0  0.91127506931E+02  0.19493498238E+03 -0.75485767452E+02  0.22803940660E+03  0.00000000000E+00 0. -1.
         -3    1    3    3    0  502  0.57400836425E+03  0.95548268679E+03 -0.55459621151E+03  0.12449938654E+04  0.00000000000E+00 0.  1.
         11    1    5    5    0    0 -0.48625402046E+03 -0.87330207693E+03  0.16686625582E+04  0.19451309013E+04  0.00000000000E+00 0. -1.
        -11    1    5    5    0    0 -0.11703848571E+02 -0.57297525218E+01  0.10737557603E+02  0.16885060811E+02  0.00000000000E+00 0.  1.
          1    1    6    6  503    0 -0.99304151244E+01 -0.33339361655E+02 -0.31601183439E+02  0.46997457110E+02  0.00000000000E+00 0. -1.
         -1    1    6    6    0  503 -0.15724758702E+03 -0.23804647807E+03  0.10039850925E+02  0.28547106324E+03  0.00000000000E+00 0.  1.
<mgrwt>
<rscale>  0 0.36246249E+04</rscale>
<asrwt>0</asrwt>
<pdfrwt beam="1">  1        2 0.36886727E+00 0.36246249E+04</pdfrwt>
<pdfrwt beam="2">  1       -1 0.21075084E+00 0.36246249E+04</pdfrwt>
<totfact> 0.46844838E-01</totfact>
</mgrwt>
</event>
<event>
12    6  0.1542110E-007  0.1520852E+04  0.7818608E-02  0.8870704E-01
          2   -1    0    0  501    0  0.00000000000E+00  0.00000000000E+00  0.24534880889E+04  0.24534880889E+04  0.00000000000E+00 0. -1.
         -1   -1    0    0    0  501 -0.00000000000E+00 -0.00000000000E+00 -0.23568401980E+03  0.23568401980E+03  0.00000000000E+00 0.  1.
         24    2    1    2    0    0 -0.13078197376E+03 -0.71908290095E+02  0.15256166843E+04  0.15350853708E+04  0.81890789988E+02 0.  0.
        254    2    1    2    0    0  0.13078197376E+03  0.71908290095E+02  0.69218738475E+03  0.11540867378E+04  0.91132765566E+03 0.  0.
         23    2    4    4    0    0 -0.34604511787E+02  0.28364967814E+03  0.79746265628E+03  0.85175693139E+03  0.88817621326E+02 0.  0.
         23    2    4    4    0    0  0.16538648555E+03 -0.21174138805E+03 -0.10527527153E+03  0.30232980644E+03  0.90184943605E+02 0.  0.
          2    1    3    3  502    0 -0.79362598440E+02 -0.62013666558E+02  0.12796129453E+04  0.12835705694E+04  0.00000000000E+00 0. -1.
         -1    1    3    3    0  502 -0.51419375323E+02 -0.98946235368E+01  0.24600373897E+03  0.25151480140E+03  0.00000000000E+00 0.  1.
         11    1    5    5    0    0 -0.35231674686E+02  0.25013229242E+03  0.59292219659E+03  0.64448752185E+03  0.00000000000E+00 0. -1.
        -11    1    5    5    0    0  0.62716289932E+00  0.33517385719E+02  0.20454045969E+03  0.20726940953E+03  0.00000000000E+00 0.  1.
          3    1    6    6  503    0  0.12150040970E+03 -0.20433933188E+03 -0.98414689130E+02  0.25729819888E+03  0.00000000000E+00 0. -1.
         -3    1    6    6    0  503  0.43886075848E+02 -0.74020561712E+01 -0.68605823951E+01  0.45031607562E+02  0.00000000000E+00 0.  1.
<mgrwt>
<rscale>  0 0.15208523E+04</rscale>
<asrwt>0</asrwt>
<pdfrwt beam="1">  1        2 0.37745969E+00 0.15208523E+04</pdfrwt>
<pdfrwt beam="2">  1       -1 0.36259082E-01 0.15208523E+04</pdfrwt>
<totfact> 0.29697278E+01</totfact>
</mgrwt>
</event>
<event>
12    6  0.1542110E-007  0.1483869E+04  0.7818608E-02  0.8895251E-01
         -1   -1    0    0    0  501 -0.00000000000E+00  0.00000000000E+00  0.28535198159E+03  0.28535198159E+03  0.00000000000E+00 0.  1.
          2   -1    0    0  501    0  0.00000000000E+00 -0.00000000000E+00 -0.19290806615E+04  0.19290806615E+04  0.00000000000E+00 0. -1.
         24    2    1    2    0    0 -0.30273094361E+03 -0.35436363956E+03 -0.57807460422E+03  0.74679760697E+03  0.79478327103E+02 0.  0.
        254    2    1    2    0    0  0.30273094361E+03  0.35436363956E+03 -0.10656540757E+04  0.14676350361E+04  0.89504992984E+03 0.  0.
         23    2    4    4    0    0  0.42799710421E+03 -0.13995622459E+03 -0.32204625989E+03  0.56131157327E+03  0.92669427329E+02 0.  0.
         23    2    4    4    0    0 -0.12526616060E+03  0.49431986415E+03 -0.74360781577E+03  0.90632346282E+03  0.91792682118E+02 0.  0.
          2    1    3    3  502    0 -0.18972658419E+03 -0.20665858732E+03 -0.28665497657E+03  0.40109228870E+03  0.00000000000E+00 0. -1.
         -1    1    3    3    0  502 -0.11300435942E+03 -0.14770505223E+03 -0.29141962764E+03  0.34570531827E+03  0.00000000000E+00 0.  1.
         11    1    5    5    0    0  0.27480592796E+03 -0.63114898371E+02 -0.24448359434E+03  0.37319434125E+03  0.00000000000E+00 0.  1.
        -11    1    5    5    0    0  0.15319117625E+03 -0.76841326219E+02 -0.77562665557E+02  0.18811723202E+03  0.00000000000E+00 0. -1.
          4    1    6    6  503    0 -0.13942857497E+03  0.44886505631E+03 -0.66298678666E+03  0.81269406641E+03  0.00000000000E+00 0.  1.
         -4    1    6    6    0  503  0.14162414363E+02  0.45454807837E+02 -0.80621029117E+02  0.93629396409E+02  0.00000000000E+00 0. -1.
<mgrwt>
<rscale>  0 0.14838693E+04</rscale>
<asrwt>0</asrwt>
<pdfrwt beam="1">  1        2 0.29678163E+00 0.14838693E+04</pdfrwt>
<pdfrwt beam="2">  1       -1 0.43900307E-01 0.14838693E+04</pdfrwt>
<totfact> 0.41359238E+01</totfact>
</mgrwt>
</event>
<event>
12    6  0.1542110E-007  0.2700990E+04  0.7818608E-02  0.8334684E-01
         -1   -1    0    0    0  501 -0.00000000000E+00  0.00000000000E+00  0.17125313215E+04  0.17125313215E+04  0.00000000000E+00 0.  1.
          2   -1    0    0  501    0  0.00000000000E+00 -0.00000000000E+00 -0.10649945104E+04  0.10649945104E+04  0.00000000000E+00 0. -1.
         24    2    1    2    0    0 -0.10983405123E+04  0.41728340696E+03  0.40182914196E+02  0.11784461702E+04  0.81506973060E+02 0.  0.
        254    2    1    2    0    0  0.10983405123E+04 -0.41728340696E+03  0.60735389686E+03  0.15990796617E+04  0.89872113893E+03 0.  0.
         23    2    4    4    0    0  0.15186822415E+03 -0.42862952267E+03 -0.12071470107E+02  0.46390537214E+03  0.90968393954E+02 0.  0.
         23    2    4    4    0    0  0.94647228819E+03  0.11346115706E+02  0.61942536697E+03  0.11351742895E+04  0.94838577140E+02 0.  0.
          4    1    3    3  502    0 -0.73799507403E+03  0.27030996207E+03  0.64064221508E+02  0.78854830503E+03  0.00000000000E+00 0. -1.
         -1    1    3    3    0  502 -0.36034543831E+03  0.14697344489E+03 -0.23881307312E+02  0.38989786515E+03  0.00000000000E+00 0.  1.
         11    1    5    5    0    0  0.47664594811E+01 -0.11756833813E+03  0.15646630053E+02  0.11870067522E+03  0.00000000000E+00 0.  1.
        -11    1    5    5    0    0  0.14710176467E+03 -0.31106118454E+03 -0.27718100160E+02  0.34520469691E+03  0.00000000000E+00 0. -1.
          1    1    6    6  503    0  0.69227896094E+03  0.78872495580E+01  0.40141331790E+03  0.80027808932E+03  0.00000000000E+00 0. -1.
         -1    1    6    6    0  503  0.25419332725E+03  0.34588661480E+01  0.21801204907E+03  0.33489620021E+03  0.00000000000E+00 0.  1.
<mgrwt>
<rscale>  0 0.27009898E+04</rscale>
<asrwt>0</asrwt>
<pdfrwt beam="1">  1        2 0.16384531E+00 0.27009898E+04</pdfrwt>
<pdfrwt beam="2">  1       -1 0.26346636E+00 0.27009898E+04</pdfrwt>
<totfact> 0.13046681E+00</totfact>
</mgrwt>
</event>
<event>
12    6  0.1542110E-007  0.1023245E+04  0.7818608E-02  0.9283411E-01
         -1   -1    0    0    0  501 -0.00000000000E+00  0.00000000000E+00  0.24263494162E+03  0.24263494162E+03  0.00000000000E+00 0.  1.
          2   -1    0    0  501    0  0.00000000000E+00 -0.00000000000E+00 -0.10788122031E+04  0.10788122031E+04  0.00000000000E+00 0. -1.
         24    2    1    2    0    0 -0.28546095743E+02 -0.66642238919E+02 -0.62224586663E+02  0.12484177038E+03  0.80358576742E+02 0.  0.
        254    2    1    2    0    0  0.28546095743E+02  0.66642238919E+02 -0.77395267484E+03  0.11966053744E+04  0.90972831740E+03 0.  0.
         23    2    4    4    0    0  0.42388742961E+03  0.92798183149E+02 -0.18325958437E+03  0.47944100245E+03  0.89373059648E+02 0.  0.
         23    2    4    4    0    0 -0.39534133386E+03 -0.26155944230E+02 -0.59069309047E+03  0.71716437192E+03  0.91801446272E+02 0.  0.
          4    1    3    3  502    0 -0.28677622286E+01  0.49677544815E+01 -0.46886658073E+02  0.47236229210E+02  0.00000000000E+00 0. -1.
         -3    1    3    3    0  502 -0.25678333515E+02 -0.71609993401E+02 -0.15337928591E+02  0.77605541171E+02  0.00000000000E+00 0.  1.
         11    1    5    5    0    0  0.42537731540E+02  0.39256928587E+02 -0.26636899991E+02  0.63718831500E+02  0.00000000000E+00 0.  1.
        -11    1    5    5    0    0  0.38134969807E+03  0.53541254562E+02 -0.15662268438E+03  0.41572217095E+03  0.00000000000E+00 0. -1.
          3    1    6    6  503    0 -0.31980581974E+03 -0.15325781371E+02 -0.40405894482E+03  0.51553299876E+03  0.00000000000E+00 0. -1.
         -3    1    6    6    0  503 -0.75535514123E+02 -0.10830162859E+02 -0.18663414565E+03  0.20163137316E+03  0.00000000000E+00 0.  1.
<mgrwt>
<rscale>  0 0.10232449E+04</rscale>
<asrwt>0</asrwt>
<pdfrwt beam="1">  1        2 0.16597111E+00 0.10232449E+04</pdfrwt>
<pdfrwt beam="2">  1       -1 0.37328452E-01 0.10232449E+04</pdfrwt>
<totfact> 0.17616616E+02</totfact>
</mgrwt>
</event>
<event>
12    6  0.1542110E-007  0.2283818E+04  0.7818608E-02  0.8484329E-01
          2   -1    0    0  501    0  0.00000000000E+00  0.00000000000E+00  0.12142436184E+04  0.12142436184E+04  0.00000000000E+00 0. -1.
         -1   -1    0    0    0  501 -0.00000000000E+00 -0.00000000000E+00 -0.10738835838E+04  0.10738835838E+04  0.00000000000E+00 0.  1.
         24    2    1    2    0    0  0.85033355074E+03 -0.11629537674E+03 -0.36460021516E+03  0.93597993829E+03  0.80829238719E+02 0.  0.
        254    2    1    2    0    0 -0.85033355074E+03  0.11629537674E+03  0.50496024982E+03  0.13521472639E+04  0.91472706708E+03 0.  0.
         23    2    4    4    0    0 -0.13775727960E+03  0.42046472219E+03  0.66671658276E+02  0.45723200511E+03  0.94065646168E+02 0.  0.
         23    2    4    4    0    0 -0.71257627114E+03 -0.30416934544E+03  0.43828859154E+03  0.89491525880E+03  0.92154750675E+02 0.  0.
          2    1    3    3  502    0  0.45995624565E+03 -0.74653744800E+02 -0.15590112447E+03  0.49136350103E+03  0.00000000000E+00 0. -1.
         -1    1    3    3    0  502  0.39037730508E+03 -0.41641631942E+02 -0.20869909068E+03  0.44461643727E+03  0.00000000000E+00 0.  1.
         11    1    5    5    0    0 -0.18219002214E+02  0.39115751163E+02  0.36380383752E+02  0.56440290154E+02  0.00000000000E+00 0. -1.
        -11    1    5    5    0    0 -0.11953827739E+03  0.38134897102E+03  0.30291274524E+02  0.40079171495E+03  0.00000000000E+00 0.  1.
          1    1    6    6  503    0 -0.11532158328E+02 -0.12505322115E+02 -0.21148909730E+01  0.17141952069E+02  0.00000000000E+00 0. -1.
         -1    1    6    6    0  503 -0.70104411281E+03 -0.29166402333E+03  0.44040348252E+03  0.87777330674E+03  0.00000000000E+00 0.  1.
<mgrwt>
<rscale>  0 0.22838181E+04</rscale>
<asrwt>0</asrwt>
<pdfrwt beam="1">  1        2 0.18680671E+00 0.22838181E+04</pdfrwt>
<pdfrwt beam="2">  1       -1 0.16521286E+00 0.22838181E+04</pdfrwt>
<totfact> 0.51319671E+00</totfact>
</mgrwt>
</event>
<event>
12    6  0.1542110E-007  0.1279356E+04  0.7818608E-02  0.9046098E-01
         -1   -1    0    0    0  501 -0.00000000000E+00  0.00000000000E+00  0.49116789583E+03  0.49116789583E+03  0.00000000000E+00 0.  1.
          2   -1    0    0  501    0  0.00000000000E+00 -0.00000000000E+00 -0.83309165530E+03  0.83309165530E+03  0.00000000000E+00 0. -1.
         24    2    1    2    0    0 -0.13743396924E+02  0.29882087084E+02 -0.41600355606E+03  0.42535416466E+03  0.82373458384E+02 0.  0.
        254    2    1    2    0    0  0.13743396924E+02 -0.29882087084E+02  0.74079796587E+02  0.89890538648E+03  0.89524368609E+03 0.  0.
         23    2    4    4    0    0  0.23015509569E+03  0.20016900255E+03 -0.27430218888E+03  0.42005576104E+03  0.90366774362E+02 0.  0.
         23    2    4    4    0    0 -0.21641169876E+03 -0.23005108963E+03  0.34838198546E+03  0.47884962544E+03  0.90384892471E+02 0.  0.
          2    1    3    3  502    0  0.20665845680E+02  0.66611035934E+01 -0.32030512686E+03  0.32104021830E+03  0.00000000000E+00 0. -1.
         -1    1    3    3    0  502 -0.34409242604E+02  0.23220983490E+02 -0.95698429206E+02  0.10431394635E+03  0.00000000000E+00 0.  1.
         11    1    5    5    0    0  0.41103608141E+02  0.72767969285E+02 -0.38318178533E+02  0.91940017198E+02  0.00000000000E+00 0. -1.
        -11    1    5    5    0    0  0.18905148755E+03  0.12740103326E+03 -0.23598401034E+03  0.32811574384E+03  0.00000000000E+00 0.  1.
          2    1    6    6  503    0 -0.40993844581E+02 -0.70905015912E+01  0.24465595042E+02  0.48263193503E+02  0.00000000000E+00 0. -1.
         -2    1    6    6    0  503 -0.17541785418E+03 -0.22296058804E+03  0.32391639042E+03  0.43058643194E+03  0.00000000000E+00 0.  1.
<mgrwt>
<rscale>  0 0.12793559E+04</rscale>
<asrwt>0</asrwt>
<pdfrwt beam="1">  1        2 0.12816795E+00 0.12793559E+04</pdfrwt>
<pdfrwt beam="2">  1       -1 0.75564292E-01 0.12793559E+04</pdfrwt>
<totfact> 0.64349328E+01</totfact>
</mgrwt>
</event>
<event>
12    6  0.1542110E-007  0.2039250E+04  0.7818608E-02  0.8588487E-01
         -1   -1    0    0    0  501 -0.00000000000E+00  0.00000000000E+00  0.88083876922E+03  0.88083876922E+03  0.00000000000E+00 0.  1.
          2   -1    0    0  501    0  0.00000000000E+00 -0.00000000000E+00 -0.11802784966E+04  0.11802784966E+04  0.00000000000E+00 0. -1.
         24    2    1    2    0    0 -0.62583848021E+03 -0.10554763708E+03 -0.63960581453E+03  0.90521069841E+03  0.86583506123E+02 0.  0.
        254    2    1    2    0    0  0.62583848021E+03  0.10554763708E+03  0.34016608717E+03  0.11559065674E+04  0.90420844869E+03 0.  0.
         23    2    4    4    0    0 -0.19826116335E+02  0.32907765301E+03  0.31707369375E+03  0.46628710088E+03  0.90569070736E+02 0.  0.
         23    2    4    4    0    0  0.64566459654E+03 -0.22353001593E+03  0.23092393416E+02  0.68961946652E+03  0.90516908470E+02 0.  0.
          4    1    3    3  502    0 -0.48417944712E+03 -0.59885897636E+02 -0.44601227077E+03  0.66101664384E+03  0.00000000000E+00 0. -1.
         -3    1    3    3    0  502 -0.14165903309E+03 -0.45661739445E+02 -0.19359354376E+03  0.24419405457E+03  0.00000000000E+00 0.  1.
         11    1    5    5    0    0  0.16191906101E+02  0.28176446118E+03  0.25577996384E+03  0.38088945812E+03  0.00000000000E+00 0.  1.
        -11    1    5    5    0    0 -0.36018022435E+02  0.47313191834E+02  0.61293729913E+02  0.85397642756E+02  0.00000000000E+00 0. -1.
          1    1    6    6  503    0  0.57946917025E+03 -0.22140550515E+03  0.38847880807E+02  0.62154169195E+03  0.00000000000E+00 0.  1.
         -1    1    6    6    0  503  0.66195426293E+02 -0.21245107755E+01 -0.15755487391E+02  0.68077774574E+02  0.00000000000E+00 0. -1.
<mgrwt>
<rscale>  0 0.20392499E+04</rscale>
<asrwt>0</asrwt>
<pdfrwt beam="1">  1        2 0.18158131E+00 0.20392499E+04</pdfrwt>
<pdfrwt beam="2">  1       -1 0.13551366E+00 0.20392499E+04</pdfrwt>
<totfact> 0.93763853E+00</totfact>
</mgrwt>
</event>
<event>
12    6  0.1542110E-007  0.1408437E+04  0.7818608E-02  0.8947734E-01
         -1   -1    0    0    0  501 -0.00000000000E+00  0.00000000000E+00  0.44443054098E+03  0.44443054098E+03  0.00000000000E+00 0.  1.
          2   -1    0    0  501    0  0.00000000000E+00 -0.00000000000E+00 -0.11158628070E+04  0.11158628070E+04  0.00000000000E+00 0. -1.
         24    2    1    2    0    0  0.23139584166E+03 -0.33566295560E+03 -0.92832195349E+02  0.42548946355E+03  0.78802359093E+02 0.  0.
        254    2    1    2    0    0 -0.23139584166E+03  0.33566295560E+03 -0.57860007068E+03  0.11348038844E+04  0.88701079984E+03 0.  0.
         23    2    4    4    0    0 -0.22191530518E+03 -0.24917156049E+03 -0.66305065625E+02  0.35181095421E+03  0.89675618457E+02 0.  0.
         23    2    4    4    0    0 -0.94805364844E+01  0.58483451609E+03 -0.51229500506E+03  0.78299293022E+03  0.92252180377E+02 0.  0.
          2    1    3    3  502    0  0.38935646720E+02 -0.25758852254E+02  0.71585248849E+01  0.47230790100E+02  0.00000000000E+00 0. -1.
         -1    1    3    3    0  502  0.19246019494E+03 -0.30990410335E+03 -0.99990720234E+02  0.37825867345E+03  0.00000000000E+00 0.  1.
         11    1    5    5    0    0 -0.15435095946E+03 -0.17904358234E+03 -0.87652323585E+02  0.25211852945E+03  0.00000000000E+00 0.  1.
        -11    1    5    5    0    0 -0.67564345722E+02 -0.70127978151E+02  0.21347257960E+02  0.99692424762E+02  0.00000000000E+00 0. -1.
          2    1    6    6  503    0 -0.34149532624E+02  0.86151544131E+02 -0.87242033359E+02  0.12727706596E+03  0.00000000000E+00 0. -1.
         -2    1    6    6    0  503  0.24668996140E+02  0.49868297196E+03 -0.42505297170E+03  0.65571586426E+03  0.00000000000E+00 0.  1.
<mgrwt>
<rscale>  0 0.14084367E+04</rscale>
<asrwt>0</asrwt>
<pdfrwt beam="1">  1        2 0.17167120E+00 0.14084367E+04</pdfrwt>
<pdfrwt beam="2">  1       -1 0.68373930E-01 0.14084367E+04</pdfrwt>
<totfact> 0.51169176E+01</totfact>
</mgrwt>
</event>
<event>
12    6  0.1542110E-007  0.3468032E+04  0.7818608E-02  0.8121408E-01
          2   -1    0    0  501    0  0.00000000000E+00  0.00000000000E+00  0.30199316928E+04  0.30199316928E+04  0.00000000000E+00 0. -1.
         -1   -1    0    0    0  501 -0.00000000000E+00 -0.00000000000E+00 -0.99565533416E+03  0.99565533416E+03  0.00000000000E+00 0.  1.
         24    2    1    2    0    0 -0.12129258124E+04 -0.94256851600E+03  0.37478503226E+03  0.15832069360E+04  0.80348914990E+02 0.  0.
        254    2    1    2    0    0  0.12129258124E+04  0.94256851600E+03  0.16494913264E+04  0.24323800910E+04  0.91434503202E+03 0.  0.
         23    2    4    4    0    0  0.55839621895E+03  0.95536480065E+03  0.87278088146E+03  0.14122986230E+04  0.91173974895E+02 0.  0.
         23    2    4    4    0    0  0.65452959341E+03 -0.12796284654E+02  0.77671044496E+03  0.10200814681E+04  0.93350696901E+02 0.  0.
          2    1    3    3  502    0 -0.11580960315E+04 -0.91917342188E+03  0.35756174245E+03  0.15211563356E+04  0.00000000000E+00 0. -1.
         -1    1    3    3    0  502 -0.54829780849E+02 -0.23395094115E+02  0.17223289808E+02  0.62050600387E+02  0.00000000000E+00 0.  1.
         11    1    5    5    0    0  0.34311293681E+03  0.66382097526E+03  0.56459224972E+03  0.93656242880E+03  0.00000000000E+00 0.  1.
        -11    1    5    5    0    0  0.21528328214E+03  0.29154382539E+03  0.30818863174E+03  0.47573619415E+03  0.00000000000E+00 0. -1.
          2    1    6    6  503    0  0.31295665110E+03 -0.21535467884E+02  0.30417186654E+03  0.43695098837E+03  0.00000000000E+00 0. -1.
         -2    1    6    6    0  503  0.34157294231E+03  0.87391832296E+01  0.47253857842E+03  0.58313047968E+03  0.00000000000E+00 0.  1.
<mgrwt>
<rscale>  0 0.34680318E+04</rscale>
<asrwt>0</asrwt>
<pdfrwt beam="1">  1        2 0.46460487E+00 0.34680318E+04</pdfrwt>
<pdfrwt beam="2">  1       -1 0.15317775E+00 0.34680318E+04</pdfrwt>
<totfact> 0.52128331E-01</totfact>
</mgrwt>
</event>
<event>
12    6  0.1542110E-007  0.1367264E+04  0.7818608E-02  0.8977862E-01
         -1   -1    0    0    0  501 -0.00000000000E+00  0.00000000000E+00  0.12344065243E+04  0.12344065243E+04  0.00000000000E+00 0.  1.
          2   -1    0    0  501    0  0.00000000000E+00 -0.00000000000E+00 -0.37860501366E+03  0.37860501366E+03  0.00000000000E+00 0. -1.
         24    2    1    2    0    0 -0.65296599561E+02  0.18217282039E+03 -0.14395513632E+03  0.25446901877E+03  0.81122240092E+02 0.  0.
        254    2    1    2    0    0  0.65296599561E+02 -0.18217282039E+03  0.99975664692E+03  0.13585425191E+04  0.89926294312E+03 0.  0.
         23    2    4    4    0    0  0.16378887938E+03 -0.28819302804E+03  0.89023664281E+00  0.34496041409E+03  0.95471861549E+02 0.  0.
         23    2    4    4    0    0 -0.98492279821E+02  0.10602020766E+03  0.99886641028E+03  0.10135821051E+04  0.93131973524E+02 0.  0.
          2    1    3    3  502    0 -0.26529541957E+02  0.27017912278E+02  0.20490590061E+01  0.37920743969E+02  0.00000000000E+00 0. -1.
         -1    1    3    3    0  502 -0.38767057604E+02  0.15515490811E+03 -0.14600419533E+03  0.21654827480E+03  0.00000000000E+00 0.  1.
         11    1    5    5    0    0  0.83157648489E+01 -0.89686040708E+01  0.21468480035E+02  0.24707963069E+02  0.00000000000E+00 0. -1.
        -11    1    5    5    0    0  0.15547311453E+03 -0.27922442397E+03 -0.20578243392E+02  0.32025245102E+03  0.00000000000E+00 0.  1.
          1    1    6    6  503    0  0.15063570790E+02 -0.20235381339E+01  0.77087982546E+02  0.78572023803E+02  0.00000000000E+00 0. -1.
         -1    1    6    6    0  503 -0.11355585061E+03  0.10804374579E+03  0.92177842773E+03  0.93501008125E+03  0.00000000000E+00 0.  1.
<mgrwt>
<rscale>  0 0.13672637E+04</rscale>
<asrwt>0</asrwt>
<pdfrwt beam="1">  1        2 0.58246926E-01 0.13672637E+04</pdfrwt>
<pdfrwt beam="2">  1       -1 0.18990869E+00 0.13672637E+04</pdfrwt>
<totfact> 0.16715201E+01</totfact>
</mgrwt>
</event>
<event>
12    6  0.1542110E-007  0.3126624E+04  0.7818608E-02  0.8208469E-01
          2   -1    0    0  501    0  0.00000000000E+00  0.00000000000E+00  0.15413492563E+04  0.15413492563E+04  0.00000000000E+00 0. -1.
         -1   -1    0    0    0  501 -0.00000000000E+00 -0.00000000000E+00 -0.15855880821E+04  0.15855880821E+04  0.00000000000E+00 0.  1.
         24    2    1    2    0    0  0.28893173420E+03  0.60981289240E+03  0.12918367912E+04  0.14596702013E+04  0.80258898540E+02 0.  0.
        254    2    1    2    0    0 -0.28893173420E+03 -0.60981289240E+03 -0.13360756170E+04  0.16672671372E+04  0.73438977512E+03 0.  0.
         23    2    4    4    0    0 -0.24125703702E+03 -0.72046096457E+03 -0.13087044277E+04  0.15160677977E+04  0.92115844666E+02 0.  0.
         23    2    4    4    0    0 -0.47674697180E+02  0.11064807217E+03 -0.27371189242E+02  0.15119933946E+03  0.87156099196E+02 0.  0.
          2    1    3    3  502    0  0.20245201882E+03  0.45740340803E+03  0.10233637332E+04  0.11390689304E+04  0.00000000000E+00 0. -1.
         -1    1    3    3    0  502  0.86479715374E+02  0.15240948436E+03  0.26847305793E+03  0.32060127094E+03  0.00000000000E+00 0.  1.
         11    1    5    5    0    0 -0.23153785891E+03 -0.62288901841E+03 -0.10936719607E+04  0.12797339047E+04  0.00000000000E+00 0. -1.
        -11    1    5    5    0    0 -0.97191781118E+01 -0.97571946154E+02 -0.21503246703E+03  0.23633389299E+03  0.00000000000E+00 0.  1.
          1    1    6    6  503    0  0.56749823401E+01  0.88770323208E+02 -0.28867942047E+02  0.93518628011E+02  0.00000000000E+00 0. -1.
         -1    1    6    6    0  503 -0.53349679520E+02  0.21877748961E+02  0.14967528047E+01  0.57680711451E+02  0.00000000000E+00 0.  1.
<mgrwt>
<rscale>  0 0.31266244E+04</rscale>
<asrwt>0</asrwt>
<pdfrwt beam="1">  1        2 0.23713066E+00 0.31266244E+04</pdfrwt>
<pdfrwt beam="2">  1       -1 0.24393663E+00 0.31266244E+04</pdfrwt>
<totfact> 0.88634868E-01</totfact>
</mgrwt>
</event>
<event>
12    6  0.1542110E-007  0.3088704E+04  0.7818608E-02  0.8218845E-01
          2   -1    0    0  501    0  0.00000000000E+00  0.00000000000E+00  0.31449325212E+04  0.31449325212E+04  0.00000000000E+00 0. -1.
         -1   -1    0    0    0  501 -0.00000000000E+00 -0.00000000000E+00 -0.75837014813E+03  0.75837014813E+03  0.00000000000E+00 0.  1.
         24    2    1    2    0    0  0.48685725458E+03 -0.13235647809E+04  0.10699777090E+04  0.17721079895E+04  0.81613191073E+02 0.  0.
        254    2    1    2    0    0 -0.48685725458E+03  0.13235647809E+04  0.13165846641E+04  0.21311946799E+04  0.90539597416E+03 0.  0.
         23    2    4    4    0    0  0.83024737242E+02  0.70007793397E+03  0.99501936250E+03  0.12228249239E+04  0.90747132892E+02 0.  0.
         23    2    4    4    0    0 -0.56988199182E+03  0.62348684697E+03  0.32156530159E+03  0.90836975596E+03  0.90719553536E+02 0.  0.
          2    1    3    3  502    0  0.23980797492E+02 -0.45554812880E+02  0.23032598435E+02  0.56398760762E+02  0.00000000000E+00 0. -1.
         -1    1    3    3    0  502  0.46287645709E+03 -0.12780099681E+04  0.10469451106E+04  0.17157092287E+04  0.00000000000E+00 0.  1.
         11    1    5    5    0    0  0.91088249130E+02  0.48734435114E+03  0.73831738227E+03  0.88933353849E+03  0.00000000000E+00 0. -1.
        -11    1    5    5    0    0 -0.80635118882E+01  0.21273358284E+03  0.25670198023E+03  0.33349138541E+03  0.00000000000E+00 0.  1.
          4    1    6    6  503    0 -0.33902185888E+03  0.32119915466E+03  0.14486661321E+03  0.48896937877E+03  0.00000000000E+00 0. -1.
         -4    1    6    6    0  503 -0.23086013294E+03  0.30228769232E+03  0.17669868838E+03  0.41940037719E+03  0.00000000000E+00 0.  1.
<mgrwt>
<rscale>  0 0.30887039E+04</rscale>
<asrwt>0</asrwt>
<pdfrwt beam="1">  1        2 0.48383577E+00 0.30887039E+04</pdfrwt>
<pdfrwt beam="2">  1       -1 0.11667233E+00 0.30887039E+04</pdfrwt>
<totfact> 0.90039827E-01</totfact>
</mgrwt>
</event>
<event>
12    6  0.1542110E-007  0.1451855E+04  0.7818608E-02  0.8917115E-01
         -1   -1    0    0    0  501 -0.00000000000E+00  0.00000000000E+00  0.42229923218E+03  0.42229923218E+03  0.00000000000E+00 0.  1.
          2   -1    0    0  501    0  0.00000000000E+00 -0.00000000000E+00 -0.12478613739E+04  0.12478613739E+04  0.00000000000E+00 0. -1.
         24    2    1    2    0    0  0.13706331123E+03  0.32151145341E+03  0.59689462470E+02  0.36365441171E+03  0.80782010766E+02 0.  0.
        254    2    1    2    0    0 -0.13706331123E+03 -0.32151145341E+03 -0.88525160414E+03  0.13065061943E+04  0.89505981210E+03 0.  0.
         23    2    4    4    0    0 -0.36844536928E+03 -0.23383185162E+03 -0.93548283263E+03  0.10363246291E+04  0.91713040621E+02 0.  0.
         23    2    4    4    0    0  0.23138205805E+03 -0.87679601790E+02  0.50231228486E+02  0.27018156520E+03  0.96174489872E+02 0.  0.
          4    1    3    3  502    0  0.20643306763E+02  0.64376490183E+02  0.44594908930E+02  0.80988792464E+02  0.00000000000E+00 0. -1.
         -3    1    3    3    0  502  0.11642000447E+03  0.25713496323E+03  0.15094553540E+02  0.28266561924E+03  0.00000000000E+00 0.  1.
         11    1    5    5    0    0  0.38000453184E+01 -0.39169095423E+01 -0.28342155858E+01  0.61494148316E+01  0.00000000000E+00 0. -1.
        -11    1    5    5    0    0 -0.37224541460E+03 -0.22991494208E+03 -0.93264861704E+03  0.10301752143E+04  0.00000000000E+00 0.  1.
          3    1    6    6  503    0  0.34664552495E+02  0.10589023116E+02 -0.17281017964E+02  0.40154603623E+02  0.00000000000E+00 0. -1.
         -3    1    6    6    0  503  0.19671750556E+03 -0.98268624906E+02  0.67512246449E+02  0.23002696158E+03  0.00000000000E+00 0.  1.
<mgrwt>
<rscale>  0 0.14518552E+04</rscale>
<asrwt>0</asrwt>
<pdfrwt beam="1">  1        2 0.19197867E+00 0.14518552E+04</pdfrwt>
<pdfrwt beam="2">  1       -1 0.64969113E-01 0.14518552E+04</pdfrwt>
<totfact> 0.47105026E+01</totfact>
</mgrwt>
</event>
<event>
12    6  0.1542110E-007  0.2237716E+04  0.7818608E-02  0.8502892E-01
          2   -1    0    0  501    0  0.00000000000E+00  0.00000000000E+00  0.17950085905E+04  0.17950085905E+04  0.00000000000E+00 0. -1.
         -1   -1    0    0    0  501 -0.00000000000E+00 -0.00000000000E+00 -0.69740236770E+03  0.69740236770E+03  0.00000000000E+00 0.  1.
         24    2    1    2    0    0 -0.27354109837E+03 -0.86920239855E+03  0.19303980295E+03  0.93485411062E+03  0.79688772615E+02 0.  0.
        254    2    1    2    0    0  0.27354109837E+03  0.86920239855E+03  0.90456641985E+03  0.15575568476E+04  0.88170595059E+03 0.  0.
         23    2    4    4    0    0  0.34054984718E+03  0.96846294420E+03  0.54654734253E+03  0.11669317595E+04  0.95504246666E+02 0.  0.
         23    2    4    4    0    0 -0.67008748806E+02 -0.99260545642E+02  0.35801907732E+03  0.39062508801E+03  0.10033678946E+03 0.  0.
          4    1    3    3  502    0 -0.37701277358E+01 -0.49388979365E+02  0.25398145733E+02  0.55664629277E+02  0.00000000000E+00 0. -1.
         -3    1    3    3    0  502 -0.26977097063E+03 -0.81981341919E+03  0.16764165721E+03  0.87918948135E+03  0.00000000000E+00 0.  1.
         11    1    5    5    0    0  0.32890930757E+03  0.95849297380E+03  0.54706862747E+03  0.11515963688E+04  0.00000000000E+00 0. -1.
        -11    1    5    5    0    0  0.11640539602E+02  0.99699703982E+01 -0.52128494800E+00  0.15335390766E+02  0.00000000000E+00 0.  1.
          2    1    6    6  503    0 -0.42485084219E+01 -0.67302677060E+02  0.26786112402E+03  0.27621962625E+03  0.00000000000E+00 0. -1.
         -2    1    6    6    0  503 -0.62760240384E+02 -0.31957868582E+02  0.90157953305E+02  0.11440546176E+03  0.00000000000E+00 0.  1.
<mgrwt>
<rscale>  0 0.22377160E+04</rscale>
<asrwt>0</asrwt>
<pdfrwt beam="1">  1        2 0.27615517E+00 0.22377160E+04</pdfrwt>
<pdfrwt beam="2">  1       -1 0.10729267E+00 0.22377160E+04</pdfrwt>
<totfact> 0.72916873E+00</totfact>
</mgrwt>
</event>
<event>
12    6  0.1542110E-007  0.1328305E+04  0.7818608E-02  0.9007415E-01
          2   -1    0    0  501    0  0.00000000000E+00  0.00000000000E+00  0.82619712204E+03  0.82619712204E+03  0.00000000000E+00 0. -1.
         -1   -1    0    0    0  501 -0.00000000000E+00 -0.00000000000E+00 -0.53389043987E+03  0.53389043987E+03  0.00000000000E+00 0.  1.
         24    2    1    2    0    0 -0.26542302770E+03  0.13379571891E+03 -0.12720964491E+03  0.33314534122E+03  0.80329612149E+02 0.  0.
        254    2    1    2    0    0  0.26542302770E+03 -0.13379571891E+03  0.41951632707E+03  0.10269422207E+04  0.88896889592E+03 0.  0.
         23    2    4    4    0    0  0.49319711809E+03  0.17161615968E+03  0.14524864523E+03  0.54890669561E+03  0.86636528036E+02 0.  0.
         23    2    4    4    0    0 -0.22777409038E+03 -0.30541187859E+03  0.27426768184E+03  0.47803552508E+03  0.90209478995E+02 0.  0.
          2    1    3    3  502    0 -0.32326835011E+02  0.51258057769E+02 -0.23405021271E+02  0.64963126224E+02  0.00000000000E+00 0. -1.
         -1    1    3    3    0  502 -0.23309619269E+03  0.82537661140E+02 -0.10380462364E+03  0.26818221500E+03  0.00000000000E+00 0.  1.
         11    1    5    5    0    0  0.94416171643E+01  0.19351255148E+02  0.64511030280E+00  0.21541387555E+02  0.00000000000E+00 0. -1.
        -11    1    5    5    0    0  0.48375550092E+03  0.15226490453E+03  0.14460353493E+03  0.52736530805E+03  0.00000000000E+00 0.  1.
          4    1    6    6  503    0 -0.10297225510E+03 -0.17524771251E+03  0.97193114659E+02  0.22530323477E+03  0.00000000000E+00 0. -1.
         -4    1    6    6    0  503 -0.12480183529E+03 -0.13016416608E+03  0.17707456719E+03  0.25273229031E+03  0.00000000000E+00 0.  1.
<mgrwt>
<rscale>  0 0.13283053E+04</rscale>
<asrwt>0</asrwt>
<pdfrwt beam="1">  1        2 0.12710725E+00 0.13283053E+04</pdfrwt>
<pdfrwt beam="2">  1       -1 0.82136991E-01 0.13283053E+04</pdfrwt>
<totfact> 0.54334502E+01</totfact>
</mgrwt>
</event>
<event>
12    6  0.1542110E-007  0.1318375E+04  0.7818608E-02  0.9015119E-01
         -1   -1    0    0    0  501 -0.00000000000E+00  0.00000000000E+00  0.52234115219E+03  0.52234115219E+03  0.00000000000E+00 0.  1.
          2   -1    0    0  501    0  0.00000000000E+00 -0.00000000000E+00 -0.83188606566E+03  0.83188606566E+03  0.00000000000E+00 0. -1.
         24    2    1    2    0    0  0.83911903739E+02 -0.99679121669E+02  0.24369758779E+03  0.28776834436E+03  0.80280575714E+02 0.  0.
        254    2    1    2    0    0 -0.83911903739E+02  0.99679121669E+02 -0.55324250126E+03  0.10664588735E+04  0.90237471637E+03 0.  0.
         23    2    4    4    0    0 -0.32963044407E+03  0.38312426591E+03 -0.40277538491E+03  0.65224004481E+03  0.88026317549E+02 0.  0.
         23    2    4    4    0    0  0.24571854033E+03 -0.28344514424E+03 -0.15046711635E+03  0.41421882867E+03  0.90653924730E+02 0.  0.
          4    1    3    3  502    0  0.20161573613E+02 -0.33546192271E+01  0.28270988272E+01  0.20633347002E+02  0.00000000000E+00 0. -1.
         -3    1    3    3    0  502  0.63750330125E+02 -0.96324502441E+02  0.24087048896E+03  0.26713499736E+03  0.00000000000E+00 0.  1.
         11    1    5    5    0    0 -0.15166259595E+02  0.44454562883E+02 -0.63210359516E+02  0.78751337394E+02  0.00000000000E+00 0.  1.
        -11    1    5    5    0    0 -0.31446418447E+03  0.33866970303E+03 -0.33956502539E+03  0.57348870742E+03  0.00000000000E+00 0. -1.
          4    1    6    6  503    0  0.20253439856E+03 -0.18736222915E+03 -0.13691113629E+03  0.30800884201E+03  0.00000000000E+00 0. -1.
         -4    1    6    6    0  503  0.43184141766E+02 -0.96082915092E+02 -0.13555980062E+02  0.10620998667E+03  0.00000000000E+00 0.  1.
<mgrwt>
<rscale>  0 0.13183753E+04</rscale>
<asrwt>0</asrwt>
<pdfrwt beam="1">  1        2 0.12798247E+00 0.13183753E+04</pdfrwt>
<pdfrwt beam="2">  1       -1 0.80360178E-01 0.13183753E+04</pdfrwt>
<totfact> 0.56451468E+01</totfact>
</mgrwt>
</event>
<event>
12    6  0.1542110E-007  0.1769925E+04  0.7818608E-02  0.8722458E-01
          2   -1    0    0  501    0  0.00000000000E+00  0.00000000000E+00  0.27976839356E+04  0.27976839356E+04  0.00000000000E+00 0. -1.
         -1   -1    0    0    0  501 -0.00000000000E+00 -0.00000000000E+00 -0.27993107336E+03  0.27993107336E+03  0.00000000000E+00 0.  1.
         24    2    1    2    0    0 -0.30295141969E+03  0.39386775636E+03  0.16434018955E+04  0.17187066332E+04  0.79191721371E+02 0.  0.
        254    2    1    2    0    0  0.30295141969E+03 -0.39386775636E+03  0.87435096674E+03  0.13589083757E+04  0.91390972662E+03 0.  0.
         23    2    4    4    0    0 -0.12080381970E+03 -0.50482436471E+03  0.23103035051E+03  0.57510092404E+03  0.89021614903E+02 0.  0.
         23    2    4    4    0    0  0.42375523938E+03  0.11095660835E+03  0.64332061623E+03  0.78380745169E+03  0.92805356661E+02 0.  0.
          4    1    3    3  502    0 -0.25294326356E+03  0.36834443400E+03  0.14443158396E+04  0.15118552051E+04  0.00000000000E+00 0. -1.
         -3    1    3    3    0  502 -0.50008156131E+02  0.25523322362E+02  0.19908605585E+03  0.20685142808E+03  0.00000000000E+00 0.  1.
         11    1    5    5    0    0 -0.55897437825E+02 -0.24122036647E+03  0.61839337889E+02  0.25521734358E+03  0.00000000000E+00 0. -1.
        -11    1    5    5    0    0 -0.64906381871E+02 -0.26360399824E+03  0.16919101262E+03  0.31988358046E+03  0.00000000000E+00 0.  1.
          3    1    6    6  503    0  0.35161732611E+03  0.80763835789E+02  0.46072862889E+03  0.58517382944E+03  0.00000000000E+00 0. -1.
         -3    1    6    6    0  503  0.72137913276E+02  0.30192772558E+02  0.18259198734E+03  0.19863362225E+03  0.00000000000E+00 0.  1.
<mgrwt>
<rscale>  0 0.17699250E+04</rscale>
<asrwt>0</asrwt>
<pdfrwt beam="1">  1        2 0.43041289E+00 0.17699250E+04</pdfrwt>
<pdfrwt beam="2">  1       -1 0.43066321E-01 0.17699250E+04</pdfrwt>
<totfact> 0.13322603E+01</totfact>
</mgrwt>
</event>
<event>
12    6  0.1542110E-007  0.1230425E+04  0.7818608E-02  0.9086635E-01
         -3   -1    0    0    0  501 -0.00000000000E+00  0.00000000000E+00  0.75359506497E+03  0.75359506497E+03  0.00000000000E+00 0.  1.
          2   -1    0    0  501    0  0.00000000000E+00 -0.00000000000E+00 -0.50224072753E+03  0.50224072753E+03  0.00000000000E+00 0. -1.
         24    2    1    2    0    0 -0.18145868041E+03 -0.19800988438E+03 -0.12154341733E+03  0.30523732024E+03  0.79131866903E+02 0.  0.
        254    2    1    2    0    0  0.18145868041E+03  0.19800988438E+03  0.37289775477E+03  0.95059847227E+03  0.83213553761E+03 0.  0.
         23    2    4    4    0    0 -0.28735228917E+03  0.61098803514E+02 -0.32978533122E+02  0.30941312542E+03  0.91348216489E+02 0.  0.
         23    2    4    4    0    0  0.46881096958E+03  0.13691108086E+03  0.40587628789E+03  0.64118534685E+03  0.88626850774E+02 0.  0.
          2    1    3    3  502    0 -0.38800867867E+02 -0.47792706605E+02  0.61738922539E+01  0.61868950997E+02  0.00000000000E+00 0. -1.
         -1    1    3    3    0  502 -0.14265781255E+03 -0.15021717777E+03 -0.12771730958E+03  0.24336836924E+03  0.00000000000E+00 0.  1.
         11    1    5    5    0    0 -0.29460910326E+02  0.26949595637E+02  0.18856780902E+02  0.44156586465E+02  0.00000000000E+00 0. -1.
        -11    1    5    5    0    0 -0.25789137884E+03  0.34149207877E+02 -0.51835314024E+02  0.26525653896E+03  0.00000000000E+00 0.  1.
          4    1    6    6  503    0  0.40528717434E+03  0.84829548501E+02  0.34456625069E+03  0.53868325303E+03  0.00000000000E+00 0. -1.
         -4    1    6    6    0  503  0.63523795242E+02  0.52081532362E+02  0.61310037202E+02  0.10250209382E+03  0.00000000000E+00 0.  1.
<mgrwt>
<rscale>  0 0.12304245E+04</rscale>
<asrwt>0</asrwt>
<pdfrwt beam="1">  1        2 0.77267805E-01 0.12304245E+04</pdfrwt>
<pdfrwt beam="2">  1       -3 0.11593770E+00 0.12304245E+04</pdfrwt>
<totfact> 0.23319065E+01</totfact>
</mgrwt>
</event>
<event>
12    6  0.1542110E-007  0.1800737E+04  0.7818608E-02  0.8705908E-01
          2   -1    0    0  501    0  0.00000000000E+00  0.00000000000E+00  0.19067056899E+04  0.19067056899E+04  0.00000000000E+00 0. -1.
         -1   -1    0    0    0  501 -0.00000000000E+00 -0.00000000000E+00 -0.42516433416E+03  0.42516433416E+03  0.00000000000E+00 0.  1.
         24    2    1    2    0    0  0.52618112231E+03  0.72505664093E+02  0.11297986551E+04  0.12509679582E+04  0.79700605006E+02 0.  0.
        254    2    1    2    0    0 -0.52618112231E+03 -0.72505664093E+02  0.35174270061E+03  0.10809020659E+04  0.87321400803E+03 0.  0.
         23    2    4    4    0    0 -0.80010638806E+02  0.36727828737E+03  0.14821778056E+03  0.41593254281E+03  0.98672828082E+02 0.  0.
         23    2    4    4    0    0 -0.44617048350E+03 -0.43978395147E+03  0.20352492005E+03  0.66496952308E+03  0.91016752411E+02 0.  0.
          4    1    3    3  502    0  0.26418786384E+03  0.63979890867E+02  0.64258919050E+03  0.69771736511E+03  0.00000000000E+00 0. -1.
         -3    1    3    3    0  502  0.26199325847E+03  0.85257732266E+01  0.48720946464E+03  0.55325059307E+03  0.00000000000E+00 0.  1.
         11    1    5    5    0    0 -0.10839685741E+02  0.69011252668E+02  0.72180892300E+02  0.10044965403E+03  0.00000000000E+00 0. -1.
        -11    1    5    5    0    0 -0.69170953065E+02  0.29826703470E+03  0.76036888256E+02  0.31548288878E+03  0.00000000000E+00 0.  1.
          1    1    6    6  503    0 -0.32092951343E+03 -0.33285023021E+03  0.18948753191E+03  0.49969045727E+03  0.00000000000E+00 0. -1.
         -1    1    6    6    0  503 -0.12524097007E+03 -0.10693372126E+03  0.14037388147E+02  0.16527906580E+03  0.00000000000E+00 0.  1.
<mgrwt>
<rscale>  0 0.18007368E+04</rscale>
<asrwt>0</asrwt>
<pdfrwt beam="1">  1        2 0.29333933E+00 0.18007368E+04</pdfrwt>
<pdfrwt beam="2">  1       -1 0.65409899E-01 0.18007368E+04</pdfrwt>
<totfact> 0.19177708E+01</totfact>
</mgrwt>
</event>
<event>
12    6  0.1542110E-007  0.2876117E+04  0.7818608E-02  0.8280019E-01
         -1   -1    0    0    0  501 -0.00000000000E+00  0.00000000000E+00  0.22701780690E+04  0.22701780690E+04  0.00000000000E+00 0.  1.
          2   -1    0    0  501    0  0.00000000000E+00 -0.00000000000E+00 -0.91094721653E+03  0.91094721653E+03  0.00000000000E+00 0. -1.
         24    2    1    2    0    0 -0.61886283562E+03 -0.11013408522E+04  0.91860466414E+03  0.15637900994E+04  0.75246687898E+02 0.  0.
        254    2    1    2    0    0  0.61886283562E+03  0.11013408522E+04  0.44062618837E+03  0.16173351861E+04  0.90866868797E+03 0.  0.
         23    2    4    4    0    0  0.27114381749E+03  0.72896577636E+03 -0.18557011691E+03  0.80487496244E+03  0.92072601752E+02 0.  0.
         23    2    4    4    0    0  0.34771901814E+03  0.37237507581E+03  0.62619630528E+03  0.81246022371E+03  0.91641091835E+02 0.  0.
          4    1    3    3  502    0 -0.23866983624E+03 -0.35824629168E+03  0.29474744319E+03  0.52170849284E+03  0.00000000000E+00 0. -1.
         -3    1    3    3    0  502 -0.38019299939E+03 -0.74309456050E+03  0.62385722094E+03  0.10420816066E+04  0.00000000000E+00 0.  1.
         11    1    5    5    0    0  0.19905784411E+03  0.45376724416E+03 -0.82691126549E+02  0.50236098533E+03  0.00000000000E+00 0.  1.
        -11    1    5    5    0    0  0.72085973380E+02  0.27519853221E+03 -0.10287899036E+03  0.30251397711E+03  0.00000000000E+00 0. -1.
          1    1    6    6  503    0  0.34027566635E+03  0.36138099821E+03  0.57519226069E+03  0.75975646870E+03  0.00000000000E+00 0. -1.
         -1    1    6    6    0  503  0.74433517931E+01  0.10994077603E+02  0.51004044590E+02  0.52703755016E+02  0.00000000000E+00 0.  1.
<mgrwt>
<rscale>  0 0.28761171E+04</rscale>
<asrwt>0</asrwt>
<pdfrwt beam="1">  1        2 0.14014573E+00 0.28761171E+04</pdfrwt>
<pdfrwt beam="2">  1       -1 0.34925816E+00 0.28761171E+04</pdfrwt>
<totfact> 0.44645607E-01</totfact>
</mgrwt>
</event>
<event>
12    6  0.1542110E-007  0.1249580E+04  0.7818608E-02  0.9070533E-01
          2   -1    0    0  501    0  0.00000000000E+00  0.00000000000E+00  0.11228680309E+04  0.11228680309E+04  0.00000000000E+00 0. -1.
         -1   -1    0    0    0  501 -0.00000000000E+00 -0.00000000000E+00 -0.34764780662E+03  0.34764780662E+03  0.00000000000E+00 0.  1.
         24    2    1    2    0    0 -0.30359400756E+02  0.19262179202E+03 -0.84446275645E+02  0.22703560831E+03  0.79932133684E+02 0.  0.
        254    2    1    2    0    0  0.30359400756E+02 -0.19262179202E+03  0.85966649997E+03  0.12434802293E+04  0.87703576975E+03 0.  0.
         23    2    4    4    0    0  0.20320881974E+03 -0.45610462280E+03  0.28649220345E+03  0.58287692120E+03  0.91337129786E+02 0.  0.
         23    2    4    4    0    0 -0.17284941898E+03  0.26348283078E+03  0.57317429652E+03  0.66060330806E+03  0.92562587839E+02 0.  0.
          2    1    3    3  502    0  0.48376918102E+01 -0.67269872669E+01 -0.26077451502E+01  0.86865386955E+01  0.00000000000E+00 0. -1.
         -1    1    3    3    0  502 -0.35197092567E+02  0.19934877928E+03 -0.81838530495E+02  0.21834906961E+03  0.00000000000E+00 0.  1.
         11    1    5    5    0    0  0.21164840974E+02 -0.11989291153E+03  0.40774923738E+02  0.12839336094E+03  0.00000000000E+00 0. -1.
        -11    1    5    5    0    0  0.18204397876E+03 -0.33621171127E+03  0.24571727971E+03  0.45448356026E+03  0.00000000000E+00 0.  1.
          3    1    6    6  503    0 -0.22430141294E+01 -0.39709454354E+01 -0.95477226793E+00  0.46595182282E+01  0.00000000000E+00 0. -1.
         -3    1    6    6    0  503 -0.17060640485E+03  0.26745377622E+03  0.57412906879E+03  0.65594378983E+03  0.00000000000E+00 0.  1.
<mgrwt>
<rscale>  0 0.12495801E+04</rscale>
<asrwt>0</asrwt>
<pdfrwt beam="1">  1        2 0.17274893E+00 0.12495801E+04</pdfrwt>
<pdfrwt beam="2">  1       -1 0.53484278E-01 0.12495801E+04</pdfrwt>
<totfact> 0.83414712E+01</totfact>
</mgrwt>
</event>
<event>
12    6  0.1542110E-007  0.1897979E+04  0.7818608E-02  0.8655863E-01
          2   -1    0    0  501    0  0.00000000000E+00  0.00000000000E+00  0.31427155006E+04  0.31427155006E+04  0.00000000000E+00 0. -1.
         -1   -1    0    0    0  501 -0.00000000000E+00 -0.00000000000E+00 -0.28656148919E+03  0.28656148919E+03  0.00000000000E+00 0.  1.
         24    2    1    2    0    0 -0.66554134994E+03  0.27243287608E+03  0.97607788361E+03  0.12149830005E+04  0.79313908839E+02 0.  0.
        254    2    1    2    0    0  0.66554134994E+03 -0.27243287608E+03  0.18800761278E+04  0.22142939893E+04  0.92263029665E+03 0.  0.
         23    2    4    4    0    0  0.43120386013E+03 -0.54481581206E+03  0.16085530776E+04  0.17544689912E+04  0.89204258644E+02 0.  0.
         23    2    4    4    0    0  0.23433748982E+03  0.27238293598E+03  0.27152305024E+03  0.45982499809E+03  0.92777902039E+02 0.  0.
          2    1    3    3  502    0 -0.64980905905E+03  0.25072102363E+03  0.93439820243E+03  0.11654238910E+04  0.00000000000E+00 0. -1.
         -1    1    3    3    0  502 -0.15732290890E+02  0.21711852444E+02  0.41679681175E+02  0.49559109517E+02  0.00000000000E+00 0.  1.
         11    1    5    5    0    0  0.13045990490E+03 -0.22465007804E+03  0.65345893188E+03  0.70320410977E+03  0.00000000000E+00 0. -1.
        -11    1    5    5    0    0  0.30074395523E+03 -0.32016573402E+03  0.95509414572E+03  0.10512648815E+04  0.00000000000E+00 0.  1.
          4    1    6    6  503    0  0.24176564249E+03  0.25253160560E+03  0.25150930648E+03  0.43067362232E+03  0.00000000000E+00 0. -1.
         -4    1    6    6    0  503 -0.74281526701E+01  0.19851330381E+02  0.20013743756E+02  0.29151375767E+02  0.00000000000E+00 0.  1.
<mgrwt>
<rscale>  0 0.18979792E+04</rscale>
<asrwt>0</asrwt>
<pdfrwt beam="1">  1        2 0.48349467E+00 0.18979792E+04</pdfrwt>
<pdfrwt beam="2">  1       -1 0.44086385E-01 0.18979792E+04</pdfrwt>
<totfact> 0.76959966E+00</totfact>
</mgrwt>
</event>
<event>
12    6  0.1542110E-007  0.1124719E+04  0.7818608E-02  0.9181428E-01
          4   -1    0    0  501    0  0.00000000000E+00  0.00000000000E+00  0.66663242965E+03  0.66663242965E+03  0.00000000000E+00 0. -1.
         -3   -1    0    0    0  501 -0.00000000000E+00 -0.00000000000E+00 -0.47439687494E+03  0.47439687494E+03  0.00000000000E+00 0.  1.
         24    2    1    2    0    0  0.11262123183E+03  0.78432223635E+02 -0.97708771605E+02  0.18751431826E+03  0.82337475933E+02 0.  0.
        254    2    1    2    0    0 -0.11262123183E+03 -0.78432223635E+02  0.28994432631E+03  0.95351498632E+03  0.89793538811E+03 0.  0.
         23    2    4    4    0    0 -0.11795821894E+03 -0.47236285880E+03  0.94974304855E+02  0.50460101493E+03  0.92527044093E+02 0.  0.
         23    2    4    4    0    0  0.53369871123E+01  0.39393063517E+03  0.19497002146E+03  0.44891397140E+03  0.91107714767E+02 0.  0.
          4    1    3    3  502    0  0.10748115293E+02  0.46539654399E+02 -0.87538031925E+01  0.48560173849E+02  0.00000000000E+00 0. -1.
         -3    1    3    3    0  502  0.10187311653E+03  0.31892569236E+02 -0.88954968412E+02  0.13895414441E+03  0.00000000000E+00 0.  1.
         11    1    5    5    0    0 -0.63843661091E+02 -0.20985786075E+03  0.88395779759E+02  0.23649555737E+03  0.00000000000E+00 0.  1.
        -11    1    5    5    0    0 -0.54114557846E+02 -0.26250499806E+03  0.65785250955E+01  0.26810545755E+03  0.00000000000E+00 0. -1.
          1    1    6    6  503    0  0.10313831752E+02  0.88271533015E+01  0.23917299533E+02  0.27501472284E+02  0.00000000000E+00 0. -1.
         -1    1    6    6    0  503 -0.49768446397E+01  0.38510348187E+03  0.17105272193E+03  0.42141249911E+03  0.00000000000E+00 0.  1.
<mgrwt>
<rscale>  0 0.11247192E+04</rscale>
<asrwt>0</asrwt>
<pdfrwt beam="1">  1        4 0.10255884E+00 0.11247192E+04</pdfrwt>
<pdfrwt beam="2">  1       -3 0.72984135E-01 0.11247192E+04</pdfrwt>
<totfact> 0.31340717E+00</totfact>
</mgrwt>
</event>
<event>
12    6  0.1542110E-007  0.1534339E+04  0.7818608E-02  0.8861934E-01
          2   -1    0    0  501    0  0.00000000000E+00  0.00000000000E+00  0.13566946255E+04  0.13566946255E+04  0.00000000000E+00 0. -1.
         -1   -1    0    0    0  501 -0.00000000000E+00 -0.00000000000E+00 -0.43381093172E+03  0.43381093172E+03  0.00000000000E+00 0.  1.
         24    2    1    2    0    0 -0.22459178316E+03  0.75029207650E+02  0.81512628990E+03  0.85256011316E+03  0.79730966399E+02 0.  0.
        254    2    1    2    0    0  0.22459178316E+03 -0.75029207650E+02  0.10775740383E+03  0.93794544401E+03  0.90114324433E+03 0.  0.
         23    2    4    4    0    0  0.79025926132E+01  0.33221964665E+03 -0.17742464552E+03  0.38631604619E+03  0.85605129038E+02 0.  0.
         23    2    4    4    0    0  0.21668919055E+03 -0.40724885430E+03  0.28518204936E+03  0.55162939782E+03  0.10079859442E+03 0.  0.
          2    1    3    3  502    0 -0.91383732404E+02  0.67088204704E+02  0.44134775607E+03  0.45567494505E+03  0.00000000000E+00 0. -1.
         -1    1    3    3    0  502 -0.13320805076E+03  0.79410029453E+01  0.37377853383E+03  0.39688516811E+03  0.00000000000E+00 0.  1.
         11    1    5    5    0    0 -0.18720108395E+02  0.14488430283E+02 -0.18592452543E+02  0.30100437903E+02  0.00000000000E+00 0. -1.
        -11    1    5    5    0    0  0.26622701008E+02  0.31773121637E+03 -0.15883219298E+03  0.35621560829E+03  0.00000000000E+00 0.  1.
          2    1    6    6  503    0  0.98703957898E+02 -0.11133436488E+03  0.55104001059E+02  0.15866399416E+03  0.00000000000E+00 0. -1.
         -2    1    6    6    0  503  0.11798523265E+03 -0.29591448942E+03  0.23007804830E+03  0.39296540366E+03  0.00000000000E+00 0.  1.
<mgrwt>
<rscale>  0 0.15343389E+04</rscale>
<asrwt>0</asrwt>
<pdfrwt beam="1">  1        2 0.20872225E+00 0.15343389E+04</pdfrwt>
<pdfrwt beam="2">  1       -1 0.66740144E-01 0.15343389E+04</pdfrwt>
<totfact> 0.38289671E+01</totfact>
</mgrwt>
</event>
<event>
12    6  0.1542110E-007  0.2261426E+04  0.7818608E-02  0.8493287E-01
          2   -1    0    0  501    0  0.00000000000E+00  0.00000000000E+00  0.33017930289E+04  0.33017930289E+04  0.00000000000E+00 0. -1.
         -1   -1    0    0    0  501 -0.00000000000E+00 -0.00000000000E+00 -0.38721746152E+03  0.38721746152E+03  0.00000000000E+00 0.  1.
         24    2    1    2    0    0 -0.75950090074E+03 -0.49567322770E+03  0.74963336923E+03  0.11795935810E+04  0.83410198527E+02 0.  0.
        254    2    1    2    0    0  0.75950090074E+03  0.49567322770E+03  0.21649421982E+04  0.25094169094E+04  0.88750489406E+03 0.  0.
         23    2    4    4    0    0  0.75943640065E+03  0.13547060080E+03  0.19022579266E+04  0.20547676998E+04  0.91592306807E+02 0.  0.
         23    2    4    4    0    0  0.64500089492E-01  0.36020262690E+03  0.26268427159E+03  0.45464920960E+03  0.89201685316E+02 0.  0.
          4    1    3    3  502    0 -0.10957643065E+03 -0.79612072112E+02  0.15164677735E+03  0.20332688278E+03  0.00000000000E+00 0. -1.
         -3    1    3    3    0  502 -0.64992447009E+03 -0.41606115559E+03  0.59798659188E+03  0.97626669824E+03  0.00000000000E+00 0.  1.
         11    1    5    5    0    0  0.10669968431E+03  0.82760618648E+01  0.35158827498E+03  0.36751548394E+03  0.00000000000E+00 0.  1.
        -11    1    5    5    0    0  0.65273671634E+03  0.12719453893E+03  0.15506696516E+04  0.16872522159E+04  0.00000000000E+00 0. -1.
          2    1    6    6  503    0 -0.29986860441E+02  0.26451777114E+03  0.22118572414E+03  0.34610979126E+03  0.00000000000E+00 0. -1.
         -2    1    6    6    0  503  0.30051360531E+02  0.95684855763E+02  0.41498547452E+02  0.10853941834E+03  0.00000000000E+00 0.  1.
<mgrwt>
<rscale>  0 0.22614260E+04</rscale>
<asrwt>0</asrwt>
<pdfrwt beam="1">  1        2 0.50796814E+00 0.22614260E+04</pdfrwt>
<pdfrwt beam="2">  1       -1 0.59571920E-01 0.22614260E+04</pdfrwt>
<totfact> 0.32901787E+00</totfact>
</mgrwt>
</event>
<event>
12    6  0.1542110E-007  0.1289668E+04  0.7818608E-02  0.9037799E-01
          2   -1    0    0  501    0  0.00000000000E+00  0.00000000000E+00  0.10871206583E+04  0.10871206583E+04  0.00000000000E+00 0. -1.
         -1   -1    0    0    0  501 -0.00000000000E+00 -0.00000000000E+00 -0.38248814970E+03  0.38248814970E+03  0.00000000000E+00 0.  1.
         24    2    1    2    0    0 -0.90808499113E+02 -0.30745082943E+03  0.90392104170E+02  0.34286554807E+03  0.81325614258E+02 0.  0.
        254    2    1    2    0    0  0.90808499113E+02  0.30745082943E+03  0.61424040443E+03  0.11267432599E+04  0.88853075543E+03 0.  0.
         23    2    4    4    0    0  0.30344653902E+03  0.28394399625E+03  0.74622130700E+03  0.85897308235E+03  0.91019350366E+02 0.  0.
         23    2    4    4    0    0 -0.21263803991E+03  0.23506833175E+02 -0.13198090256E+03  0.26777017759E+03  0.92273518100E+02 0.  0.
          4    1    3    3  502    0  0.67373215324E+01 -0.11351210023E+02 -0.86217618938E+01  0.15766301043E+02  0.00000000000E+00 0. -1.
         -3    1    3    3    0  502 -0.97545820646E+02 -0.29609961940E+03  0.99013866064E+02  0.32709924703E+03  0.00000000000E+00 0.  1.
         11    1    5    5    0    0  0.26951438696E+03  0.25754391722E+03  0.71324915055E+03  0.80479265953E+03  0.00000000000E+00 0. -1.
        -11    1    5    5    0    0  0.33932152064E+02  0.26400079026E+02  0.32972156445E+02  0.54180422820E+02  0.00000000000E+00 0.  1.
          1    1    6    6  503    0 -0.19171397282E+03  0.21343753791E+02 -0.14648917222E+03  0.24221659889E+03  0.00000000000E+00 0. -1.
         -1    1    6    6    0  503 -0.20924067083E+02  0.21630793843E+01  0.14508269656E+02  0.25553578695E+02  0.00000000000E+00 0.  1.
<mgrwt>
<rscale>  0 0.12896678E+04</rscale>
<asrwt>0</asrwt>
<pdfrwt beam="1">  1        2 0.16724933E+00 0.12896678E+04</pdfrwt>
<pdfrwt beam="2">  1       -1 0.58844331E-01 0.12896678E+04</pdfrwt>
<totfact> 0.72654680E+01</totfact>
</mgrwt>
</event>
<event>
12    6  0.1542110E-007  0.4536078E+04  0.7818608E-02  0.7904351E-01
          2   -1    0    0  501    0  0.00000000000E+00  0.00000000000E+00  0.32305964382E+04  0.32305964382E+04  0.00000000000E+00 0. -1.
         -1   -1    0    0    0  501 -0.00000000000E+00 -0.00000000000E+00 -0.15922761947E+04  0.15922761947E+04  0.00000000000E+00 0.  1.
         24    2    1    2    0    0  0.17487880648E+03  0.21585623521E+04  0.11004683358E+04  0.24305308696E+04  0.80471888923E+02 0.  0.
        254    2    1    2    0    0 -0.17487880648E+03 -0.21585623521E+04  0.53785190763E+03  0.23923417634E+04  0.86257777226E+03 0.  0.
         23    2    4    4    0    0  0.26578939171E+03 -0.94162583052E+03 -0.13062350783E+02  0.98249563997E+03  0.88452541492E+02 0.  0.
         23    2    4    4    0    0 -0.44066819818E+03 -0.12169365216E+04  0.55091425842E+03  0.14098461234E+04  0.95061101494E+02 0.  0.
          2    1    3    3  502    0  0.65743290615E+02  0.65937021791E+03  0.37620303372E+03  0.76198424335E+03  0.00000000000E+00 0. -1.
         -1    1    3    3    0  502  0.10913551586E+03  0.14991921342E+04  0.72426530211E+03  0.16685466262E+04  0.00000000000E+00 0.  1.
         11    1    5    5    0    0  0.60221588926E+02 -0.12775754199E+03 -0.22463345620E+02  0.14301479365E+03  0.00000000000E+00 0. -1.
        -11    1    5    5    0    0  0.20556780278E+03 -0.81386828854E+03  0.94009948376E+01  0.83948084632E+03  0.00000000000E+00 0.  1.
          1    1    6    6  503    0 -0.33655631746E+02 -0.12450013993E+03  0.27135826001E+02  0.13179278980E+03  0.00000000000E+00 0. -1.
         -1    1    6    6    0  503 -0.40701256644E+03 -0.10924363817E+04  0.52377843242E+03  0.12780533336E+04  0.00000000000E+00 0.  1.
<mgrwt>
<rscale>  0 0.45360784E+04</rscale>
<asrwt>0</asrwt>
<pdfrwt beam="1">  1        2 0.49701484E+00 0.45360784E+04</pdfrwt>
<pdfrwt beam="2">  1       -1 0.24496557E+00 0.45360784E+04</pdfrwt>
<totfact> 0.79824182E-02</totfact>
</mgrwt>
</event>
<event>
12    6  0.1542110E-007  0.1622927E+04  0.7818608E-02  0.8806585E-01
         -1   -1    0    0    0  501 -0.00000000000E+00  0.00000000000E+00  0.27901535181E+03  0.27901535181E+03  0.00000000000E+00 0.  1.
          2   -1    0    0  501    0  0.00000000000E+00 -0.00000000000E+00 -0.23599889838E+04  0.23599889838E+04  0.00000000000E+00 0. -1.
         24    2    1    2    0    0  0.52924856689E+03 -0.17141414147E+03 -0.76684743574E+03  0.95067036863E+03  0.78944959576E+02 0.  0.
        254    2    1    2    0    0 -0.52924856689E+03  0.17141414147E+03 -0.13141261963E+04  0.16883339670E+04  0.90225111303E+03 0.  0.
         23    2    4    4    0    0 -0.27715432129E+03  0.53428864202E+03 -0.73611475097E+03  0.95508161395E+03  0.89649829399E+02 0.  0.
         23    2    4    4    0    0 -0.25209424560E+03 -0.36287450055E+03 -0.57801144529E+03  0.73325235305E+03  0.91281819371E+02 0.  0.
          2    1    3    3  502    0  0.51580910652E+02 -0.80842440546E+01 -0.11420241335E+03  0.12557124098E+03  0.00000000000E+00 0. -1.
         -1    1    3    3    0  502  0.47766765624E+03 -0.16332989741E+03 -0.65264502239E+03  0.82509912766E+03  0.00000000000E+00 0.  1.
         11    1    5    5    0    0 -0.19128901414E+03  0.28923286514E+03 -0.38127438800E+03  0.51538072932E+03  0.00000000000E+00 0.  1.
        -11    1    5    5    0    0 -0.85865307148E+02  0.24505577688E+03 -0.35484036297E+03  0.43970088463E+03  0.00000000000E+00 0. -1.
          3    1    6    6  503    0  0.50999474479E+01 -0.10344037323E+02 -0.33661326704E+02  0.35582207458E+02  0.00000000000E+00 0. -1.
         -3    1    6    6    0  503 -0.25719419305E+03 -0.35253046323E+03 -0.54435011859E+03  0.69767014559E+03  0.00000000000E+00 0.  1.
<mgrwt>
<rscale>  0 0.16229272E+04</rscale>
<asrwt>0</asrwt>
<pdfrwt beam="1">  1        2 0.36307522E+00 0.16229272E+04</pdfrwt>
<pdfrwt beam="2">  1       -1 0.42925440E-01 0.16229272E+04</pdfrwt>
<totfact> 0.24462289E+01</totfact>
</mgrwt>
</event>
<event>
12    6  0.1542110E-007  0.1350413E+04  0.7818608E-02  0.8990516E-01
          2   -1    0    0  501    0  0.00000000000E+00  0.00000000000E+00  0.14653460909E+04  0.14653460909E+04  0.00000000000E+00 0. -1.
         -1   -1    0    0    0  501 -0.00000000000E+00 -0.00000000000E+00 -0.31112341974E+03  0.31112341974E+03  0.00000000000E+00 0.  1.
         24    2    1    2    0    0  0.11846970747E+03 -0.33747917482E+03  0.17860126335E+03  0.40807070636E+03  0.81829243510E+02 0.  0.
        254    2    1    2    0    0 -0.11846970747E+03  0.33747917482E+03  0.97562140783E+03  0.13683988043E+04  0.89036559411E+03 0.  0.
         23    2    4    4    0    0 -0.48015429702E+03  0.25621390231E+03  0.41483547302E+03  0.69019120020E+03  0.89898334130E+02 0.  0.
         23    2    4    4    0    0  0.36168458955E+03  0.81265272511E+02  0.56078593481E+03  0.67820760409E+03  0.89804803518E+02 0.  0.
          2    1    3    3  502    0  0.83308936016E+02 -0.17101965137E+03  0.55792741298E+02  0.19824462150E+03  0.00000000000E+00 0. -1.
         -1    1    3    3    0  502  0.35160771455E+02 -0.16645952345E+03  0.12280852205E+03  0.20982608485E+03  0.00000000000E+00 0.  1.
         11    1    5    5    0    0 -0.14177288855E+03  0.75161373487E+02  0.73147269913E+02  0.17634995630E+03  0.00000000000E+00 0. -1.
        -11    1    5    5    0    0 -0.33838140847E+03  0.18105252882E+03  0.34168820311E+03  0.51384124390E+03  0.00000000000E+00 0.  1.
          4    1    6    6  503    0  0.16170266655E+02 -0.35129664167E+00  0.21664444680E+01  0.16318529795E+02  0.00000000000E+00 0. -1.
         -4    1    6    6    0  503  0.34551432290E+03  0.81616569153E+02  0.55861949034E+03  0.66188907430E+03  0.00000000000E+00 0.  1.
<mgrwt>
<rscale>  0 0.13504125E+04</rscale>
<asrwt>0</asrwt>
<pdfrwt beam="1">  1        2 0.22543786E+00 0.13504125E+04</pdfrwt>
<pdfrwt beam="2">  1       -1 0.47865142E-01 0.13504125E+04</pdfrwt>
<totfact> 0.64446299E+01</totfact>
</mgrwt>
</event>
<event>
12    6  0.1542110E-007  0.2550276E+04  0.7818608E-02  0.8385290E-01
         -1   -1    0    0    0  501 -0.00000000000E+00  0.00000000000E+00  0.86552396321E+03  0.86552396321E+03  0.00000000000E+00 0.  1.
          2   -1    0    0  501    0  0.00000000000E+00 -0.00000000000E+00 -0.18786044634E+04  0.18786044634E+04  0.00000000000E+00 0. -1.
         24    2    1    2    0    0 -0.99696674637E+03  0.97371612418E+02 -0.94472741129E+03  0.13791873509E+04  0.78891970321E+02 0.  0.
        254    2    1    2    0    0  0.99696674637E+03 -0.97371612418E+02 -0.68353088905E+02  0.13649410757E+04  0.92464483513E+03 0.  0.
         23    2    4    4    0    0  0.29279574165E+03 -0.34502924985E+03 -0.33117149285E+03  0.56837366496E+03  0.92733681923E+02 0.  0.
         23    2    4    4    0    0  0.70417100472E+03  0.24765763743E+03  0.26281840394E+03  0.79656741075E+03  0.90857124968E+02 0.  0.
          2    1    3    3  502    0 -0.42976346592E+03  0.76790511151E+02 -0.38593401224E+03  0.58269930586E+03  0.00000000000E+00 0. -1.
         -1    1    3    3    0  502 -0.56720328045E+03  0.20581101267E+02 -0.55879339905E+03  0.79648804505E+03  0.00000000000E+00 0.  1.
         11    1    5    5    0    0 -0.54119703572E+01 -0.71256930798E+01 -0.16319250808E+02  0.18611364054E+02  0.00000000000E+00 0.  1.
        -11    1    5    5    0    0  0.29820771201E+03 -0.33790355677E+03 -0.31485224204E+03  0.54976230090E+03  0.00000000000E+00 0. -1.
          2    1    6    6  503    0  0.27723321828E+03  0.71593505336E+02  0.61926101132E+02  0.29294833901E+03  0.00000000000E+00 0.  1.
         -2    1    6    6    0  503  0.42693778644E+03  0.17606413209E+03  0.20089230281E+03  0.50361907175E+03  0.00000000000E+00 0. -1.
<mgrwt>
<rscale>  0 0.25502762E+04</rscale>
<asrwt>0</asrwt>
<pdfrwt beam="1">  1        2 0.28901607E+00 0.25502762E+04</pdfrwt>
<pdfrwt beam="2">  1       -1 0.13315753E+00 0.25502762E+04</pdfrwt>
<totfact> 0.37638703E+00</totfact>
</mgrwt>
</event>
<event>
12    6  0.1542110E-007  0.1635357E+04  0.7818608E-02  0.8799117E-01
          2   -1    0    0  501    0  0.00000000000E+00  0.00000000000E+00  0.12843588961E+04  0.12843588961E+04  0.00000000000E+00 0. -1.
         -1   -1    0    0    0  501 -0.00000000000E+00 -0.00000000000E+00 -0.52056930048E+03  0.52056930048E+03  0.00000000000E+00 0.  1.
         24    2    1    2    0    0 -0.41137877279E+03 -0.43633576319E+03  0.53790836610E+03  0.80961410168E+03  0.80673356095E+02 0.  0.
        254    2    1    2    0    0  0.41137877279E+03  0.43633576319E+03  0.22588122954E+03  0.99531409492E+03  0.76158152863E+03 0.  0.
         23    2    4    4    0    0  0.18786033901E+03  0.56469095791E+03 -0.53251181673E+02  0.60438172544E+03  0.90962612033E+02 0.  0.
         23    2    4    4    0    0  0.22351843378E+03 -0.12835519472E+03  0.27913241121E+03  0.39093236948E+03  0.92074254086E+02 0.  0.
          2    1    3    3  502    0 -0.31813403412E+03 -0.30568591890E+03  0.35516740295E+03  0.56638946741E+03  0.00000000000E+00 0. -1.
         -1    1    3    3    0  502 -0.93244738670E+02 -0.13064984429E+03  0.18274096315E+03  0.24322463427E+03  0.00000000000E+00 0.  1.
         11    1    5    5    0    0  0.11318423320E+03  0.44084693911E+03 -0.17845346801E+02  0.45549440257E+03  0.00000000000E+00 0. -1.
        -11    1    5    5    0    0  0.74676105807E+02  0.12384401879E+03 -0.35405834872E+02  0.14888732287E+03  0.00000000000E+00 0.  1.
          4    1    6    6  503    0  0.19141100340E+03 -0.14233701130E+03  0.24761248807E+03  0.34381672626E+03  0.00000000000E+00 0. -1.
         -4    1    6    6    0  503  0.32107430389E+02  0.13981816584E+02  0.31519923139E+02  0.47115643218E+02  0.00000000000E+00 0.  1.
<mgrwt>
<rscale>  0 0.16353566E+04</rscale>
<asrwt>0</asrwt>
<pdfrwt beam="1">  1        2 0.19759368E+00 0.16353566E+04</pdfrwt>
<pdfrwt beam="2">  1       -1 0.80087585E-01 0.16353566E+04</pdfrwt>
<totfact> 0.28648455E+01</totfact>
</mgrwt>
</event>
<event>
12    6  0.1542110E-007  0.1314406E+04  0.7818608E-02  0.9018218E-01
          2   -1    0    0  501    0  0.00000000000E+00  0.00000000000E+00  0.15894141049E+04  0.15894141049E+04  0.00000000000E+00 0. -1.
         -1   -1    0    0    0  501 -0.00000000000E+00 -0.00000000000E+00 -0.27174548357E+03  0.27174548357E+03  0.00000000000E+00 0.  1.
         24    2    1    2    0    0 -0.89733225699E+02  0.21038219376E+02  0.82076293141E+03  0.83120124719E+03  0.93536438270E+02 0.  0.
        254    2    1    2    0    0  0.89733225699E+02 -0.21038219376E+02  0.49690568989E+03  0.10299583412E+04  0.89744318015E+03 0.  0.
         23    2    4    4    0    0 -0.45101848794E+02 -0.37953175938E+01  0.73464219751E+03  0.74155480335E+03  0.90309394857E+02 0.  0.
         23    2    4    4    0    0  0.13483507449E+03 -0.17242901783E+02 -0.23773650763E+03  0.28840353790E+03  0.90444118881E+02 0.  0.
          2    1    3    3  502    0 -0.10005316568E+03  0.24353445066E+02  0.80765087752E+03  0.81418896223E+03  0.00000000000E+00 0. -1.
         -1    1    3    3    0  502  0.10319939977E+02 -0.33152256896E+01  0.13112053884E+02  0.17012284960E+02  0.00000000000E+00 0.  1.
         11    1    5    5    0    0 -0.26973042152E+02  0.41855929429E+02  0.44499123650E+03  0.44776853886E+03  0.00000000000E+00 0.  1.
        -11    1    5    5    0    0 -0.18128806642E+02 -0.45651247023E+02  0.28965096101E+03  0.29378626448E+03  0.00000000000E+00 0. -1.
          4    1    6    6  503    0  0.15413685999E+02 -0.28174222921E+01 -0.11674342366E+03  0.11779026510E+03  0.00000000000E+00 0.  1.
         -4    1    6    6    0  503  0.11942138849E+03 -0.14425479491E+02 -0.12099308397E+03  0.17061327280E+03  0.00000000000E+00 0. -1.
<mgrwt>
<rscale>  0 0.13144065E+04</rscale>
<asrwt>0</asrwt>
<pdfrwt beam="1">  1        2 0.24452524E+00 0.13144065E+04</pdfrwt>
<pdfrwt beam="2">  1       -1 0.41806998E-01 0.13144065E+04</pdfrwt>
<totfact> 0.70809562E+01</totfact>
</mgrwt>
</event>
<event>
12    6  0.1542110E-007  0.2681826E+04  0.7818608E-02  0.8340926E-01
         -1   -1    0    0    0  501 -0.00000000000E+00  0.00000000000E+00  0.85430316837E+03  0.85430316837E+03  0.00000000000E+00 0.  1.
          2   -1    0    0  501    0  0.00000000000E+00 -0.00000000000E+00 -0.21046954382E+04  0.21046954382E+04  0.00000000000E+00 0. -1.
         24    2    1    2    0    0 -0.10641419213E+04  0.37883096228E+03 -0.13064726136E+03  0.11398776527E+04  0.79633093934E+02 0.  0.
        254    2    1    2    0    0  0.10641419213E+04 -0.37883096228E+03 -0.11197450084E+04  0.18191209538E+04  0.88287101789E+03 0.  0.
         23    2    4    4    0    0  0.97452153718E+03 -0.80377497896E+02 -0.46317244228E+03  0.10858875545E+04  0.92034238825E+02 0.  0.
         23    2    4    4    0    0  0.89620384067E+02 -0.29845346439E+03 -0.65657256614E+03  0.73323339933E+03  0.97146279632E+02 0.  0.
          4    1    3    3  502    0 -0.68996172133E+03  0.21029928942E+03 -0.10229274292E+03  0.72851683116E+03  0.00000000000E+00 0. -1.
         -3    1    3    3    0  502 -0.37418019992E+03  0.16853167287E+03 -0.28354518441E+02  0.41136082153E+03  0.00000000000E+00 0.  1.
         11    1    5    5    0    0  0.65766227416E+03 -0.83779439165E+02 -0.27826825317E+03  0.71900756742E+03  0.00000000000E+00 0. -1.
        -11    1    5    5    0    0  0.31685926302E+03  0.34019412687E+01 -0.18490418911E+03  0.36687998708E+03  0.00000000000E+00 0.  1.
          4    1    6    6  503    0  0.10012988308E+03 -0.26678281436E+03 -0.62672053523E+03  0.68846037853E+03  0.00000000000E+00 0. -1.
         -4    1    6    6    0  503 -0.10509499018E+02 -0.31670650026E+02 -0.29852030914E+02  0.44773020809E+02  0.00000000000E+00 0.  1.
<mgrwt>
<rscale>  0 0.26818262E+04</rscale>
<asrwt>0</asrwt>
<pdfrwt beam="1">  1        2 0.32379930E+00 0.26818262E+04</pdfrwt>
<pdfrwt beam="2">  1       -1 0.13143126E+00 0.26818262E+04</pdfrwt>
<totfact> 0.28789798E+00</totfact>
</mgrwt>
</event>
<event>
12    6  0.1542110E-007  0.2325058E+04  0.7818608E-02  0.8468106E-01
          2   -1    0    0  501    0  0.00000000000E+00  0.00000000000E+00  0.10630358600E+04  0.10630358600E+04  0.00000000000E+00 0. -1.
         -1   -1    0    0    0  501 -0.00000000000E+00 -0.00000000000E+00 -0.12713341854E+04  0.12713341854E+04  0.00000000000E+00 0.  1.
         24    2    1    2    0    0  0.41695066035E+03 -0.63552656920E+03  0.53550960973E+03  0.93393941034E+03  0.87922731643E+02 0.  0.
        254    2    1    2    0    0 -0.41695066035E+03  0.63552656920E+03 -0.74380793512E+03  0.14004306351E+04  0.91116071366E+03 0.  0.
         23    2    4    4    0    0  0.21757997306E+03  0.41384161534E+03 -0.15041862863E+03  0.49949054386E+03  0.90879658315E+02 0.  0.
         23    2    4    4    0    0 -0.63453063342E+03  0.22168495386E+03 -0.59338930649E+03  0.90094009127E+03  0.88367615593E+02 0.  0.
          4    1    3    3  502    0  0.32632872044E+03 -0.48316591852E+03  0.36437054753E+03  0.68753591506E+03  0.00000000000E+00 0. -1.
         -3    1    3    3    0  502  0.90621939914E+02 -0.15236065068E+03  0.17113906220E+03  0.24640349527E+03  0.00000000000E+00 0.  1.
         11    1    5    5    0    0  0.10124532493E+03  0.10728618146E+03 -0.32575699984E+02  0.15106990694E+03  0.00000000000E+00 0. -1.
        -11    1    5    5    0    0  0.11633464813E+03  0.30655543388E+03 -0.11784292865E+03  0.34842063692E+03  0.00000000000E+00 0.  1.
          4    1    6    6  503    0 -0.41757261990E+03  0.18700720567E+03 -0.38181754952E+03  0.59592216688E+03  0.00000000000E+00 0. -1.
         -4    1    6    6    0  503 -0.21695801352E+03  0.34677748192E+02 -0.21157175696E+03  0.30501792438E+03  0.00000000000E+00 0.  1.
<mgrwt>
<rscale>  0 0.23250581E+04</rscale>
<asrwt>0</asrwt>
<pdfrwt beam="1">  1        2 0.16354398E+00 0.23250581E+04</pdfrwt>
<pdfrwt beam="2">  1       -1 0.19558987E+00 0.23250581E+04</pdfrwt>
<totfact> 0.38265306E+00</totfact>
</mgrwt>
</event>
<event>
12    6  0.1542110E-007  0.1221402E+04  0.7818608E-02  0.9094327E-01
         -1   -1    0    0    0  501 -0.00000000000E+00  0.00000000000E+00  0.39170084621E+03  0.39170084621E+03  0.00000000000E+00 0.  1.
          2   -1    0    0  501    0  0.00000000000E+00 -0.00000000000E+00 -0.95214441207E+03  0.95214441207E+03  0.00000000000E+00 0. -1.
         24    2    1    2    0    0 -0.26581374137E+03  0.18636257704E+02 -0.93754367300E+02  0.29367100792E+03  0.80302704226E+02 0.  0.
        254    2    1    2    0    0  0.26581374137E+03 -0.18636257704E+02 -0.46668919856E+03  0.10501742504E+04  0.90225433934E+03 0.  0.
         23    2    4    4    0    0  0.44601148989E+03  0.25099954610E+03 -0.48699445848E+03  0.71272751625E+03  0.94286205691E+02 0.  0.
         23    2    4    4    0    0 -0.18019774852E+03 -0.26963580380E+03  0.20305259923E+02  0.33744673411E+03  0.91012633826E+02 0.  0.
          4    1    3    3  502    0 -0.14627956379E+02 -0.19023729245E+02 -0.12098246116E+02  0.26874652393E+02  0.00000000000E+00 0. -1.
         -3    1    3    3    0  502 -0.25118578499E+03  0.37659986948E+02 -0.81656121184E+02  0.26679635553E+03  0.00000000000E+00 0.  1.
         11    1    5    5    0    0  0.14092549725E+03  0.11028694970E+03 -0.12163228712E+03  0.21637379767E+03  0.00000000000E+00 0.  1.
        -11    1    5    5    0    0  0.30508599264E+03  0.14071259639E+03 -0.36536217136E+03  0.49635371858E+03  0.00000000000E+00 0. -1.
          4    1    6    6  503    0 -0.82952249197E+02 -0.17321597741E+03  0.47472890505E+02  0.19783459204E+03  0.00000000000E+00 0. -1.
         -4    1    6    6    0  503 -0.97245499322E+02 -0.96419826394E+02 -0.27167630581E+02  0.13961214206E+03  0.00000000000E+00 0.  1.
<mgrwt>
<rscale>  0 0.12214021E+04</rscale>
<asrwt>0</asrwt>
<pdfrwt beam="1">  1        2 0.14648375E+00 0.12214021E+04</pdfrwt>
<pdfrwt beam="2">  1       -1 0.60261669E-01 0.12214021E+04</pdfrwt>
<totfact> 0.84954915E+01</totfact>
</mgrwt>
</event>
<event>
12    6  0.1542110E-007  0.1704973E+04  0.7818608E-02  0.8758533E-01
          2   -1    0    0  501    0  0.00000000000E+00  0.00000000000E+00  0.13924881279E+04  0.13924881279E+04  0.00000000000E+00 0. -1.
         -1   -1    0    0    0  501 -0.00000000000E+00 -0.00000000000E+00 -0.52189576120E+03  0.52189576120E+03  0.00000000000E+00 0.  1.
         24    2    1    2    0    0  0.19375972762E+03 -0.27911302729E+03 -0.24615585201E+03  0.42745719139E+03  0.81731468520E+02 0.  0.
        254    2    1    2    0    0 -0.19375972762E+03  0.27911302729E+03  0.11167482187E+04  0.14869266977E+04  0.92107410468E+03 0.  0.
         23    2    4    4    0    0  0.33973923971E+03  0.25439677935E+02  0.59998000841E+03  0.69678253636E+03  0.97262347624E+02 0.  0.
         23    2    4    4    0    0 -0.53349896733E+03  0.25367334935E+03  0.51676821027E+03  0.79014416133E+03  0.91143273031E+02 0.  0.
          4    1    3    3  502    0  0.10557520708E+03 -0.12331505745E+03 -0.16305533840E+03  0.23008644273E+03  0.00000000000E+00 0. -1.
         -3    1    3    3    0  502  0.88184520538E+02 -0.15579796984E+03 -0.83100513605E+02  0.19737074867E+03  0.00000000000E+00 0.  1.
         11    1    5    5    0    0  0.17102119666E+03  0.54596742785E+01  0.39552495890E+03  0.43095017214E+03  0.00000000000E+00 0.  1.
        -11    1    5    5    0    0  0.16871804305E+03  0.19980003656E+02  0.20445504951E+03  0.26583236422E+03  0.00000000000E+00 0. -1.
          4    1    6    6  503    0 -0.42083652158E+03  0.23930476283E+03  0.42189670570E+03  0.64215806285E+03  0.00000000000E+00 0. -1.
         -4    1    6    6    0  503 -0.11266244576E+03  0.14368586519E+02  0.94871504569E+02  0.14798609848E+03  0.00000000000E+00 0.  1.
<mgrwt>
<rscale>  0 0.17049735E+04</rscale>
<asrwt>0</asrwt>
<pdfrwt beam="1">  1        2 0.21422894E+00 0.17049735E+04</pdfrwt>
<pdfrwt beam="2">  1       -1 0.80291656E-01 0.17049735E+04</pdfrwt>
<totfact> 0.24524657E+01</totfact>
</mgrwt>
</event>
<event>
12    6  0.1542110E-007  0.1363278E+04  0.7818608E-02  0.8980837E-01
          2   -1    0    0  501    0  0.00000000000E+00  0.00000000000E+00  0.15417198040E+04  0.15417198040E+04  0.00000000000E+00 0. -1.
         -1   -1    0    0    0  501 -0.00000000000E+00 -0.00000000000E+00 -0.30137251831E+03  0.30137251831E+03  0.00000000000E+00 0.  1.
         24    2    1    2    0    0  0.36093934399E+03  0.11419204784E+02  0.51644201817E+03  0.63572854947E+03  0.83849998203E+02 0.  0.
        254    2    1    2    0    0 -0.36093934399E+03 -0.11419204784E+02  0.72390526752E+03  0.12073637728E+04  0.89625935719E+03 0.  0.
         23    2    4    4    0    0  0.21546740454E+03 -0.57822621115E+01 -0.51588095167E+02  0.23673707692E+03  0.83207421841E+02 0.  0.
         23    2    4    4    0    0 -0.57640674853E+03 -0.56369426720E+01  0.77549336269E+03  0.97062669593E+03  0.91922317211E+02 0.  0.
          4    1    3    3  502    0  0.21406437092E+03  0.82421560340E+01  0.37454697205E+03  0.43148223869E+03  0.00000000000E+00 0. -1.
         -3    1    3    3    0  502  0.14687497307E+03  0.31770487496E+01  0.14189504613E+03  0.20424631078E+03  0.00000000000E+00 0.  1.
         11    1    5    5    0    0  0.12234832451E+03 -0.44408287288E+02 -0.26036333239E+02  0.13273695468E+03  0.00000000000E+00 0. -1.
        -11    1    5    5    0    0  0.93119080034E+02  0.38626025177E+02 -0.25551761928E+02  0.10400012224E+03  0.00000000000E+00 0.  1.
          2    1    6    6  503    0 -0.13283186555E+03  0.95293362225E+01  0.12163500106E+03  0.18036126590E+03  0.00000000000E+00 0. -1.
         -2    1    6    6    0  503 -0.44357488298E+03 -0.15166278895E+02  0.65385836163E+03  0.79026543003E+03  0.00000000000E+00 0.  1.
<mgrwt>
<rscale>  0 0.13632784E+04</rscale>
<asrwt>0</asrwt>
<pdfrwt beam="1">  1        2 0.23718766E+00 0.13632784E+04</pdfrwt>
<pdfrwt beam="2">  1       -1 0.46365004E-01 0.13632784E+04</pdfrwt>
<totfact> 0.61900214E+01</totfact>
</mgrwt>
</event>
<event>
12    6  0.1542110E-007  0.1412923E+04  0.7818608E-02  0.8944517E-01
         -1   -1    0    0    0  501 -0.00000000000E+00  0.00000000000E+00  0.17829972584E+03  0.17829972584E+03  0.00000000000E+00 0.  1.
          2   -1    0    0  501    0  0.00000000000E+00 -0.00000000000E+00 -0.27991498383E+04  0.27991498383E+04  0.00000000000E+00 0. -1.
         24    2    1    2    0    0  0.80905014304E+02  0.10903201560E+03 -0.16091106071E+04  0.16168090783E+04  0.80006549331E+02 0.  0.
        254    2    1    2    0    0 -0.80905014304E+02 -0.10903201560E+03 -0.10117395054E+04  0.13606404859E+04  0.89960663810E+03 0.  0.
         23    2    4    4    0    0 -0.33927398195E+03 -0.38228403456E+03 -0.63695559435E+03  0.82187633998E+03  0.92305856428E+02 0.  0.
         23    2    4    4    0    0  0.25836896764E+03  0.27325201896E+03 -0.37478391103E+03  0.53876414591E+03  0.91556734563E+02 0.  0.
          2    1    3    3  502    0  0.71892734016E+02  0.45508311301E+02 -0.11630050036E+04  0.11661132920E+04  0.00000000000E+00 0. -1.
         -1    1    3    3    0  502  0.90122802877E+01  0.63523704301E+02 -0.44610560353E+03  0.45069578621E+03  0.00000000000E+00 0.  1.
         11    1    5    5    0    0 -0.11472467157E+03 -0.19055370390E+03 -0.24105950784E+03  0.32799718087E+03  0.00000000000E+00 0. -1.
        -11    1    5    5    0    0 -0.22454931038E+03 -0.19173033065E+03 -0.39589608651E+03  0.49387915911E+03  0.00000000000E+00 0.  1.
          1    1    6    6  503    0  0.11773609554E+03  0.76175846392E+02 -0.17906894131E+03  0.22744281371E+03  0.00000000000E+00 0. -1.
         -1    1    6    6    0  503  0.14063287210E+03  0.19707617256E+03 -0.19571496972E+03  0.31132133220E+03  0.00000000000E+00 0.  1.
<mgrwt>
<rscale>  0 0.14129227E+04</rscale>
<asrwt>0</asrwt>
<pdfrwt beam="1">  1        2 0.43063843E+00 0.14129227E+04</pdfrwt>
<pdfrwt beam="2">  1       -1 0.27430728E-01 0.14129227E+04</pdfrwt>
<totfact> 0.30791300E+01</totfact>
</mgrwt>
</event>
<event>
12    6  0.1542110E-007  0.3809296E+04  0.7818608E-02  0.8044163E-01
          2   -1    0    0  501    0  0.00000000000E+00  0.00000000000E+00  0.25126645178E+04  0.25126645178E+04  0.00000000000E+00 0. -1.
         -1   -1    0    0    0  501 -0.00000000000E+00 -0.00000000000E+00 -0.14437595887E+04  0.14437595887E+04  0.00000000000E+00 0.  1.
         24    2    1    2    0    0 -0.92002760168E+03  0.11721807698E+04  0.15436442915E+04  0.21470413141E+04  0.80561534350E+02 0.  0.
        254    2    1    2    0    0  0.92002760168E+03 -0.11721807698E+04 -0.47473936236E+03  0.18093827924E+04  0.90996158294E+03 0.  0.
         23    2    4    4    0    0  0.69313046287E+03 -0.10715052142E+04 -0.70242334456E+03  0.14593322496E+04  0.87742788768E+02 0.  0.
         23    2    4    4    0    0  0.22689713881E+03 -0.10067555562E+03  0.22768398220E+03  0.35005054289E+03  0.95275955659E+02 0.  0.
          4    1    3    3  502    0 -0.70324720717E+03  0.94891550732E+03  0.12235951545E+04  0.17006417543E+04  0.00000000000E+00 0. -1.
         -3    1    3    3    0  502 -0.21678039451E+03  0.22326526250E+03  0.32004913695E+03  0.44639955975E+03  0.00000000000E+00 0.  1.
         11    1    5    5    0    0  0.48022564174E+03 -0.77320208276E+03 -0.54128220980E+03  0.10589827942E+04  0.00000000000E+00 0.  1.
        -11    1    5    5    0    0  0.21290482113E+03 -0.29830313144E+03 -0.16114113476E+03  0.40034945535E+03  0.00000000000E+00 0. -1.
          4    1    6    6  503    0  0.16563106922E+03 -0.91548194849E+02  0.21571442066E+03  0.28696242673E+03  0.00000000000E+00 0.  1.
         -4    1    6    6    0  503  0.61266069590E+02 -0.91273607701E+01  0.11969561540E+02  0.63088116164E+02  0.00000000000E+00 0. -1.
<mgrwt>
<rscale>  0 0.38092957E+04</rscale>
<asrwt>0</asrwt>
<pdfrwt beam="1">  1        2 0.38656377E+00 0.38092957E+04</pdfrwt>
<pdfrwt beam="2">  1       -1 0.22211686E+00 0.38092957E+04</pdfrwt>
<totfact> 0.33194430E-01</totfact>
</mgrwt>
</event>
<event>
12    6  0.1542110E-007  0.1532791E+04  0.7818608E-02  0.8862935E-01
         -1   -1    0    0    0  501 -0.00000000000E+00  0.00000000000E+00  0.23839403956E+03  0.23839403956E+03  0.00000000000E+00 0.  1.
          2   -1    0    0  501    0  0.00000000000E+00 -0.00000000000E+00 -0.24638291163E+04  0.24638291163E+04  0.00000000000E+00 0. -1.
         24    2    1    2    0    0  0.21722067812E+03 -0.43772493608E+03 -0.56795465495E+03  0.75356473815E+03  0.80618743711E+02 0.  0.
        254    2    1    2    0    0 -0.21722067812E+03  0.43772493608E+03 -0.16574804218E+04  0.19486584177E+04  0.90068881289E+03 0.  0.
         23    2    4    4    0    0  0.29285001251E+03  0.38493367859E+03 -0.94774885161E+03  0.10680628746E+04  0.92711119763E+02 0.  0.
         23    2    4    4    0    0 -0.51007069063E+03  0.52791257487E+02 -0.70973157021E+03  0.88059554310E+03  0.93651387954E+02 0.  0.
          2    1    3    3  502    0  0.18031926086E+02 -0.62885667238E+02 -0.42225000084E+02  0.77863394059E+02  0.00000000000E+00 0. -1.
         -1    1    3    3    0  502  0.19918875203E+03 -0.37483926884E+03 -0.52572965486E+03  0.67570134409E+03  0.00000000000E+00 0.  1.
         11    1    5    5    0    0  0.17005451277E+03  0.24797815029E+03 -0.49218906925E+03  0.57676839391E+03  0.00000000000E+00 0.  1.
        -11    1    5    5    0    0  0.12279549974E+03  0.13695552830E+03 -0.45555978236E+03  0.49129448073E+03  0.00000000000E+00 0. -1.
          3    1    6    6  503    0 -0.13832235864E+03  0.37610309522E+02 -0.14168954525E+03  0.20155281570E+03  0.00000000000E+00 0. -1.
         -3    1    6    6    0  503 -0.37174833199E+03  0.15180947965E+02 -0.56804202496E+03  0.67904272740E+03  0.00000000000E+00 0.  1.
<mgrwt>
<rscale>  0 0.15327911E+04</rscale>
<asrwt>0</asrwt>
<pdfrwt beam="1">  1        2 0.37905063E+00 0.15327911E+04</pdfrwt>
<pdfrwt beam="2">  1       -1 0.36676007E-01 0.15327911E+04</pdfrwt>
<totfact> 0.28666922E+01</totfact>
</mgrwt>
</event>
<event>
12    6  0.1542110E-007  0.2395794E+04  0.7818608E-02  0.8441080E-01
          2   -1    0    0  501    0  0.00000000000E+00  0.00000000000E+00  0.21568894490E+04  0.21568894490E+04  0.00000000000E+00 0. -1.
         -1   -1    0    0    0  501 -0.00000000000E+00 -0.00000000000E+00 -0.66529001701E+03  0.66529001701E+03  0.00000000000E+00 0.  1.
         24    2    1    2    0    0  0.63442330614E+03  0.77110900283E+03  0.36054050944E+03  0.10647528160E+04  0.81283913606E+02 0.  0.
        254    2    1    2    0    0 -0.63442330614E+03 -0.77110900283E+03  0.11310589226E+04  0.17574266500E+04  0.90119482815E+03 0.  0.
         23    2    4    4    0    0 -0.20251501721E+03 -0.62709624566E+03  0.11055751929E+04  0.12901781837E+04  0.89449455019E+02 0.  0.
         23    2    4    4    0    0 -0.43190828893E+03 -0.14401275717E+03  0.25483729665E+02  0.46724846633E+03  0.10191793040E+03 0.  0.
          2    1    3    3  502    0  0.54786129455E+03  0.66940559997E+03  0.28203708407E+03  0.90983557423E+03  0.00000000000E+00 0. -1.
         -1    1    3    3    0  502  0.86562011585E+02  0.10170340286E+03  0.78503425366E+02  0.15491724177E+03  0.00000000000E+00 0.  1.
         11    1    5    5    0    0 -0.10292776196E+03 -0.26951892900E+03  0.56555337073E+03  0.63488990574E+03  0.00000000000E+00 0.  1.
        -11    1    5    5    0    0 -0.99587255252E+02 -0.35757731666E+03  0.54002182218E+03  0.65528827796E+03  0.00000000000E+00 0. -1.
          3    1    6    6  503    0 -0.29677362591E+03 -0.72969786077E+02 -0.24525798615E+02  0.30659531880E+03  0.00000000000E+00 0. -1.
         -3    1    6    6    0  503 -0.13513466302E+03 -0.71042971096E+02  0.50009528279E+02  0.16065314753E+03  0.00000000000E+00 0.  1.
<mgrwt>
<rscale>  0 0.23957938E+04</rscale>
<asrwt>0</asrwt>
<pdfrwt beam="1">  1        2 0.33182914E+00 0.23957938E+04</pdfrwt>
<pdfrwt beam="2">  1       -1 0.10235231E+00 0.23957938E+04</pdfrwt>
<totfact> 0.50480065E+00</totfact>
</mgrwt>
</event>
<event>
12    6  0.1542110E-007  0.1705614E+04  0.7818608E-02  0.8758169E-01
          2   -1    0    0  501    0  0.00000000000E+00  0.00000000000E+00  0.81647352241E+03  0.81647352241E+03  0.00000000000E+00 0. -1.
         -1   -1    0    0    0  501 -0.00000000000E+00 -0.00000000000E+00 -0.89075724961E+03  0.89075724961E+03  0.00000000000E+00 0.  1.
         24    2    1    2    0    0 -0.11764643344E+03  0.50087459326E+03  0.31249140812E+03  0.60730251558E+03  0.80308304695E+02 0.  0.
        254    2    1    2    0    0  0.11764643344E+03 -0.50087459326E+03 -0.38677513533E+03  0.10999282564E+04  0.89192551401E+03 0.  0.
         23    2    4    4    0    0 -0.15590066194E+03  0.82682800889E+02 -0.40110913680E+03  0.44842585550E+03  0.95161685042E+02 0.  0.
         23    2    4    4    0    0  0.27354709538E+03 -0.58355739415E+03  0.14334001475E+02  0.65150240094E+03  0.94247913387E+02 0.  0.
          2    1    3    3  502    0 -0.22495041000E+02  0.62321774110E+02  0.73199550420E+02  0.98732996406E+02  0.00000000000E+00 0. -1.
         -1    1    3    3    0  502 -0.95151392441E+02  0.43855281915E+03  0.23929185771E+03  0.50856951917E+03  0.00000000000E+00 0.  1.
         11    1    5    5    0    0 -0.58110777727E+02  0.81656648856E+02 -0.23806509382E+03  0.25830148990E+03  0.00000000000E+00 0. -1.
        -11    1    5    5    0    0 -0.97789884215E+02  0.10261520332E+01 -0.16304404298E+03  0.19012436560E+03  0.00000000000E+00 0.  1.
          4    1    6    6  503    0  0.23799852408E+03 -0.50040280856E+03 -0.20737617358E+02  0.55450547071E+03  0.00000000000E+00 0. -1.
         -4    1    6    6    0  503  0.35548571305E+02 -0.83154585590E+02  0.35071618833E+02  0.96996930230E+02  0.00000000000E+00 0.  1.
<mgrwt>
<rscale>  0 0.17056139E+04</rscale>
<asrwt>0</asrwt>
<pdfrwt beam="1">  1        2 0.12561131E+00 0.17056139E+04</pdfrwt>
<pdfrwt beam="2">  1       -1 0.13703958E+00 0.17056139E+04</pdfrwt>
<totfact> 0.16130800E+01</totfact>
</mgrwt>
</event>
<event>
12    6  0.1542110E-007  0.2123159E+04  0.7818608E-02  0.8551110E-01
         -1   -1    0    0    0  501 -0.00000000000E+00  0.00000000000E+00  0.13003329822E+04  0.13003329822E+04  0.00000000000E+00 0.  1.
          2   -1    0    0  501    0  0.00000000000E+00 -0.00000000000E+00 -0.86666327830E+03  0.86666327830E+03  0.00000000000E+00 0. -1.
         24    2    1    2    0    0  0.62512516420E+03  0.20959540573E+03  0.75240757329E+03  0.10035339678E+04  0.79066827435E+02 0.  0.
        254    2    1    2    0    0 -0.62512516420E+03 -0.20959540573E+03 -0.31873786942E+03  0.11634622927E+04  0.90406801294E+03 0.  0.
         23    2    4    4    0    0 -0.49153591714E+03  0.29532856415E+03 -0.22753140492E+03  0.62354545827E+03  0.90619422098E+02 0.  0.
         23    2    4    4    0    0 -0.13358924706E+03 -0.50492396988E+03 -0.91206464500E+02  0.53991683439E+03  0.10196698778E+03 0.  0.
          4    1    3    3  502    0  0.14252141637E+03  0.63221727624E+02  0.22573307971E+03  0.27434424405E+03  0.00000000000E+00 0. -1.
         -3    1    3    3    0  502  0.48260374783E+03  0.14637367810E+03  0.52667449358E+03  0.72918972377E+03  0.00000000000E+00 0.  1.
         11    1    5    5    0    0 -0.52774402466E+02  0.48024436020E+02 -0.11846658278E+01  0.71364469057E+02  0.00000000000E+00 0.  1.
        -11    1    5    5    0    0 -0.43876151468E+03  0.24730412813E+03 -0.22634673909E+03  0.55218098922E+03  0.00000000000E+00 0. -1.
          4    1    6    6  503    0 -0.74028608712E+01 -0.60904541623E+02 -0.44840226509E+02  0.75992180208E+02  0.00000000000E+00 0.  1.
         -4    1    6    6    0  503 -0.12618638619E+03 -0.44401942826E+03 -0.46366237991E+02  0.46392465418E+03  0.00000000000E+00 0. -1.
<mgrwt>
<rscale>  0 0.21231588E+04</rscale>
<asrwt>0</asrwt>
<pdfrwt beam="1">  1        2 0.13333281E+00 0.21231588E+04</pdfrwt>
<pdfrwt beam="2">  1       -1 0.20005123E+00 0.21231588E+04</pdfrwt>
<totfact> 0.48765612E+00</totfact>
</mgrwt>
</event>
<event>
12    6  0.1542110E-007  0.1846571E+04  0.7818608E-02  0.8681918E-01
          2   -1    0    0  501    0  0.00000000000E+00  0.00000000000E+00  0.85181586549E+03  0.85181586549E+03  0.00000000000E+00 0. -1.
         -1   -1    0    0    0  501 -0.00000000000E+00 -0.00000000000E+00 -0.10007513681E+04  0.10007513681E+04  0.00000000000E+00 0.  1.
         24    2    1    2    0    0  0.40782525549E+03 -0.51052310451E+03 -0.30641485247E+03  0.72591811969E+03  0.78177844855E+02 0.  0.
        254    2    1    2    0    0 -0.40782525549E+03  0.51052310451E+03  0.15747934983E+03  0.11266491139E+04  0.90420307510E+03 0.  0.
         23    2    4    4    0    0 -0.99596806914E+02 -0.24492395495E+02  0.42448007647E+03  0.44775090639E+03  0.98884465249E+02 0.  0.
         23    2    4    4    0    0 -0.30822844858E+03  0.53501550000E+03 -0.26700072663E+03  0.67889820753E+03  0.91471451353E+02 0.  0.
          4    1    3    3  502    0  0.25893008250E+02 -0.67933132808E+02 -0.45253246015E+02  0.85634191094E+02  0.00000000000E+00 0. -1.
         -3    1    3    3    0  502  0.38193224724E+03 -0.44258997170E+03 -0.26116160645E+03  0.64028392859E+03  0.00000000000E+00 0.  1.
         11    1    5    5    0    0 -0.10236348228E+03 -0.51034208250E+02  0.36630108797E+03  0.38374374257E+03  0.00000000000E+00 0.  1.
        -11    1    5    5    0    0  0.27666753631E+01  0.26541812755E+02  0.58178988495E+02  0.64007163812E+02  0.00000000000E+00 0. -1.
          4    1    6    6  503    0 -0.13626455164E+03  0.29832852963E+03 -0.17764217607E+03  0.37299421221E+03  0.00000000000E+00 0. -1.
         -4    1    6    6    0  503 -0.17196389694E+03  0.23668697038E+03 -0.89358550564E+02  0.30590399532E+03  0.00000000000E+00 0.  1.
<mgrwt>
<rscale>  0 0.18465708E+04</rscale>
<asrwt>0</asrwt>
<pdfrwt beam="1">  1        2 0.13104859E+00 0.18465708E+04</pdfrwt>
<pdfrwt beam="2">  1       -1 0.15396175E+00 0.18465708E+04</pdfrwt>
<totfact> 0.11042560E+01</totfact>
</mgrwt>
</event>
<event>
12    6  0.1542110E-007  0.1410345E+04  0.7818608E-02  0.8946365E-01
          2   -1    0    0  501    0  0.00000000000E+00  0.00000000000E+00  0.17392891911E+04  0.17392891911E+04  0.00000000000E+00 0. -1.
         -1   -1    0    0    0  501 -0.00000000000E+00 -0.00000000000E+00 -0.28590295256E+03  0.28590295256E+03  0.00000000000E+00 0.  1.
         24    2    1    2    0    0 -0.15592041953E+03 -0.65612231163E+02 -0.10600423420E+03  0.21656047199E+03  0.83936870660E+02 0.  0.
        254    2    1    2    0    0  0.15592041953E+03  0.65612231163E+02  0.15593904727E+04  0.18086316717E+04  0.90046306709E+03 0.  0.
         23    2    4    4    0    0  0.28397151164E+03 -0.86097056390E+02  0.15596459273E+04  0.15903529937E+04  0.93138088847E+02 0.  0.
         23    2    4    4    0    0 -0.12805109211E+03  0.15170928755E+03 -0.25545454977E+00  0.21827867795E+03  0.90734369824E+02 0.  0.
          4    1    3    3  502    0  0.76022839408E+01  0.44045297427E+01  0.12057375273E+01  0.88683936739E+01  0.00000000000E+00 0. -1.
         -3    1    3    3    0  502 -0.16352270347E+03 -0.70016760906E+02 -0.10720997172E+03  0.20769207831E+03  0.00000000000E+00 0.  1.
         11    1    5    5    0    0  0.25504502550E+02  0.12023030555E+02  0.26630452384E+03  0.26779307746E+03  0.00000000000E+00 0.  1.
        -11    1    5    5    0    0  0.25846700909E+03 -0.98120086945E+02  0.12933414034E+04  0.13225599163E+04  0.00000000000E+00 0. -1.
          3    1    6    6  503    0 -0.26615796785E+02  0.10016196327E+03  0.95408858931E+01  0.10407616455E+03  0.00000000000E+00 0. -1.
         -3    1    6    6    0  503 -0.10143529533E+03  0.51547324285E+02 -0.97963404428E+01  0.11420251339E+03  0.00000000000E+00 0.  1.
<mgrwt>
<rscale>  0 0.14103445E+04</rscale>
<asrwt>0</asrwt>
<pdfrwt beam="1">  1        2 0.26758294E+00 0.14103445E+04</pdfrwt>
<pdfrwt beam="2">  1       -1 0.43985071E-01 0.14103445E+04</pdfrwt>
<totfact> 0.52805077E+01</totfact>
</mgrwt>
</event>
<event>
12    6  0.1542110E-007  0.1723973E+04  0.7818608E-02  0.8747809E-01
          2   -1    0    0  501    0  0.00000000000E+00  0.00000000000E+00  0.24176102100E+04  0.24176102100E+04  0.00000000000E+00 0. -1.
         -1   -1    0    0    0  501 -0.00000000000E+00 -0.00000000000E+00 -0.30733673475E+03  0.30733673475E+03  0.00000000000E+00 0.  1.
         24    2    1    2    0    0 -0.29963760750E+03 -0.53598211907E+03  0.93817601393E+03  0.11236867908E+04  0.73744442708E+02 0.  0.
        254    2    1    2    0    0  0.29963760750E+03  0.53598211907E+03  0.11720974613E+04  0.16012601540E+04  0.90175500781E+03 0.  0.
         23    2    4    4    0    0  0.30453427075E+03 -0.11573016145E+03  0.74207516126E+03  0.81538981878E+03  0.89724128740E+02 0.  0.
         23    2    4    4    0    0 -0.48966632479E+01  0.65171228052E+03  0.43002230004E+03  0.78587033519E+03  0.88995119602E+02 0.  0.
          4    1    3    3  502    0 -0.47786362745E+02 -0.13131895552E+03  0.25308514277E+03  0.28910256663E+03  0.00000000000E+00 0. -1.
         -3    1    3    3    0  502 -0.25185124475E+03 -0.40466316355E+03  0.68509087117E+03  0.83458422414E+03  0.00000000000E+00 0.  1.
         11    1    5    5    0    0  0.26316080731E+03 -0.71842803402E+02  0.54774278230E+03  0.61191270167E+03  0.00000000000E+00 0. -1.
        -11    1    5    5    0    0  0.41373463433E+02 -0.43887358049E+02  0.19433237896E+03  0.20347711711E+03  0.00000000000E+00 0.  1.
          2    1    6    6  503    0  0.20329516172E+01  0.63511927067E+03  0.39912372072E+03  0.75012023391E+03  0.00000000000E+00 0. -1.
         -2    1    6    6    0  503 -0.69296148651E+01  0.16593009845E+02  0.30898579323E+02  0.35750101287E+02  0.00000000000E+00 0.  1.
<mgrwt>
<rscale>  0 0.17239727E+04</rscale>
<asrwt>0</asrwt>
<pdfrwt beam="1">  1        2 0.37194002E+00 0.17239727E+04</pdfrwt>
<pdfrwt beam="2">  1       -1 0.47282576E-01 0.17239727E+04</pdfrwt>
<totfact> 0.18768116E+01</totfact>
</mgrwt>
</event>
<event>
12    6  0.1542110E-007  0.1991361E+04  0.7818608E-02  0.8610670E-01
          2   -1    0    0  501    0  0.00000000000E+00  0.00000000000E+00  0.13934325116E+04  0.13934325116E+04  0.00000000000E+00 0. -1.
         -1   -1    0    0    0  501 -0.00000000000E+00 -0.00000000000E+00 -0.71146589974E+03  0.71146589974E+03  0.00000000000E+00 0.  1.
         24    2    1    2    0    0 -0.10068423298E+03 -0.36833984369E+03  0.10027336033E+04  0.10758986405E+04  0.79193751810E+02 0.  0.
        254    2    1    2    0    0  0.10068423298E+03  0.36833984369E+03 -0.32076699144E+03  0.10289997708E+04  0.90007639136E+03 0.  0.
         23    2    4    4    0    0 -0.17042078476E+03  0.48083269267E+03  0.77662174855E+02  0.52580266979E+03  0.10096391401E+03 0.  0.
         23    2    4    4    0    0  0.27110501774E+03 -0.11249284898E+03 -0.39842916629E+03  0.50319710101E+03  0.91153443149E+02 0.  0.
          4    1    3    3  502    0 -0.83117101580E+02 -0.15482425266E+03  0.45688377214E+03  0.48951178028E+03  0.00000000000E+00 0. -1.
         -3    1    3    3    0  502 -0.17567131397E+02 -0.21351559104E+03  0.54584983115E+03  0.58638686026E+03  0.00000000000E+00 0.  1.
         11    1    5    5    0    0 -0.11066723429E+03  0.34379965878E+03  0.89750972394E+01  0.36128381433E+03  0.00000000000E+00 0. -1.
        -11    1    5    5    0    0 -0.59753550477E+02  0.13703303389E+03  0.68687077615E+02  0.16451885546E+03  0.00000000000E+00 0.  1.
          2    1    6    6  503    0  0.71525121094E+02 -0.66016762135E+02 -0.87915419966E+02  0.13116088174E+03  0.00000000000E+00 0. -1.
         -2    1    6    6    0  503  0.19957989665E+03 -0.46476086843E+02 -0.31051374633E+03  0.37203621927E+03  0.00000000000E+00 0.  1.
<mgrwt>
<rscale>  0 0.19913611E+04</rscale>
<asrwt>0</asrwt>
<pdfrwt beam="1">  1        2 0.21437423E+00 0.19913611E+04</pdfrwt>
<pdfrwt beam="2">  1       -1 0.10945629E+00 0.19913611E+04</pdfrwt>
<totfact> 0.11942878E+01</totfact>
</mgrwt>
</event>
<event>
12    6  0.1542110E-007  0.2138290E+04  0.7818608E-02  0.8544562E-01
          2   -1    0    0  501    0  0.00000000000E+00  0.00000000000E+00  0.22764960545E+04  0.22764960545E+04  0.00000000000E+00 0. -1.
         -1   -1    0    0    0  501 -0.00000000000E+00 -0.00000000000E+00 -0.50211839736E+03  0.50211839736E+03  0.00000000000E+00 0.  1.
         24    2    1    2    0    0  0.79817210016E+03 -0.23510350161E+03  0.37844644466E+03  0.91786525212E+03  0.83081596206E+02 0.  0.
        254    2    1    2    0    0 -0.79817210016E+03  0.23510350161E+03  0.13959312124E+04  0.18607491997E+04  0.90631742585E+03 0.  0.
         23    2    4    4    0    0 -0.39599772780E+03  0.45258596461E+03  0.12190794239E+04  0.13620115998E+04  0.85280128614E+02 0.  0.
         23    2    4    4    0    0 -0.40217437236E+03 -0.21748246299E+03  0.17685178853E+03  0.49873759993E+03  0.91759419083E+02 0.  0.
          4    1    3    3  502    0  0.35997607846E+03 -0.10133165871E+03  0.21535905821E+03  0.43154421103E+03  0.00000000000E+00 0. -1.
         -3    1    3    3    0  502  0.43819602170E+03 -0.13377184290E+03  0.16308738645E+03  0.48632104109E+03  0.00000000000E+00 0.  1.
         11    1    5    5    0    0 -0.35225187575E+03  0.41992794973E+03  0.10517381321E+04  0.11859907105E+04  0.00000000000E+00 0. -1.
        -11    1    5    5    0    0 -0.43745852048E+02  0.32658014877E+02  0.16734129184E+03  0.17602088928E+03  0.00000000000E+00 0.  1.
          1    1    6    6  503    0 -0.37921073855E+03 -0.20237941566E+03  0.13858632420E+03  0.45162415942E+03  0.00000000000E+00 0. -1.
         -1    1    6    6    0  503 -0.22963633805E+02 -0.15103047333E+02  0.38265464338E+02  0.47113440517E+02  0.00000000000E+00 0.  1.
<mgrwt>
<rscale>  0 0.21382896E+04</rscale>
<asrwt>0</asrwt>
<pdfrwt beam="1">  1        2 0.35023016E+00 0.21382896E+04</pdfrwt>
<pdfrwt beam="2">  1       -1 0.77248985E-01 0.21382896E+04</pdfrwt>
<totfact> 0.82126339E+00</totfact>
</mgrwt>
</event>
<event>
12    6  0.1542110E-007  0.1744382E+04  0.7818608E-02  0.8736449E-01
         -1   -1    0    0    0  501 -0.00000000000E+00  0.00000000000E+00  0.33601620986E+03  0.33601620986E+03  0.00000000000E+00 0.  1.
          2   -1    0    0  501    0  0.00000000000E+00 -0.00000000000E+00 -0.22639286189E+04  0.22639286189E+04  0.00000000000E+00 0. -1.
         24    2    1    2    0    0  0.64338878352E+02  0.73816486638E+02  0.22970345610E+03  0.26184506828E+03  0.78808610370E+02 0.  0.
        254    2    1    2    0    0 -0.64338878352E+02 -0.73816486638E+02 -0.21576158652E+04  0.23380997605E+04  0.89544173650E+03 0.  0.
         23    2    4    4    0    0  0.14307993915E+03 -0.21427670362E+03 -0.14883793074E+03  0.31177038884E+03  0.93068098875E+02 0.  0.
         23    2    4    4    0    0 -0.20741881751E+03  0.14046021698E+03 -0.20087779344E+04  0.20263293717E+04  0.89834816180E+02 0.  0.
          2    1    3    3  502    0  0.35236244289E+02  0.99121092341E+01  0.15523171591E+03  0.15948896026E+03  0.00000000000E+00 0. -1.
         -1    1    3    3    0  502  0.29102634063E+02  0.63904377404E+02  0.74471740192E+02  0.10235610802E+03  0.00000000000E+00 0.  1.
         11    1    5    5    0    0  0.14427589786E+03 -0.14825521546E+03 -0.10085415000E+03  0.23014496124E+03  0.00000000000E+00 0. -1.
        -11    1    5    5    0    0 -0.11959587042E+01 -0.66021488165E+02 -0.47983780738E+02  0.81625427598E+02  0.00000000000E+00 0.  1.
          4    1    6    6  503    0 -0.18993689875E+03  0.85370574495E+02 -0.15932865392E+04  0.16068373149E+04  0.00000000000E+00 0. -1.
         -4    1    6    6    0  503 -0.17481918755E+02  0.55089642487E+02 -0.41549139520E+03  0.41949205676E+03  0.00000000000E+00 0.  1.
<mgrwt>
<rscale>  0 0.17443815E+04</rscale>
<asrwt>0</asrwt>
<pdfrwt beam="1">  1        2 0.34829672E+00 0.17443815E+04</pdfrwt>
<pdfrwt beam="2">  1       -1 0.51694801E-01 0.17443815E+04</pdfrwt>
<totfact> 0.19335762E+01</totfact>
</mgrwt>
</event>
<event>
12    6  0.1542110E-007  0.1256663E+04  0.7818608E-02  0.9064656E-01
         -1   -1    0    0    0  501 -0.00000000000E+00  0.00000000000E+00  0.11534036301E+04  0.11534036301E+04  0.00000000000E+00 0.  1.
          2   -1    0    0  501    0  0.00000000000E+00 -0.00000000000E+00 -0.34229169561E+03  0.34229169561E+03  0.00000000000E+00 0. -1.
         24    2    1    2    0    0 -0.11412518872E+03 -0.88379151350E+02  0.54273914381E+03  0.56754441601E+03  0.81886829358E+02 0.  0.
        254    2    1    2    0    0  0.11412518872E+03  0.88379151350E+02  0.26837279066E+03  0.92815090968E+03  0.87670104556E+03 0.  0.
         23    2    4    4    0    0  0.36530272674E+03  0.29318296908E+03  0.33729966460E+03  0.58445759465E+03  0.91745739303E+02 0.  0.
         23    2    4    4    0    0 -0.25117753802E+03 -0.20480381773E+03 -0.68926873943E+02  0.34369331504E+03  0.91320433011E+02 0.  0.
          4    1    3    3  502    0 -0.75008620000E+02 -0.94036203424E+02  0.33172064338E+03  0.35285646639E+03  0.00000000000E+00 0. -1.
         -3    1    3    3    0  502 -0.39116568716E+02  0.56570520740E+01  0.21101850043E+03  0.21468794962E+03  0.00000000000E+00 0.  1.
         11    1    5    5    0    0  0.67679435670E+02  0.10495914287E+03  0.97028646578E+02  0.15815020058E+03  0.00000000000E+00 0.  1.
        -11    1    5    5    0    0  0.29762329107E+03  0.18822382620E+03  0.24027101802E+03  0.42630739407E+03  0.00000000000E+00 0. -1.
          3    1    6    6  503    0 -0.25779527865E+03 -0.19203100496E+03 -0.70873561414E+02  0.32917681308E+03  0.00000000000E+00 0. -1.
         -3    1    6    6    0  503  0.66177406260E+01 -0.12772812769E+02  0.19466874715E+01  0.14516501959E+02  0.00000000000E+00 0.  1.
<mgrwt>
<rscale>  0 0.12566630E+04</rscale>
<asrwt>0</asrwt>
<pdfrwt beam="1">  1        2 0.52660262E-01 0.12566630E+04</pdfrwt>
<pdfrwt beam="2">  1       -1 0.17744671E+00 0.12566630E+04</pdfrwt>
<totfact> 0.23156646E+01</totfact>
</mgrwt>
</event>
<event>
12    6  0.1542110E-007  0.1819793E+04  0.7818608E-02  0.8695844E-01
          2   -1    0    0  501    0  0.00000000000E+00  0.00000000000E+00  0.21643658402E+04  0.21643658402E+04  0.00000000000E+00 0. -1.
         -1   -1    0    0    0  501 -0.00000000000E+00 -0.00000000000E+00 -0.38251929434E+03  0.38251929434E+03  0.00000000000E+00 0.  1.
         24    2    1    2    0    0 -0.21112613648E+03  0.22184123560E+03 -0.21240489952E+03  0.38166275650E+03  0.82236482434E+02 0.  0.
        254    2    1    2    0    0  0.21112613648E+03 -0.22184123560E+03  0.19942514454E+04  0.21652223780E+04  0.78572344981E+03 0.  0.
         23    2    4    4    0    0 -0.24738891724E+03 -0.11830457421E+03  0.35731727520E+03  0.45973168101E+03  0.92088732867E+02 0.  0.
         23    2    4    4    0    0  0.45851505371E+03 -0.10353666139E+03  0.16369341702E+04  0.17054906970E+04  0.90493896806E+02 0.  0.
          2    1    3    3  502    0 -0.34941136984E+02  0.59851622296E+02 -0.13822057030E+02  0.70669293231E+02  0.00000000000E+00 0. -1.
         -3    1    3    3    0  502 -0.17618499949E+03  0.16198961331E+03 -0.19858284249E+03  0.31099346327E+03  0.00000000000E+00 0.  1.
         11    1    5    5    0    0 -0.22382823994E+03 -0.68895556410E+02  0.29810304918E+03  0.37909247765E+03  0.00000000000E+00 0. -1.
        -11    1    5    5    0    0 -0.23560677299E+02 -0.49409017801E+02  0.59214226026E+02  0.80639203361E+02  0.00000000000E+00 0.  1.
          4    1    6    6  503    0  0.32714272455E+03 -0.88320720201E+02  0.10297283364E+04  0.10840495185E+04  0.00000000000E+00 0. -1.
         -4    1    6    6    0  503  0.13137232916E+03 -0.15215941192E+02  0.60720583376E+03  0.62144117847E+03  0.00000000000E+00 0.  1.
<mgrwt>
<rscale>  0 0.18197931E+04</rscale>
<asrwt>0</asrwt>
<pdfrwt beam="1">  1        2 0.33297935E+00 0.18197931E+04</pdfrwt>
<pdfrwt beam="2">  1       -1 0.58849123E-01 0.18197931E+04</pdfrwt>
<totfact> 0.16989392E+01</totfact>
</mgrwt>
</event>
<event>
12    6  0.1542110E-007  0.2549263E+04  0.7818608E-02  0.8385643E-01
          2   -1    0    0  501    0  0.00000000000E+00  0.00000000000E+00  0.16498068690E+04  0.16498068690E+04  0.00000000000E+00 0. -1.
         -1   -1    0    0    0  501 -0.00000000000E+00 -0.00000000000E+00 -0.98477292903E+03  0.98477292903E+03  0.00000000000E+00 0.  1.
         24    2    1    2    0    0 -0.45882906942E+03 -0.82126070294E+02 -0.75446041723E+03  0.89041343130E+03  0.79729236205E+02 0.  0.
        254    2    1    2    0    0  0.45882906942E+03  0.82126070294E+02  0.14194943572E+04  0.17441663668E+04  0.89993515229E+03 0.  0.
         23    2    4    4    0    0  0.61429506395E+03  0.31515283316E+03  0.82814882933E+03  0.10819295790E+04  0.89785280507E+02 0.  0.
         23    2    4    4    0    0 -0.15546599453E+03 -0.23302676287E+03  0.59134552791E+03  0.66223678773E+03  0.10196510179E+03 0.  0.
          4    1    3    3  502    0 -0.57450091018E+02  0.16046915395E+02 -0.98588715327E+02  0.11522912497E+03  0.00000000000E+00 0. -1.
         -3    1    3    3    0  502 -0.40137897840E+03 -0.98172985689E+02 -0.65587170190E+03  0.77518430633E+03  0.00000000000E+00 0.  1.
         11    1    5    5    0    0  0.55406299893E+03  0.25608253528E+03  0.74941725759E+03  0.96653520248E+03  0.00000000000E+00 0.  1.
        -11    1    5    5    0    0  0.60232065027E+02  0.59070297886E+02  0.78731571737E+02  0.11539437654E+03  0.00000000000E+00 0. -1.
          3    1    6    6  503    0 -0.37532060057E+02 -0.88008914904E+02  0.31024307552E+03  0.32466134748E+03  0.00000000000E+00 0. -1.
         -3    1    6    6    0  503 -0.11793393447E+03 -0.14501784797E+03  0.28110245238E+03  0.33757544026E+03  0.00000000000E+00 0.  1.
<mgrwt>
<rscale>  0 0.25492628E+04</rscale>
<asrwt>0</asrwt>
<pdfrwt beam="1">  1        2 0.25381644E+00 0.25492628E+04</pdfrwt>
<pdfrwt beam="2">  1       -1 0.15150353E+00 0.25492628E+04</pdfrwt>
<totfact> 0.35926726E+00</totfact>
</mgrwt>
</event>
<event>
12    6  0.1542110E-007  0.1588008E+04  0.7818608E-02  0.8827949E-01
         -1   -1    0    0    0  501 -0.00000000000E+00  0.00000000000E+00  0.49969749979E+03  0.49969749979E+03  0.00000000000E+00 0.  1.
          2   -1    0    0  501    0  0.00000000000E+00 -0.00000000000E+00 -0.12616472845E+04  0.12616472845E+04  0.00000000000E+00 0. -1.
         24    2    1    2    0    0  0.11536871377E+03  0.94001002123E+02  0.31947138121E+03  0.36131277889E+03  0.79616783749E+02 0.  0.
        254    2    1    2    0    0 -0.11536871377E+03 -0.94001002123E+02 -0.10814211659E+04  0.14000320054E+04  0.87662520468E+03 0.  0.
         23    2    4    4    0    0 -0.41131925180E+03  0.47599840154E+01 -0.96758925827E+03  0.10558399521E+04  0.96761807296E+02 0.  0.
         23    2    4    4    0    0  0.29595053803E+03 -0.98760986139E+02 -0.11383190761E+03  0.34419205327E+03  0.90388124208E+02 0.  0.
          4    1    3    3  502    0  0.56993365804E+02 -0.12966544292E+01  0.10988545366E+03  0.12379312576E+03  0.00000000000E+00 0. -1.
         -3    1    3    3    0  502  0.58375347971E+02  0.95297656553E+02  0.20958592755E+03  0.23751965313E+03  0.00000000000E+00 0.  1.
         11    1    5    5    0    0 -0.14305769859E+02 -0.34696974701E+01 -0.10753797861E+03  0.10854082501E+03  0.00000000000E+00 0.  1.
        -11    1    5    5    0    0 -0.39701348195E+03  0.82296814855E+01 -0.86005127966E+03  0.94729912707E+03  0.00000000000E+00 0. -1.
          1    1    6    6  503    0  0.12881091175E+03 -0.35394935823E+02 -0.96111754909E+02  0.16456768182E+03  0.00000000000E+00 0. -1.
         -1    1    6    6    0  503  0.16713962628E+03 -0.63366050316E+02 -0.17720152703E+02  0.17962437145E+03  0.00000000000E+00 0.  1.
<mgrwt>
<rscale>  0 0.15880075E+04</rscale>
<asrwt>0</asrwt>
<pdfrwt beam="1">  1        2 0.19409958E+00 0.15880075E+04</pdfrwt>
<pdfrwt beam="2">  1       -1 0.76876540E-01 0.15880075E+04</pdfrwt>
<totfact> 0.32340108E+01</totfact>
</mgrwt>
</event>
<event>
12    6  0.1542110E-007  0.1836539E+04  0.7818608E-02  0.8687106E-01
         -1   -1    0    0    0  501 -0.00000000000E+00  0.00000000000E+00  0.67798103558E+03  0.67798103558E+03  0.00000000000E+00 0.  1.
          2   -1    0    0  501    0  0.00000000000E+00 -0.00000000000E+00 -0.12437200452E+04  0.12437200452E+04  0.00000000000E+00 0. -1.
         24    2    1    2    0    0 -0.41422630287E+03  0.31675216466E+03  0.26642865417E+03  0.59089124283E+03  0.79075086349E+02 0.  0.
        254    2    1    2    0    0  0.41422630287E+03 -0.31675216466E+03 -0.83216766382E+03  0.13308098380E+04  0.89812941181E+03 0.  0.
         23    2    4    4    0    0  0.38673624749E+03 -0.35065703071E+03 -0.39288674103E+02  0.53157500165E+03  0.92212277700E+02 0.  0.
         23    2    4    4    0    0  0.27490055385E+02  0.33904866050E+02 -0.79287898971E+03  0.79923483633E+03  0.90631055314E+02 0.  0.
          4    1    3    3  502    0 -0.54830543764E+02  0.53174188207E+02  0.70840922036E+02  0.10417446451E+03  0.00000000000E+00 0. -1.
         -3    1    3    3    0  502 -0.35939575911E+03  0.26357797646E+03  0.19558773213E+03  0.48671677832E+03  0.00000000000E+00 0.  1.
         11    1    5    5    0    0  0.22689291608E+03 -0.16485328057E+03  0.13783501961E+02  0.28079705199E+03  0.00000000000E+00 0. -1.
        -11    1    5    5    0    0  0.15984333141E+03 -0.18580375014E+03 -0.53072176063E+02  0.25077794966E+03  0.00000000000E+00 0.  1.
          2    1    6    6  503    0  0.19721508384E+02 -0.27554659275E+02 -0.17441755277E+03  0.17767858581E+03  0.00000000000E+00 0. -1.
         -2    1    6    6    0  503  0.77685470010E+01  0.61459525325E+02 -0.61846143695E+03  0.62155625052E+03  0.00000000000E+00 0.  1.
<mgrwt>
<rscale>  0 0.18365387E+04</rscale>
<asrwt>0</asrwt>
<pdfrwt beam="1">  1        2 0.19134154E+00 0.18365387E+04</pdfrwt>
<pdfrwt beam="2">  1       -1 0.10430478E+00 0.18365387E+04</pdfrwt>
<totfact> 0.16555589E+01</totfact>
</mgrwt>
</event>
<event>
12    6  0.1542110E-007  0.2324285E+04  0.7818608E-02  0.8468407E-01
         -1   -1    0    0    0  501 -0.00000000000E+00  0.00000000000E+00  0.10849489504E+04  0.10849489504E+04  0.00000000000E+00 0.  1.
          2   -1    0    0  501    0  0.00000000000E+00 -0.00000000000E+00 -0.12448285224E+04  0.12448285224E+04  0.00000000000E+00 0. -1.
         24    2    1    2    0    0 -0.70652684506E+03 -0.13285537263E+03  0.60706788135E+03  0.94435970282E+03  0.80331207587E+02 0.  0.
        254    2    1    2    0    0  0.70652684506E+03  0.13285537263E+03 -0.76694745341E+03  0.13854177700E+04  0.90240970086E+03 0.  0.
         23    2    4    4    0    0  0.71328768629E+03 -0.24774047747E+03 -0.53131243320E+03  0.92815884318E+03  0.95032988500E+02 0.  0.
         23    2    4    4    0    0 -0.67608412283E+01  0.38059585010E+03 -0.23563502021E+03  0.45725892679E+03  0.93074987471E+02 0.  0.
          2    1    3    3  502    0 -0.27718568810E+02 -0.21568182610E+02  0.23087950036E+02  0.42030453184E+02  0.00000000000E+00 0. -1.
         -1    1    3    3    0  502 -0.67880827625E+03 -0.11128719002E+03  0.58397993131E+03  0.90232924964E+03  0.00000000000E+00 0.  1.
         11    1    5    5    0    0  0.31049900092E+02  0.85054473006E+01 -0.19889957172E+02  0.37842427589E+02  0.00000000000E+00 0. -1.
        -11    1    5    5    0    0  0.68223778620E+03 -0.25624592477E+03 -0.51142247603E+03  0.89031641559E+03  0.00000000000E+00 0.  1.
          2    1    6    6  503    0 -0.36459694624E+02  0.19982551148E+03 -0.16202294564E+03  0.25982874992E+03  0.00000000000E+00 0. -1.
         -2    1    6    6    0  503  0.29698853395E+02  0.18077033861E+03 -0.73612074573E+02  0.19743017687E+03  0.00000000000E+00 0.  1.
<mgrwt>
<rscale>  0 0.23242852E+04</rscale>
<asrwt>0</asrwt>
<pdfrwt beam="1">  1        2 0.19151208E+00 0.23242852E+04</pdfrwt>
<pdfrwt beam="2">  1       -1 0.16691522E+00 0.23242852E+04</pdfrwt>
<totfact> 0.47640063E+00</totfact>
</mgrwt>
</event>
<event>
12    6  0.1542110E-007  0.5680742E+04  0.7818608E-02  0.7731297E-01
         -1   -1    0    0    0  501 -0.00000000000E+00  0.00000000000E+00  0.18116907855E+04  0.18116907855E+04  0.00000000000E+00 0.  1.
          2   -1    0    0  501    0  0.00000000000E+00 -0.00000000000E+00 -0.44531370530E+04  0.44531370530E+04  0.00000000000E+00 0. -1.
         24    2    1    2    0    0  0.91929226773E+03  0.83856126965E+03 -0.40194054317E+04  0.42083833759E+04  0.81162416302E+02 0.  0.
        254    2    1    2    0    0 -0.91929226773E+03 -0.83856126965E+03  0.13779591642E+04  0.20564444627E+04  0.88425623753E+03 0.  0.
         23    2    4    4    0    0 -0.40282224152E+03 -0.93862281187E+02  0.23504244235E+02  0.42428588340E+03  0.91597899882E+02 0.  0.
         23    2    4    4    0    0 -0.51647002621E+03 -0.74469898846E+03  0.13544549199E+04  0.16321585793E+04  0.89864489494E+02 0.  0.
          2    1    3    3  502    0  0.61148344169E+03  0.50756871732E+03 -0.25211854488E+04  0.26434662982E+04  0.00000000000E+00 0. -1.
         -1    1    3    3    0  502  0.30780882604E+03  0.33099255233E+03 -0.14982199829E+04  0.15649170777E+04  0.00000000000E+00 0.  1.
         11    1    5    5    0    0 -0.33537271412E+02 -0.11142158911E+02 -0.24233708773E+02  0.42850541652E+02  0.00000000000E+00 0. -1.
        -11    1    5    5    0    0 -0.36928497011E+03 -0.82720122276E+02  0.47737953008E+02  0.38143534175E+03  0.00000000000E+00 0.  1.
          4    1    6    6  503    0 -0.25240925378E+03 -0.28650552437E+03  0.56032137910E+03  0.67805301766E+03  0.00000000000E+00 0. -1.
         -4    1    6    6    0  503 -0.26406077243E+03 -0.45819346409E+03  0.79413354084E+03  0.95410556164E+03  0.00000000000E+00 0.  1.
<mgrwt>
<rscale>  0 0.56807420E+04</rscale>
<asrwt>0</asrwt>
<pdfrwt beam="1">  1        2 0.68509800E+00 0.56807420E+04</pdfrwt>
<pdfrwt beam="2">  1       -1 0.27872166E+00 0.56807420E+04</pdfrwt>
<totfact> 0.48032829E-03</totfact>
</mgrwt>
</event>
<event>
12    6  0.1542110E-007  0.3248015E+04  0.7818608E-02  0.8176250E-01
          2   -1    0    0  501    0  0.00000000000E+00  0.00000000000E+00  0.24990805632E+04  0.24990805632E+04  0.00000000000E+00 0. -1.
         -1   -1    0    0    0  501 -0.00000000000E+00 -0.00000000000E+00 -0.10553485236E+04  0.10553485236E+04  0.00000000000E+00 0.  1.
         24    2    1    2    0    0  0.14052034105E+04  0.36640171168E+03  0.26331252741E+03  0.14782295108E+04  0.83559322267E+02 0.  0.
        254    2    1    2    0    0 -0.14052034105E+04 -0.36640171168E+03  0.11804195122E+04  0.20761995759E+04  0.89909266215E+03 0.  0.
         23    2    4    4    0    0 -0.40704780596E+02 -0.22106838184E+03 -0.26314819199E+02  0.24655781846E+03  0.97827294369E+02 0.  0.
         23    2    4    4    0    0 -0.13644986299E+04 -0.14533332984E+03  0.12067343314E+04  0.18296417575E+04  0.91667476988E+02 0.  0.
          2    1    3    3  502    0  0.11417156593E+04  0.32405277849E+03  0.23508150351E+03  0.12098711350E+04  0.00000000000E+00 0. -1.
         -1    1    3    3    0  502  0.26348775118E+03  0.42348933190E+02  0.28231023903E+02  0.26835837582E+03  0.00000000000E+00 0.  1.
         11    1    5    5    0    0  0.85984767665E+01 -0.16819259887E+03 -0.39712808086E+02  0.17303118576E+03  0.00000000000E+00 0. -1.
        -11    1    5    5    0    0 -0.49303257363E+02 -0.52875782962E+02  0.13397988886E+02  0.73526632703E+02  0.00000000000E+00 0.  1.
          4    1    6    6  503    0 -0.11914660278E+04 -0.10873126381E+03  0.10830912623E+04  0.16138464814E+04  0.00000000000E+00 0. -1.
         -4    1    6    6    0  503 -0.17303260217E+03 -0.36602066033E+02  0.12364306913E+03  0.21579527612E+03  0.00000000000E+00 0.  1.
<mgrwt>
<rscale>  0 0.32480154E+04</rscale>
<asrwt>0</asrwt>
<pdfrwt beam="1">  1        2 0.38447393E+00 0.32480154E+04</pdfrwt>
<pdfrwt beam="2">  1       -1 0.16236131E+00 0.32480154E+04</pdfrwt>
<totfact> 0.93162931E-01</totfact>
</mgrwt>
</event>
<event>
12    6  0.1542110E-007  0.1798518E+04  0.7818608E-02  0.8707088E-01
          2   -1    0    0  501    0  0.00000000000E+00  0.00000000000E+00  0.10680645028E+04  0.10680645028E+04  0.00000000000E+00 0. -1.
         -1   -1    0    0    0  501 -0.00000000000E+00 -0.00000000000E+00 -0.75713304753E+03  0.75713304753E+03  0.00000000000E+00 0.  1.
         24    2    1    2    0    0 -0.55646781897E+03 -0.37785763394E+03  0.66818025001E+02  0.68052538426E+03  0.78850016394E+02 0.  0.
        254    2    1    2    0    0  0.55646781897E+03  0.37785763394E+03  0.24411343024E+03  0.11446721660E+04  0.89344847406E+03 0.  0.
         23    2    4    4    0    0  0.45181475378E+02  0.54858740245E+03  0.36151645782E+02  0.55901143990E+03  0.90539188210E+02 0.  0.
         23    2    4    4    0    0  0.51128634359E+03 -0.17072976851E+03  0.20796178446E+03  0.58566072614E+03  0.95854073186E+02 0.  0.
          4    1    3    3  502    0 -0.24799501840E+03 -0.15128087362E+03 -0.76915740366E+01  0.29059695832E+03  0.00000000000E+00 0. -1.
         -3    1    3    3    0  502 -0.30847280057E+03 -0.22657676032E+03  0.74509599038E+02  0.38992842594E+03  0.00000000000E+00 0.  1.
         11    1    5    5    0    0 -0.22424839958E+02  0.68747573579E+02 -0.62423088671E+01  0.72581462786E+02  0.00000000000E+00 0.  1.
        -11    1    5    5    0    0  0.67606315336E+02  0.47983982887E+03  0.42393954650E+02  0.48642997712E+03  0.00000000000E+00 0. -1.
          2    1    6    6  503    0  0.36886695796E+03 -0.13466767087E+03  0.10569320057E+03  0.40665620234E+03  0.00000000000E+00 0. -1.
         -2    1    6    6    0  503  0.14241938563E+03 -0.36062097638E+02  0.10226858389E+03  0.17900452380E+03  0.00000000000E+00 0.  1.
<mgrwt>
<rscale>  0 0.17985182E+04</rscale>
<asrwt>0</asrwt>
<pdfrwt beam="1">  1        2 0.16431762E+00 0.17985182E+04</pdfrwt>
<pdfrwt beam="2">  1       -1 0.11648201E+00 0.17985182E+04</pdfrwt>
<totfact> 0.16348853E+01</totfact>
</mgrwt>
</event>
<event>
12    6  0.1542110E-007  0.1356646E+04  0.7818608E-02  0.8985812E-01
         -1   -1    0    0    0  501 -0.00000000000E+00  0.00000000000E+00  0.22426079175E+03  0.22426079175E+03  0.00000000000E+00 0.  1.
          2   -1    0    0  501    0  0.00000000000E+00 -0.00000000000E+00 -0.20517272966E+04  0.20517272966E+04  0.00000000000E+00 0. -1.
         24    2    1    2    0    0  0.17675440339E+03 -0.29583013795E+03 -0.73847999062E+03  0.81880823092E+03  0.79602970047E+02 0.  0.
        254    2    1    2    0    0 -0.17675440339E+03  0.29583013795E+03 -0.10889865142E+04  0.14571798574E+04  0.90483364166E+03 0.  0.
         23    2    4    4    0    0 -0.43260070511E+03  0.39932929682E+03 -0.97968735332E+03  0.11465976508E+04  0.91058251174E+02 0.  0.
         23    2    4    4    0    0  0.25584630173E+03 -0.10349915887E+03 -0.10929916085E+03  0.31058220662E+03  0.91354225487E+02 0.  0.
          4    1    3    3  502    0  0.15152914795E+03 -0.28165527266E+03 -0.70741636632E+03  0.77635603343E+03  0.00000000000E+00 0. -1.
         -3    1    3    3    0  502  0.25225255431E+02 -0.14174865287E+02 -0.31063624301E+02  0.42452197495E+02  0.00000000000E+00 0.  1.
         11    1    5    5    0    0 -0.89284704810E+02  0.11346911097E+03 -0.18186008049E+03  0.23220699071E+03  0.00000000000E+00 0. -1.
        -11    1    5    5    0    0 -0.34331600030E+03  0.28586018585E+03 -0.79782727283E+03  0.91439066005E+03  0.00000000000E+00 0.  1.
          3    1    6    6  503    0  0.66497997395E+01 -0.30150035159E+02 -0.94899454672E+01  0.32300209313E+02  0.00000000000E+00 0. -1.
         -3    1    6    6    0  503  0.24919650199E+03 -0.73349123712E+02 -0.99809215386E+02  0.27828199731E+03  0.00000000000E+00 0.  1.
<mgrwt>
<rscale>  0 0.13566458E+04</rscale>
<asrwt>0</asrwt>
<pdfrwt beam="1">  1        2 0.31565035E+00 0.13566458E+04</pdfrwt>
<pdfrwt beam="2">  1       -1 0.34501661E-01 0.13566458E+04</pdfrwt>
<totfact> 0.55414274E+01</totfact>
</mgrwt>
</event>
<event>
12    6  0.1542110E-007  0.1953522E+04  0.7818608E-02  0.8628664E-01
          2   -1    0    0  501    0  0.00000000000E+00  0.00000000000E+00  0.16815912015E+04  0.16815912015E+04  0.00000000000E+00 0. -1.
         -1   -1    0    0    0  501 -0.00000000000E+00 -0.00000000000E+00 -0.56735687125E+03  0.56735687125E+03  0.00000000000E+00 0.  1.
         24    2    1    2    0    0 -0.38418201902E+03 -0.59766554478E+03  0.10894213311E+03  0.72312625354E+03  0.79014321721E+02 0.  0.
        254    2    1    2    0    0  0.38418201902E+03  0.59766554478E+03  0.10052921972E+04  0.15258218192E+04  0.90150978654E+03 0.  0.
         23    2    4    4    0    0  0.49682575727E+03  0.26531432873E+03  0.10135724501E+04  0.11631106463E+04  0.90938099349E+02 0.  0.
         23    2    4    4    0    0 -0.11264373825E+03  0.33235121605E+03 -0.82802529255E+01  0.36271117291E+03  0.91350368281E+02 0.  0.
          2    1    3    3  502    0 -0.11664669446E+02 -0.13220933874E+01  0.19736083225E+01  0.11904099043E+02  0.00000000000E+00 0. -1.
         -1    1    3    3    0  502 -0.37251734957E+03 -0.59634345139E+03  0.10696852479E+03  0.71122215449E+03  0.00000000000E+00 0.  1.
         11    1    5    5    0    0  0.12155658721E+03  0.29323309277E+02  0.18304466516E+03  0.22167816718E+03  0.00000000000E+00 0.  1.
        -11    1    5    5    0    0  0.37526917006E+03  0.23599101945E+03  0.83052778493E+03  0.94143247915E+03  0.00000000000E+00 0. -1.
          4    1    6    6  503    0 -0.93596180545E+02  0.15804601385E+03 -0.29692881212E+02  0.18606572683E+03  0.00000000000E+00 0. -1.
         -4    1    6    6    0  503 -0.19047557706E+02  0.17430520221E+03  0.21412628287E+02  0.17664544608E+03  0.00000000000E+00 0.  1.
<mgrwt>
<rscale>  0 0.19535223E+04</rscale>
<asrwt>0</asrwt>
<pdfrwt beam="1">  1        2 0.25870634E+00 0.19535223E+04</pdfrwt>
<pdfrwt beam="2">  1       -1 0.87285673E-01 0.19535223E+04</pdfrwt>
<totfact> 0.13780903E+01</totfact>
</mgrwt>
</event>
<event>
12    6  0.1542110E-007  0.1973957E+04  0.7818608E-02  0.8618894E-01
         -1   -1    0    0    0  501 -0.00000000000E+00  0.00000000000E+00  0.14788881230E+04  0.14788881230E+04  0.00000000000E+00 0.  1.
          2   -1    0    0  501    0  0.00000000000E+00 -0.00000000000E+00 -0.65868865694E+03  0.65868865694E+03  0.00000000000E+00 0. -1.
         24    2    1    2    0    0  0.58904735873E+02  0.53014599767E+03  0.96028569206E+03  0.11013670247E+04  0.79600037296E+02 0.  0.
        254    2    1    2    0    0 -0.58904735873E+02 -0.53014599767E+03 -0.14008622598E+03  0.10362097553E+04  0.87725820570E+03 0.  0.
         23    2    4    4    0    0  0.18710201972E+03 -0.14721896505E+03  0.30136787451E+03  0.39470473775E+03  0.91041994491E+02 0.  0.
         23    2    4    4    0    0 -0.24600675560E+03 -0.38292703263E+03 -0.44145410049E+03  0.64150501753E+03  0.97439871529E+02 0.  0.
          2    1    3    3  502    0 -0.17822168224E+02  0.13928108697E+03  0.27308092105E+03  0.30706683362E+03  0.00000000000E+00 0. -1.
         -1    1    3    3    0  502  0.76726904098E+02  0.39086491071E+03  0.68720477100E+03  0.79430019106E+03  0.00000000000E+00 0.  1.
         11    1    5    5    0    0  0.17849384193E+03 -0.99295259963E+02  0.26122827516E+03  0.33160188782E+03  0.00000000000E+00 0. -1.
        -11    1    5    5    0    0  0.86081777914E+01 -0.47923705084E+02  0.40139599346E+02  0.63102849932E+02  0.00000000000E+00 0.  1.
          4    1    6    6  503    0 -0.23731884249E+03 -0.35887679095E+03 -0.37658265035E+03  0.57177554743E+03  0.00000000000E+00 0. -1.
         -4    1    6    6    0  503 -0.86879131078E+01 -0.24050241673E+02 -0.64871450135E+02  0.69729470106E+02  0.00000000000E+00 0.  1.
<mgrwt>
<rscale>  0 0.19739573E+04</rscale>
<asrwt>0</asrwt>
<pdfrwt beam="1">  1        2 0.10133672E+00 0.19739573E+04</pdfrwt>
<pdfrwt beam="2">  1       -1 0.22752125E+00 0.19739573E+04</pdfrwt>
<totfact> 0.46085930E+00</totfact>
</mgrwt>
</event>
<event>
12    6  0.1542110E-007  0.2341266E+04  0.7818608E-02  0.8461826E-01
          2   -1    0    0  501    0  0.00000000000E+00  0.00000000000E+00  0.19717544409E+04  0.19717544409E+04  0.00000000000E+00 0. -1.
         -1   -1    0    0    0  501 -0.00000000000E+00 -0.00000000000E+00 -0.69500646395E+03  0.69500646395E+03  0.00000000000E+00 0.  1.
         24    2    1    2    0    0  0.97526627788E+03 -0.16407825252E+03  0.40003843348E+03  0.10698089313E+04  0.79965089113E+02 0.  0.
        254    2    1    2    0    0 -0.97526627788E+03  0.16407825252E+03  0.87670954344E+03  0.15969519735E+04  0.89642065821E+03 0.  0.
         23    2    4    4    0    0 -0.49496973929E+03 -0.31071160061E+03  0.17141348029E+03  0.61621552441E+03  0.93820305556E+02 0.  0.
         23    2    4    4    0    0 -0.48029653860E+03  0.47478985313E+03  0.70529606315E+03  0.98073644912E+03  0.91056445699E+02 0.  0.
          4    1    3    3  502    0  0.16065226171E+03  0.24434369021E+01  0.60151766326E+02  0.17156151832E+03  0.00000000000E+00 0. -1.
         -3    1    3    3    0  502  0.81461401618E+03 -0.16652168942E+03  0.33988666715E+03  0.89824741297E+03  0.00000000000E+00 0.  1.
         11    1    5    5    0    0 -0.42634583533E+03 -0.22824865326E+03  0.12619396216E+03  0.49979309230E+03  0.00000000000E+00 0.  1.
        -11    1    5    5    0    0 -0.68623903955E+02 -0.82462947350E+02  0.45219518129E+02  0.11642243212E+03  0.00000000000E+00 0. -1.
          1    1    6    6  503    0 -0.23994402732E+03  0.18661906014E+03  0.27630872073E+03  0.41078743774E+03  0.00000000000E+00 0. -1.
         -1    1    6    6    0  503 -0.24035251128E+03  0.28817079299E+03  0.42898734242E+03  0.56994901138E+03  0.00000000000E+00 0.  1.
<mgrwt>
<rscale>  0 0.23412664E+04</rscale>
<asrwt>0</asrwt>
<pdfrwt beam="1">  1        2 0.30334683E+00 0.23412664E+04</pdfrwt>
<pdfrwt beam="2">  1       -1 0.10692407E+00 0.23412664E+04</pdfrwt>
<totfact> 0.58122664E+00</totfact>
</mgrwt>
</event>
<event>
12    6  0.1542110E-007  0.2122647E+04  0.7818608E-02  0.8551332E-01
          2   -1    0    0  501    0  0.00000000000E+00  0.00000000000E+00  0.52022960879E+03  0.52022960879E+03  0.00000000000E+00 0. -1.
         -1   -1    0    0    0  501 -0.00000000000E+00 -0.00000000000E+00 -0.21652115130E+04  0.21652115130E+04  0.00000000000E+00 0.  1.
         24    2    1    2    0    0  0.60300148535E+03 -0.59588348771E+03 -0.42103776407E+03  0.94985875568E+03  0.79189233494E+02 0.  0.
        254    2    1    2    0    0 -0.60300148535E+03  0.59588348771E+03 -0.12239441402E+04  0.17355823662E+04  0.89191870097E+03 0.  0.
         23    2    4    4    0    0 -0.87102752716E+02  0.45377187232E+03 -0.91652535400E+02  0.47969813203E+03  0.90632825077E+02 0.  0.
         23    2    4    4    0    0 -0.51589873263E+03  0.14211161539E+03 -0.11322916048E+04  0.12558842341E+04  0.93881402299E+02 0.  0.
          2    1    3    3  502    0  0.45334799710E+03 -0.44308032121E+03 -0.35214885744E+03  0.72515749690E+03  0.00000000000E+00 0. -1.
         -1    1    3    3    0  502  0.14965348825E+03 -0.15280316651E+03 -0.68888906637E+02  0.22470125878E+03  0.00000000000E+00 0.  1.
         11    1    5    5    0    0 -0.97010279789E+02  0.29233272827E+03 -0.75668566787E+02  0.31716738547E+03  0.00000000000E+00 0.  1.
        -11    1    5    5    0    0  0.99075270731E+01  0.16143914405E+03 -0.15983968613E+02  0.16253074656E+03  0.00000000000E+00 0. -1.
          3    1    6    6  503    0 -0.88214255391E+01 -0.63620519163E+01 -0.76111291817E+01  0.13274883824E+02  0.00000000000E+00 0. -1.
         -3    1    6    6    0  503 -0.50707730709E+03  0.14847366731E+03 -0.11246804756E+04  0.12426093503E+04  0.00000000000E+00 0.  1.
<mgrwt>
<rscale>  0 0.21226466E+04</rscale>
<asrwt>0</asrwt>
<pdfrwt beam="1">  1        2 0.80035325E-01 0.21226466E+04</pdfrwt>
<pdfrwt beam="2">  1       -1 0.33310946E+00 0.21226466E+04</pdfrwt>
<totfact> 0.12415720E+00</totfact>
</mgrwt>
</event>
<event>
12    6  0.1542110E-007  0.2510758E+04  0.7818608E-02  0.8399163E-01
         -1   -1    0    0    0  501 -0.00000000000E+00  0.00000000000E+00  0.64239325179E+03  0.64239325179E+03  0.00000000000E+00 0.  1.
          2   -1    0    0  501    0  0.00000000000E+00 -0.00000000000E+00 -0.24532899786E+04  0.24532899786E+04  0.00000000000E+00 0. -1.
         24    2    1    2    0    0 -0.65366263453E+03  0.78656382516E+03 -0.32108484081E+03  0.10752125576E+04  0.83839597812E+02 0.  0.
        254    2    1    2    0    0  0.65366263453E+03 -0.78656382516E+03 -0.14898118860E+04  0.20204706728E+04  0.90377253395E+03 0.  0.
         23    2    4    4    0    0  0.68307277194E+03 -0.85113709546E+03 -0.15423154149E+04  0.18915978408E+04  0.91557551477E+02 0.  0.
         23    2    4    4    0    0 -0.29410137414E+02  0.64573270295E+02  0.52503528953E+02  0.12887283196E+03  0.93898470937E+02 0.  0.
          2    1    3    3  502    0 -0.56509409462E+03  0.71086655560E+03 -0.30289302022E+03  0.95729137536E+03  0.00000000000E+00 0. -1.
         -1    1    3    3    0  502 -0.88568539914E+02  0.75697269563E+02 -0.18191820592E+02  0.11792118223E+03  0.00000000000E+00 0.  1.
         11    1    5    5    0    0  0.41773249423E+03 -0.58920908442E+03 -0.10074027860E+04  0.12395677292E+04  0.00000000000E+00 0. -1.
        -11    1    5    5    0    0  0.26534027771E+03 -0.26192801104E+03 -0.53491262889E+03  0.65203011164E+03  0.00000000000E+00 0.  1.
          1    1    6    6  503    0 -0.43096207499E+01  0.83567713934E+02  0.49570057941E+02  0.97259067894E+02  0.00000000000E+00 0. -1.
         -1    1    6    6    0  503 -0.25100516664E+02 -0.18994443639E+02  0.29334710119E+01  0.31613764062E+02  0.00000000000E+00 0.  1.
<mgrwt>
<rscale>  0 0.25107584E+04</rscale>
<asrwt>0</asrwt>
<pdfrwt beam="1">  1        2 0.37742924E+00 0.25107584E+04</pdfrwt>
<pdfrwt beam="2">  1       -1 0.98829729E-01 0.25107584E+04</pdfrwt>
<totfact> 0.36754919E+00</totfact>
</mgrwt>
</event>
<event>
12    6  0.1542110E-007  0.2935667E+04  0.7818608E-02  0.8262344E-01
          2   -1    0    0  501    0  0.00000000000E+00  0.00000000000E+00  0.22312737860E+04  0.22312737860E+04  0.00000000000E+00 0. -1.
         -1   -1    0    0    0  501 -0.00000000000E+00 -0.00000000000E+00 -0.96560796560E+03  0.96560796560E+03  0.00000000000E+00 0.  1.
         24    2    1    2    0    0 -0.25280407994E+03 -0.12680651756E+04  0.94787915360E+03  0.16051528446E+04  0.78368185624E+02 0.  0.
        254    2    1    2    0    0  0.25280407994E+03  0.12680651756E+04  0.31778666683E+03  0.15917289070E+04  0.87218883014E+03 0.  0.
         23    2    4    4    0    0  0.18377312884E+03  0.87669633750E+03 -0.20954055464E+03  0.92512325794E+03  0.97860958920E+02 0.  0.
         23    2    4    4    0    0  0.69030951096E+02  0.39136883807E+03  0.52732722148E+03  0.66660564905E+03  0.91401603997E+02 0.  0.
          4    1    3    3  502    0 -0.11370992249E+03 -0.69323976447E+03  0.47640529448E+03  0.84880699934E+03  0.00000000000E+00 0. -1.
         -3    1    3    3    0  502 -0.13909415745E+03 -0.57482541110E+03  0.47147385912E+03  0.75634584531E+03  0.00000000000E+00 0.  1.
         11    1    5    5    0    0 -0.64957690279E+01  0.92120337393E+02 -0.60064434644E+01  0.92544199925E+02  0.00000000000E+00 0. -1.
        -11    1    5    5    0    0  0.19026889787E+03  0.78457600010E+03 -0.20353411118E+03  0.83257905802E+03  0.00000000000E+00 0.  1.
          4    1    6    6  503    0  0.71412050899E+02  0.39035918609E+03  0.49619232416E+03  0.63536351622E+03  0.00000000000E+00 0.  1.
         -4    1    6    6    0  503 -0.23810998028E+01  0.10096519818E+01  0.31134897315E+02  0.31242132837E+02  0.00000000000E+00 0. -1.
<mgrwt>
<rscale>  0 0.29356674E+04</rscale>
<asrwt>0</asrwt>
<pdfrwt beam="1">  1        2 0.34327289E+00 0.29356674E+04</pdfrwt>
<pdfrwt beam="2">  1       -1 0.14855507E+00 0.29356674E+04</pdfrwt>
<totfact> 0.17374014E+00</totfact>
</mgrwt>
</event>
<event>
12    6  0.1542110E-007  0.1637273E+04  0.7818608E-02  0.8797972E-01
          2   -1    0    0  501    0  0.00000000000E+00  0.00000000000E+00  0.50136633440E+03  0.50136633440E+03  0.00000000000E+00 0. -1.
         -1   -1    0    0    0  501 -0.00000000000E+00 -0.00000000000E+00 -0.13366780185E+04  0.13366780185E+04  0.00000000000E+00 0.  1.
         24    2    1    2    0    0  0.46840517018E+03  0.26725797895E+03 -0.53593159768E+03  0.76454809738E+03  0.80503944307E+02 0.  0.
        254    2    1    2    0    0 -0.46840517018E+03 -0.26725797895E+03 -0.29938008642E+03  0.10734962555E+04  0.87859862490E+03 0.  0.
         23    2    4    4    0    0 -0.36964664852E+03 -0.27217391856E+03  0.23369413362E+03  0.52339306666E+03  0.92790449051E+02 0.  0.
         23    2    4    4    0    0 -0.98758521665E+02  0.49159396100E+01 -0.53307422004E+03  0.55010318884E+03  0.93101999126E+02 0.  0.
          4    1    3    3  502    0  0.38858540418E+03  0.18630985853E+03 -0.43874211297E+03  0.61498343183E+03  0.00000000000E+00 0. -1.
         -1    1    3    3    0  502  0.79819766003E+02  0.80948120417E+02 -0.97189484709E+02  0.14956466555E+03  0.00000000000E+00 0.  1.
         11    1    5    5    0    0 -0.30848086110E+02 -0.24611386437E+01 -0.75315695167E+00  0.30955272014E+02  0.00000000000E+00 0. -1.
        -11    1    5    5    0    0 -0.33879856241E+03 -0.26971277992E+03  0.23444729057E+03  0.49243779465E+03  0.00000000000E+00 0.  1.
          2    1    6    6  503    0 -0.63297542207E+02  0.45319312407E+02 -0.24549784544E+03  0.25754535725E+03  0.00000000000E+00 0. -1.
         -2    1    6    6    0  503 -0.35460979458E+02 -0.40403372797E+02 -0.28757637460E+03  0.29255783159E+03  0.00000000000E+00 0.  1.
<mgrwt>
<rscale>  0 0.16372726E+04</rscale>
<asrwt>0</asrwt>
<pdfrwt beam="1">  1        2 0.77133282E-01 0.16372726E+04</pdfrwt>
<pdfrwt beam="2">  1       -1 0.20564277E+00 0.16372726E+04</pdfrwt>
<totfact> 0.92337771E+00</totfact>
</mgrwt>
</event>
<event>
12    6  0.1542110E-007  0.1373987E+04  0.7818608E-02  0.8972866E-01
         -1   -1    0    0    0  501 -0.00000000000E+00  0.00000000000E+00  0.52014104541E+03  0.52014104541E+03  0.00000000000E+00 0.  1.
          2   -1    0    0  501    0  0.00000000000E+00 -0.00000000000E+00 -0.90736951261E+03  0.90736951261E+03  0.00000000000E+00 0. -1.
         24    2    1    2    0    0 -0.27237033077E+03 -0.84370665975E+02  0.15839934468E+03  0.33603326132E+03  0.80771244659E+02 0.  0.
        254    2    1    2    0    0  0.27237033077E+03  0.84370665975E+02 -0.54562781188E+03  0.10914772967E+04  0.90128185035E+03 0.  0.
         23    2    4    4    0    0  0.20400312472E+03 -0.29398581081E+03 -0.58710736690E+03  0.69364739560E+03  0.91688152487E+02 0.  0.
         23    2    4    4    0    0  0.68367206045E+02  0.37835647679E+03  0.41479555024E+02  0.39782990110E+03  0.93382965986E+02 0.  0.
          2    1    3    3  502    0 -0.11813014497E+03 -0.13366491718E+02  0.28520003022E+02  0.12225704407E+03  0.00000000000E+00 0. -1.
         -1    1    3    3    0  502 -0.15424018579E+03 -0.71004174256E+02  0.12987934165E+03  0.21377621725E+03  0.00000000000E+00 0.  1.
         11    1    5    5    0    0  0.65147664286E+02 -0.75173111897E+02 -0.24531604382E+03  0.26471716278E+03  0.00000000000E+00 0. -1.
        -11    1    5    5    0    0  0.13885546043E+03 -0.21881269891E+03 -0.34179132308E+03  0.42893023282E+03  0.00000000000E+00 0.  1.
          1    1    6    6  503    0  0.18336307472E+02  0.24934331338E+03  0.62899498095E+02  0.25780739896E+03  0.00000000000E+00 0. -1.
         -1    1    6    6    0  503  0.50030898573E+02  0.12901316341E+03 -0.21419943071E+02  0.14002250214E+03  0.00000000000E+00 0.  1.
<mgrwt>
<rscale>  0 0.13739871E+04</rscale>
<asrwt>0</asrwt>
<pdfrwt beam="1">  1        2 0.13959531E+00 0.13739871E+04</pdfrwt>
<pdfrwt beam="2">  1       -1 0.80021699E-01 0.13739871E+04</pdfrwt>
<totfact> 0.50306265E+01</totfact>
</mgrwt>
</event>
<event>
12    6  0.1542110E-007  0.1520629E+04  0.7818608E-02  0.8870849E-01
          2   -1    0    0  501    0  0.00000000000E+00  0.00000000000E+00  0.12776278197E+04  0.12776278197E+04  0.00000000000E+00 0. -1.
         -1   -1    0    0    0  501 -0.00000000000E+00 -0.00000000000E+00 -0.45246224248E+03  0.45246224248E+03  0.00000000000E+00 0.  1.
         24    2    1    2    0    0 -0.39582684530E+03 -0.14544269952E+03 -0.25139129460E+02  0.42961655861E+03  0.78140522749E+02 0.  0.
        254    2    1    2    0    0  0.39582684530E+03  0.14544269952E+03  0.85030470672E+03  0.13004735036E+04  0.88903361524E+03 0.  0.
         23    2    4    4    0    0  0.17445292050E+03  0.31343135131E+03 -0.31297113288E+02  0.37137023668E+03  0.90902749905E+02 0.  0.
         23    2    4    4    0    0  0.22137392480E+03 -0.16798865179E+03  0.88160182000E+03  0.92910326693E+03  0.93725716135E+02 0.  0.
          4    1    3    3  502    0 -0.13443559155E+03 -0.20277449064E+02  0.16013599814E+02  0.13689608685E+03  0.00000000000E+00 0. -1.
         -3    1    3    3    0  502 -0.26139125375E+03 -0.12516525046E+03 -0.41152729274E+02  0.29272047176E+03  0.00000000000E+00 0.  1.
         11    1    5    5    0    0  0.47087251372E+02  0.26396747751E+02  0.91533039536E+01  0.54751990894E+02  0.00000000000E+00 0.  1.
        -11    1    5    5    0    0  0.12736566912E+03  0.28703460356E+03 -0.40450417242E+02  0.31661824579E+03  0.00000000000E+00 0. -1.
          2    1    6    6  503    0  0.21987367278E+03 -0.15098698008E+03  0.86539726313E+03  0.90556828741E+03  0.00000000000E+00 0. -1.
         -2    1    6    6    0  503  0.15002520254E+01 -0.17001671714E+02  0.16204556872E+02  0.23534979512E+02  0.00000000000E+00 0.  1.
<mgrwt>
<rscale>  0 0.15206293E+04</rscale>
<asrwt>0</asrwt>
<pdfrwt beam="1">  1        2 0.19655812E+00 0.15206293E+04</pdfrwt>
<pdfrwt beam="2">  1       -1 0.69609576E-01 0.15206293E+04</pdfrwt>
<totfact> 0.39108682E+01</totfact>
</mgrwt>
</event>
<event>
12    6  0.1542110E-007  0.1482784E+04  0.7818608E-02  0.8895983E-01
         -1   -1    0    0    0  501 -0.00000000000E+00  0.00000000000E+00  0.74017523075E+03  0.74017523075E+03  0.00000000000E+00 0.  1.
          2   -1    0    0  501    0  0.00000000000E+00 -0.00000000000E+00 -0.74261103145E+03  0.74261103145E+03  0.00000000000E+00 0. -1.
         24    2    1    2    0    0 -0.29032747829E+03 -0.26361419029E+03  0.25076055197E+03  0.47248735537E+03  0.81123119956E+02 0.  0.
        254    2    1    2    0    0  0.29032747829E+03  0.26361419029E+03 -0.25319635267E+03  0.10102989068E+04  0.89599832709E+03 0.  0.
         23    2    4    4    0    0  0.34423087623E+03  0.32089963462E+03 -0.52623380683E+03  0.71220525722E+03  0.94036361685E+02 0.  0.
         23    2    4    4    0    0 -0.53903397938E+02 -0.57285444331E+02  0.27303745416E+03  0.29809364960E+03  0.90128653136E+02 0.  0.
          4    1    3    3  502    0 -0.20636170366E+03 -0.20752443376E+03  0.14627289033E+03  0.32718083958E+03  0.00000000000E+00 0. -1.
         -3    1    3    3    0  502 -0.83965774636E+02 -0.56089756530E+02  0.10448766163E+03  0.14530651579E+03  0.00000000000E+00 0.  1.
         11    1    5    5    0    0  0.32224670207E+03  0.31823040890E+03 -0.47457231866E+03  0.65599726812E+03  0.00000000000E+00 0.  1.
        -11    1    5    5    0    0  0.21984174157E+02  0.26692257234E+01 -0.51661488165E+02  0.56207989101E+02  0.00000000000E+00 0. -1.
          1    1    6    6  503    0 -0.47050008247E+02  0.10800923563E+02  0.81805918413E+02  0.94987217631E+02  0.00000000000E+00 0. -1.
         -1    1    6    6    0  503 -0.68533896909E+01 -0.68086367893E+02  0.19123153574E+03  0.20310643197E+03  0.00000000000E+00 0.  1.
<mgrwt>
<rscale>  0 0.14827843E+04</rscale>
<asrwt>0</asrwt>
<pdfrwt beam="1">  1        2 0.11424785E+00 0.14827843E+04</pdfrwt>
<pdfrwt beam="2">  1       -1 0.11387311E+00 0.14827843E+04</pdfrwt>
<totfact> 0.29503495E+01</totfact>
</mgrwt>
</event>
<event>
12    6  0.1542110E-007  0.3340588E+04  0.7818608E-02  0.8152644E-01
         -1   -1    0    0    0  501 -0.00000000000E+00  0.00000000000E+00  0.15457444721E+04  0.15457444721E+04  0.00000000000E+00 0.  1.
          2   -1    0    0  501    0  0.00000000000E+00 -0.00000000000E+00 -0.18048786619E+04  0.18048786619E+04  0.00000000000E+00 0. -1.
         24    2    1    2    0    0  0.10507085889E+03 -0.15398262736E+04  0.71999999565E+01  0.15461012300E+04  0.90952378107E+02 0.  0.
        254    2    1    2    0    0 -0.10507085889E+03  0.15398262736E+04 -0.26633418978E+03  0.18045219040E+04  0.89624804766E+03 0.  0.
         23    2    4    4    0    0  0.46118303188E+02  0.98268281027E+03  0.25564141634E+03  0.10206098234E+04  0.92192594281E+02 0.  0.
         23    2    4    4    0    0 -0.15118916208E+03  0.55714346338E+03 -0.52197560612E+03  0.78391208057E+03  0.93768945601E+02 0.  0.
          2    1    3    3  502    0  0.92596322154E+02 -0.89810710599E+03 -0.27934099224E+02  0.90329993169E+03  0.00000000000E+00 0. -1.
         -1    1    3    3    0  502  0.12474536733E+02 -0.64171916766E+03  0.35134099181E+02  0.64280129833E+03  0.00000000000E+00 0.  1.
         11    1    5    5    0    0  0.73394735980E+02  0.78408502748E+03  0.19791478613E+03  0.81200146561E+03  0.00000000000E+00 0. -1.
        -11    1    5    5    0    0 -0.27276432793E+02  0.19859778279E+03  0.57726630212E+02  0.20860835781E+03  0.00000000000E+00 0.  1.
          3    1    6    6  503    0 -0.16007095357E+03  0.49120822191E+03 -0.48030644092E+03  0.70540945885E+03  0.00000000000E+00 0. -1.
         -3    1    6    6    0  503  0.88817914932E+01  0.65935241467E+02 -0.41669165200E+02  0.78502621714E+02  0.00000000000E+00 0.  1.
<mgrwt>
<rscale>  0 0.33405875E+04</rscale>
<asrwt>0</asrwt>
<pdfrwt beam="1">  1        2 0.27767364E+00 0.33405875E+04</pdfrwt>
<pdfrwt beam="2">  1       -1 0.23780684E+00 0.33405875E+04</pdfrwt>
<totfact> 0.68080518E-01</totfact>
</mgrwt>
</event>
<event>
12    6  0.1542110E-007  0.2096866E+04  0.7818608E-02  0.8562625E-01
          2   -1    0    0  501    0  0.00000000000E+00  0.00000000000E+00  0.24931549925E+04  0.24931549925E+04  0.00000000000E+00 0. -1.
         -1   -1    0    0    0  501 -0.00000000000E+00 -0.00000000000E+00 -0.44089207304E+03  0.44089207304E+03  0.00000000000E+00 0.  1.
         24    2    1    2    0    0 -0.26155022649E+03  0.80908503909E+03  0.79933658451E+03  0.11696971406E+04  0.78900595391E+02 0.  0.
        254    2    1    2    0    0  0.26155022649E+03 -0.80908503909E+03  0.12529263350E+04  0.17643499249E+04  0.90558220794E+03 0.  0.
         23    2    4    4    0    0  0.71613321038E+02 -0.96994996233E+03  0.98309362116E+03  0.13858336986E+04  0.90169700613E+02 0.  0.
         23    2    4    4    0    0  0.18993690545E+03  0.16086492324E+03  0.26983271379E+03  0.37851622638E+03  0.92256645363E+02 0.  0.
          2    1    3    3  502    0 -0.96796667994E+02  0.22752942543E+03  0.27154080920E+03  0.36725147438E+03  0.00000000000E+00 0. -1.
         -1    1    3    3    0  502 -0.16475355850E+03  0.58155561366E+03  0.52779577530E+03  0.80244566623E+03  0.00000000000E+00 0.  1.
         11    1    5    5    0    0  0.93302853926E+02 -0.78701507712E+03  0.80098876160E+03  0.11268012914E+04  0.00000000000E+00 0.  1.
        -11    1    5    5    0    0 -0.21689532888E+02 -0.18293488521E+03  0.18210485956E+03  0.25903240713E+03  0.00000000000E+00 0. -1.
          4    1    6    6  503    0  0.55765616487E+02  0.21431128574E+02  0.21055963334E+02  0.63343909305E+02  0.00000000000E+00 0. -1.
         -4    1    6    6    0  503  0.13417128897E+03  0.13943379467E+03  0.24877675046E+03  0.31517231707E+03  0.00000000000E+00 0.  1.
<mgrwt>
<rscale>  0 0.20968665E+04</rscale>
<asrwt>0</asrwt>
<pdfrwt beam="1">  1        2 0.38356230E+00 0.20968665E+04</pdfrwt>
<pdfrwt beam="2">  1       -1 0.67829551E-01 0.20968665E+04</pdfrwt>
<totfact> 0.81139762E+00</totfact>
</mgrwt>
</event>
<event>
12    6  0.1542110E-007  0.1540805E+04  0.7818608E-02  0.8857763E-01
         -1   -1    0    0    0  501 -0.00000000000E+00  0.00000000000E+00  0.13992752797E+04  0.13992752797E+04  0.00000000000E+00 0.  1.
          2   -1    0    0  501    0  0.00000000000E+00 -0.00000000000E+00 -0.42416236665E+03  0.42416236665E+03  0.00000000000E+00 0. -1.
         24    2    1    2    0    0  0.26291236395E+03 -0.39653142574E+03  0.48663127233E+03  0.68512544015E+03  0.78910017152E+02 0.  0.
        254    2    1    2    0    0 -0.26291236395E+03  0.39653142574E+03  0.48848164069E+03  0.11383122062E+04  0.91147149310E+03 0.  0.
         23    2    4    4    0    0 -0.17890723401E+03 -0.11675904818E+03 -0.17496914843E+03  0.29027040774E+03  0.89455201033E+02 0.  0.
         23    2    4    4    0    0 -0.84005129941E+02  0.51329047392E+03  0.66345078912E+03  0.84804179844E+03  0.92108467882E+02 0.  0.
          2    1    3    3  502    0  0.49477971804E+02 -0.29557461097E+02  0.63005364271E+02  0.85389631263E+02  0.00000000000E+00 0. -1.
         -1    1    3    3    0  502  0.21343439215E+03 -0.36697396464E+03  0.42362590806E+03  0.59973580888E+03  0.00000000000E+00 0.  1.
         11    1    5    5    0    0 -0.11444907260E+03 -0.98604020212E+02 -0.16300659512E+03  0.22224421944E+03  0.00000000000E+00 0. -1.
        -11    1    5    5    0    0 -0.64458161407E+02 -0.18155027970E+02 -0.11962553310E+02  0.68026188298E+02  0.00000000000E+00 0.  1.
          2    1    6    6  503    0 -0.37572482453E+02  0.43829752196E+03  0.54630594850E+03  0.70140330664E+03  0.00000000000E+00 0. -1.
         -2    1    6    6    0  503 -0.46432647487E+02  0.74992951954E+02  0.11714484061E+03  0.14663849180E+03  0.00000000000E+00 0.  1.
<mgrwt>
<rscale>  0 0.15408049E+04</rscale>
<asrwt>0</asrwt>
<pdfrwt beam="1">  1        2 0.65255749E-01 0.15408049E+04</pdfrwt>
<pdfrwt beam="2">  1       -1 0.21527312E+00 0.15408049E+04</pdfrwt>
<totfact> 0.97054972E+00</totfact>
</mgrwt>
</event>
<event>
12    6  0.1542110E-007  0.1442113E+04  0.7818608E-02  0.8923887E-01
         -1   -1    0    0    0  501 -0.00000000000E+00  0.00000000000E+00  0.15313306552E+03  0.15313306552E+03  0.00000000000E+00 0.  1.
          2   -1    0    0  501    0  0.00000000000E+00 -0.00000000000E+00 -0.33952343284E+04  0.33952343284E+04  0.00000000000E+00 0. -1.
         24    2    1    2    0    0 -0.27608156314E+03  0.25512466580E+03 -0.43412397041E+03  0.57961852639E+03  0.78640891699E+02 0.  0.
        254    2    1    2    0    0  0.27608156314E+03 -0.25512466580E+03 -0.28079772925E+04  0.29687488675E+04  0.88736899815E+03 0.  0.
         23    2    4    4    0    0 -0.22119598442E+03  0.14726236226E+03 -0.53473417231E+03  0.60586687675E+03  0.10256788216E+03 0.  0.
         23    2    4    4    0    0  0.49727754756E+03 -0.40238702805E+03 -0.22732431202E+04  0.23628819908E+04  0.79854488684E+02 0.  0.
          2    1    3    3  502    0  0.54478377120E+01  0.61700301402E+01 -0.96484826294E+01  0.12682327260E+02  0.00000000000E+00 0. -1.
         -1    1    3    3    0  502 -0.28152940085E+03  0.24895463566E+03 -0.42447548778E+03  0.56693619913E+03  0.00000000000E+00 0.  1.
         11    1    5    5    0    0 -0.18323470021E+03  0.66948135292E+02 -0.34414596081E+03  0.39559253093E+03  0.00000000000E+00 0.  1.
        -11    1    5    5    0    0 -0.37961284211E+02  0.80314226966E+02 -0.19058821149E+03  0.21027434583E+03  0.00000000000E+00 0. -1.
          2    1    6    6  503    0  0.77708188863E+02 -0.30378065931E+02 -0.32625577123E+03  0.33675542723E+03  0.00000000000E+00 0. -1.
         -2    1    6    6    0  503  0.41956935870E+03 -0.37200896212E+03 -0.19469873489E+04  0.20261265636E+04  0.00000000000E+00 0.  1.
<mgrwt>
<rscale>  0 0.14421132E+04</rscale>
<asrwt>0</asrwt>
<pdfrwt beam="1">  1        2 0.52234369E+00 0.14421132E+04</pdfrwt>
<pdfrwt beam="2">  1       -1 0.23558935E-01 0.14421132E+04</pdfrwt>
<totfact> 0.16692149E+01</totfact>
</mgrwt>
</event>
<event>
12    6  0.1542110E-007  0.1524175E+04  0.7818608E-02  0.8868534E-01
         -1   -1    0    0    0  501 -0.00000000000E+00  0.00000000000E+00  0.52475938464E+03  0.52475938464E+03  0.00000000000E+00 0.  1.
          2   -1    0    0  501    0  0.00000000000E+00 -0.00000000000E+00 -0.11067503425E+04  0.11067503425E+04  0.00000000000E+00 0. -1.
         24    2    1    2    0    0 -0.18440261284E+03 -0.42411549973E+03 -0.16976514112E+02  0.46928746790E+03  0.77873260944E+02 0.  0.
        254    2    1    2    0    0  0.18440261284E+03  0.42411549973E+03 -0.56501444370E+03  0.11622222592E+04  0.90423502334E+03 0.  0.
         23    2    4    4    0    0  0.21636775474E+03  0.56614447522E+03 -0.44843120519E+02  0.61435292339E+03  0.89911272393E+02 0.  0.
         23    2    4    4    0    0 -0.31965141898E+02 -0.14202897550E+03 -0.52017132318E+03  0.54786933580E+03  0.91589319641E+02 0.  0.
          2    1    3    3  502    0 -0.52362270481E+01 -0.76747714206E+01  0.11811129820E+02  0.15027407550E+02  0.00000000000E+00 0. -1.
         -3    1    3    3    0  502 -0.17916638579E+03 -0.41644072831E+03 -0.28787643932E+02  0.45426006035E+03  0.00000000000E+00 0.  1.
         11    1    5    5    0    0  0.10133549681E+03  0.37558666898E+03 -0.46293528742E+02  0.39176181493E+03  0.00000000000E+00 0. -1.
        -11    1    5    5    0    0  0.11503225793E+03  0.19055780624E+03  0.14504082226E+01  0.22259110846E+03  0.00000000000E+00 0.  1.
          1    1    6    6  503    0 -0.55091948738E+02 -0.99037618423E+02 -0.43675087073E+03  0.45121491083E+03  0.00000000000E+00 0. -1.
         -1    1    6    6    0  503  0.23126806840E+02 -0.42991357075E+02 -0.83420452456E+02  0.96654424967E+02  0.00000000000E+00 0.  1.
<mgrwt>
<rscale>  0 0.15241754E+04</rscale>
<asrwt>0</asrwt>
<pdfrwt beam="1">  1        2 0.17026928E+00 0.15241754E+04</pdfrwt>
<pdfrwt beam="2">  1       -1 0.80732214E-01 0.15241754E+04</pdfrwt>
<totfact> 0.36318065E+01</totfact>
</mgrwt>
</event>
<event>
12    6  0.1542110E-007  0.1544961E+04  0.7818608E-02  0.8855093E-01
         -1   -1    0    0    0  501 -0.00000000000E+00  0.00000000000E+00  0.32666439234E+03  0.32666439234E+03  0.00000000000E+00 0.  1.
          2   -1    0    0  501    0  0.00000000000E+00 -0.00000000000E+00 -0.18267262592E+04  0.18267262592E+04  0.00000000000E+00 0. -1.
         24    2    1    2    0    0  0.19509320813E+03 -0.57486801644E+02  0.14235882947E+03  0.26125237350E+03  0.81367524912E+02 0.  0.
        254    2    1    2    0    0 -0.19509320813E+03  0.57486801644E+02 -0.16424206963E+04  0.18921382780E+04  0.91721067768E+03 0.  0.
         23    2    4    4    0    0 -0.14045942237E+03  0.83988216692E+02 -0.17375280446E+04  0.17479714493E+04  0.98069424753E+02 0.  0.
         23    2    4    4    0    0 -0.54633785757E+02 -0.26501415048E+02  0.95107348284E+02  0.14416682868E+03  0.89730102243E+02 0.  0.
          2    1    3    3  502    0  0.36636179271E+02 -0.15745394190E+02 -0.58547035805E+01  0.40303903332E+02  0.00000000000E+00 0. -1.
         -1    1    3    3    0  502  0.15845702886E+03 -0.41741407453E+02  0.14821353305E+03  0.22094847017E+03  0.00000000000E+00 0.  1.
         11    1    5    5    0    0 -0.14869399825E+03  0.68058472962E+02 -0.16737729746E+04  0.16817424985E+04  0.00000000000E+00 0.  1.
        -11    1    5    5    0    0  0.82345758813E+01  0.15929743730E+02 -0.63755070010E+02  0.66228950824E+02  0.00000000000E+00 0. -1.
          3    1    6    6  503    0 -0.78664513769E+02 -0.29288994372E+02  0.69956610441E+02  0.10926974999E+03  0.00000000000E+00 0. -1.
         -3    1    6    6    0  503  0.24030728012E+02  0.27875793232E+01  0.25150737843E+02  0.34897078694E+02  0.00000000000E+00 0.  1.
<mgrwt>
<rscale>  0 0.15449614E+04</rscale>
<asrwt>0</asrwt>
<pdfrwt beam="1">  1        2 0.28103481E+00 0.15449614E+04</pdfrwt>
<pdfrwt beam="2">  1       -1 0.50256061E-01 0.15449614E+04</pdfrwt>
<totfact> 0.36361093E+01</totfact>
</mgrwt>
</event>
<event>
12    6  0.1542110E-007  0.2260036E+04  0.7818608E-02  0.8493847E-01
         -3   -1    0    0    0  501 -0.00000000000E+00  0.00000000000E+00  0.38806549580E+03  0.38806549580E+03  0.00000000000E+00 0.  1.
          2   -1    0    0  501    0  0.00000000000E+00 -0.00000000000E+00 -0.32905289325E+04  0.32905289325E+04  0.00000000000E+00 0. -1.
         24    2    1    2    0    0 -0.86231493138E+03 -0.14098909376E+03 -0.18095565937E+04  0.20111031806E+04  0.81092367631E+02 0.  0.
        254    2    1    2    0    0  0.86231493138E+03  0.14098909376E+03 -0.10929068431E+04  0.16674912477E+04  0.90698220934E+03 0.  0.
         23    2    4    4    0    0 -0.18387320505E+02 -0.86639959762E+02  0.10119758353E+03  0.16358840483E+03  0.93143110851E+02 0.  0.
         23    2    4    4    0    0  0.88070225189E+03  0.22762905352E+03 -0.11941044266E+04  0.15039028429E+04  0.91580219779E+02 0.  0.
          4    1    3    3  502    0 -0.71545224204E+03 -0.86672229480E+02 -0.14677949746E+04  0.16351776887E+04  0.00000000000E+00 0. -1.
         -3    1    3    3    0  502 -0.14686268934E+03 -0.54316864280E+02 -0.34176161905E+03  0.37592549198E+03  0.00000000000E+00 0.  1.
         11    1    5    5    0    0 -0.41214196693E+01 -0.49946590736E+02  0.11205330312E+03  0.12275011514E+03  0.00000000000E+00 0. -1.
        -11    1    5    5    0    0 -0.14265900836E+02 -0.36693369026E+02 -0.10855719589E+02  0.40838289691E+02  0.00000000000E+00 0.  1.
          3    1    6    6  503    0  0.65387997882E+03  0.12921442900E+03 -0.89202306349E+03  0.11135351549E+04  0.00000000000E+00 0. -1.
         -3    1    6    6    0  503  0.22682227306E+03  0.98414624519E+02 -0.30208136311E+03  0.39036768798E+03  0.00000000000E+00 0.  1.
<mgrwt>
<rscale>  0 0.22600361E+04</rscale>
<asrwt>0</asrwt>
<pdfrwt beam="1">  1        2 0.50623519E+00 0.22600361E+04</pdfrwt>
<pdfrwt beam="2">  1       -3 0.59702387E-01 0.22600361E+04</pdfrwt>
<totfact> 0.18217842E+00</totfact>
</mgrwt>
</event>
<event>
12    6  0.1542110E-007  0.1880404E+04  0.7818608E-02  0.8664672E-01
          2   -1    0    0  501    0  0.00000000000E+00  0.00000000000E+00  0.34910155622E+04  0.34910155622E+04  0.00000000000E+00 0. -1.
         -1   -1    0    0    0  501 -0.00000000000E+00 -0.00000000000E+00 -0.25321571052E+03  0.25321571052E+03  0.00000000000E+00 0.  1.
         24    2    1    2    0    0 -0.63961334484E+03  0.17605756770E+03  0.15453945762E+04  0.16837296038E+04  0.81237212547E+02 0.  0.
        254    2    1    2    0    0  0.63961334484E+03 -0.17605756770E+03  0.16924052755E+04  0.20605016689E+04  0.97022163082E+03 0.  0.
         23    2    4    4    0    0  0.42106703574E+02 -0.48537443443E+03  0.73295301055E+03  0.88490712521E+03  0.92082509172E+02 0.  0.
         23    2    4    4    0    0  0.59750664127E+03  0.30931686672E+03  0.95945226496E+03  0.11755945437E+04  0.93716444737E+02 0.  0.
          2    1    3    3  502    0 -0.38099399989E+03  0.75750159783E+02  0.97256216137E+03  0.10472686725E+04  0.00000000000E+00 0. -1.
         -1    1    3    3    0  502 -0.25861934495E+03  0.10030740792E+03  0.57283241479E+03  0.63646093132E+03  0.00000000000E+00 0.  1.
         11    1    5    5    0    0  0.18458157459E+02 -0.39614828433E+02  0.11142562964E+03  0.11969005451E+03  0.00000000000E+00 0.  1.
        -11    1    5    5    0    0  0.23648546115E+02 -0.44575960599E+03  0.62152738092E+03  0.76521707070E+03  0.00000000000E+00 0. -1.
          4    1    6    6  503    0  0.48868063429E+03  0.26207150770E+03  0.84533119855E+03  0.10109772860E+04  0.00000000000E+00 0. -1.
         -4    1    6    6    0  503  0.10882600698E+03  0.47245359017E+02  0.11412106640E+03  0.16461725773E+03  0.00000000000E+00 0.  1.
<mgrwt>
<rscale>  0 0.18804042E+04</rscale>
<asrwt>0</asrwt>
<pdfrwt beam="1">  1        2 0.53707928E+00 0.18804042E+04</pdfrwt>
<pdfrwt beam="2">  1       -1 0.38956266E-01 0.18804042E+04</pdfrwt>
<totfact> 0.56700448E+00</totfact>
</mgrwt>
</event>
<event>
12    6  0.1542110E-007  0.1938378E+04  0.7818608E-02  0.8635986E-01
          2   -1    0    0  501    0  0.00000000000E+00  0.00000000000E+00  0.20111969179E+04  0.20111969179E+04  0.00000000000E+00 0. -1.
         -1   -1    0    0    0  501 -0.00000000000E+00 -0.00000000000E+00 -0.46704888113E+03  0.46704888113E+03  0.00000000000E+00 0.  1.
         24    2    1    2    0    0 -0.57819537080E+03  0.33561141869E+03  0.10947611147E+04  0.12851941618E+04  0.79228933807E+02 0.  0.
        254    2    1    2    0    0  0.57819537080E+03 -0.33561141869E+03  0.44938692203E+03  0.11930516372E+04  0.88004471039E+03 0.  0.
         23    2    4    4    0    0  0.92437768733E+02 -0.53465956702E+03  0.34761781826E+03  0.65088780875E+03  0.91712585362E+02 0.  0.
         23    2    4    4    0    0  0.48575760207E+03  0.19904814833E+03  0.10176910377E+03  0.54216382850E+03  0.89465373931E+02 0.  0.
          2    1    3    3  502    0 -0.31953101272E+03  0.20723549215E+03  0.68758009970E+03  0.78601082105E+03  0.00000000000E+00 0. -1.
         -1    1    3    3    0  502 -0.25866435808E+03  0.12837592654E+03  0.40718101504E+03  0.49918334073E+03  0.00000000000E+00 0.  1.
         11    1    5    5    0    0  0.96351441392E+02 -0.30757814805E+03  0.18595683999E+03  0.37211270302E+03  0.00000000000E+00 0.  1.
        -11    1    5    5    0    0 -0.39136726591E+01 -0.22708141897E+03  0.16166097827E+03  0.27877510572E+03  0.00000000000E+00 0. -1.
          4    1    6    6  503    0  0.28172016936E+02  0.27191549511E+02 -0.10716209010E+02  0.40594088715E+02  0.00000000000E+00 0. -1.
         -4    1    6    6    0  503  0.45758558513E+03  0.17185659882E+03  0.11248531278E+03  0.50156973978E+03  0.00000000000E+00 0.  1.
<mgrwt>
<rscale>  0 0.19383780E+04</rscale>
<asrwt>0</asrwt>
<pdfrwt beam="1">  1        2 0.30941491E+00 0.19383780E+04</pdfrwt>
<pdfrwt beam="2">  1       -1 0.71853675E-01 0.19383780E+04</pdfrwt>
<totfact> 0.13687088E+01</totfact>
</mgrwt>
</event>
<event>
12    6  0.1542110E-007  0.1147474E+04  0.7818608E-02  0.9160117E-01
         -1   -1    0    0    0  501 -0.00000000000E+00  0.00000000000E+00  0.10761258420E+03  0.10761258420E+03  0.00000000000E+00 0.  1.
          2   -1    0    0  501    0  0.00000000000E+00 -0.00000000000E+00 -0.30588833109E+04  0.30588833109E+04  0.00000000000E+00 0. -1.
         24    2    1    2    0    0  0.15697862834E+03  0.66665148572E+02 -0.98100069614E+03  0.99898588259E+03  0.80770638272E+02 0.  0.
        254    2    1    2    0    0 -0.15697862834E+03 -0.66665148572E+02 -0.19702700306E+04  0.21675100125E+04  0.88715789417E+03 0.  0.
         23    2    4    4    0    0 -0.12579908855E+03  0.19601119320E+03 -0.90671969393E+02  0.26685379174E+03  0.93507976106E+02 0.  0.
         23    2    4    4    0    0 -0.31179539794E+02 -0.26267634177E+03 -0.18795980612E+04  0.19006562208E+04  0.98153826943E+02 0.  0.
          2    1    3    3  502    0  0.14283580328E+03  0.38924992502E+02 -0.90203296557E+03  0.91410102982E+03  0.00000000000E+00 0. -1.
         -1    1    3    3    0  502  0.14142825065E+02  0.27740156070E+02 -0.78967730568E+02  0.84884852776E+02  0.00000000000E+00 0.  1.
         11    1    5    5    0    0 -0.46423043290E+02  0.11349108836E+03 -0.30195993161E+01  0.12265579507E+03  0.00000000000E+00 0.  1.
        -11    1    5    5    0    0 -0.79376045256E+02  0.82520104841E+02 -0.87652370077E+02  0.14419799667E+03  0.00000000000E+00 0. -1.
          4    1    6    6  503    0 -0.36262178574E+02 -0.12757679834E+03 -0.63280449607E+03  0.64655418591E+03  0.00000000000E+00 0. -1.
         -4    1    6    6    0  503  0.50826387800E+01 -0.13509954343E+03 -0.12467935651E+04  0.12541020349E+04  0.00000000000E+00 0.  1.
<mgrwt>
<rscale>  0 0.11474743E+04</rscale>
<asrwt>0</asrwt>
<pdfrwt beam="1">  1        2 0.47059753E+00 0.11474743E+04</pdfrwt>
<pdfrwt beam="2">  1       -1 0.16555779E-01 0.11474743E+04</pdfrwt>
<totfact> 0.51367996E+01</totfact>
</mgrwt>
</event>
<event>
12    6  0.1542110E-007  0.1500149E+04  0.7818608E-02  0.8884354E-01
         -1   -1    0    0    0  501 -0.00000000000E+00  0.00000000000E+00  0.19689884177E+03  0.19689884177E+03  0.00000000000E+00 0.  1.
          2   -1    0    0  501    0  0.00000000000E+00 -0.00000000000E+00 -0.28573659889E+04  0.28573659889E+04  0.00000000000E+00 0. -1.
         24    2    1    2    0    0  0.24325336714E+03 -0.36795565410E+03 -0.11950747777E+04  0.12767668353E+04  0.85826938499E+02 0.  0.
        254    2    1    2    0    0 -0.24325336714E+03  0.36795565410E+03 -0.14653923694E+04  0.17774979953E+04  0.90419066749E+03 0.  0.
         23    2    4    4    0    0 -0.39717508265E+02 -0.28826981608E+03 -0.35133506495E+03  0.46546179797E+03  0.92419641769E+02 0.  0.
         23    2    4    4    0    0 -0.20353585888E+03  0.65622547018E+03 -0.11140573044E+04  0.13120361973E+04  0.90865791551E+02 0.  0.
          4    1    3    3  502    0  0.16931561147E+03 -0.19131088114E+03 -0.61699409512E+03  0.66779438673E+03  0.00000000000E+00 0. -1.
         -3    1    3    3    0  502  0.73937755673E+02 -0.17664477296E+03 -0.57808068261E+03  0.60897244858E+03  0.00000000000E+00 0.  1.
         11    1    5    5    0    0  0.11729503666E+02 -0.14492466348E+01 -0.26865213759E+02  0.29349979256E+02  0.00000000000E+00 0.  1.
        -11    1    5    5    0    0 -0.51447011931E+02 -0.28682056944E+03 -0.32446985119E+03  0.43611181872E+03  0.00000000000E+00 0. -1.
          3    1    6    6  503    0 -0.21015116632E+03  0.63549172987E+03 -0.10935505499E+04  0.12821334005E+04  0.00000000000E+00 0. -1.
         -3    1    6    6    0  503  0.66153074404E+01  0.20733740306E+02 -0.20506754492E+02  0.29902796849E+02  0.00000000000E+00 0.  1.
<mgrwt>
<rscale>  0 0.15001494E+04</rscale>
<asrwt>0</asrwt>
<pdfrwt beam="1">  1        2 0.43959480E+00 0.15001494E+04</pdfrwt>
<pdfrwt beam="2">  1       -1 0.30292127E-01 0.15001494E+04</pdfrwt>
<totfact> 0.23688908E+01</totfact>
</mgrwt>
</event>
<event>
12    6  0.1542110E-007  0.1155965E+04  0.7818608E-02  0.9152298E-01
         -1   -1    0    0    0  501 -0.00000000000E+00  0.00000000000E+00  0.66033981884E+03  0.66033981884E+03  0.00000000000E+00 0.  1.
          2   -1    0    0  501    0  0.00000000000E+00 -0.00000000000E+00 -0.50589659163E+03  0.50589659163E+03  0.00000000000E+00 0. -1.
         24    2    1    2    0    0  0.10999269203E+03 -0.16417308336E+02  0.27413972675E+03  0.30660606704E+03  0.80540488264E+02 0.  0.
        254    2    1    2    0    0 -0.10999269203E+03  0.16417308336E+02 -0.11969649953E+03  0.85963034343E+03  0.84396039897E+03 0.  0.
         23    2    4    4    0    0 -0.97593467159E+02  0.96035388221E+02  0.34380211954E+03  0.38051282736E+03  0.88559775087E+02 0.  0.
         23    2    4    4    0    0 -0.12399224870E+02 -0.79618079885E+02 -0.46349861907E+03  0.47911751607E+03  0.90718492646E+02 0.  0.
          4    1    3    3  502    0  0.41204178610E+02 -0.37047050822E+02  0.64637410875E+02  0.85136732344E+02  0.00000000000E+00 0. -1.
         -3    1    3    3    0  502  0.68788513419E+02  0.20629742486E+02  0.20950231587E+03  0.22146933469E+03  0.00000000000E+00 0.  1.
         11    1    5    5    0    0 -0.68527517975E+02  0.97813646836E+02  0.19329616357E+03  0.22721561804E+03  0.00000000000E+00 0. -1.
        -11    1    5    5    0    0 -0.29065949184E+02 -0.17782586151E+01  0.15050595596E+03  0.15329720932E+03  0.00000000000E+00 0.  1.
          3    1    6    6  503    0 -0.66021383275E+01  0.39090278522E+01  0.43898205184E+00  0.76851437519E+01  0.00000000000E+00 0. -1.
         -3    1    6    6    0  503 -0.57970865427E+01 -0.83527107737E+02 -0.46393760112E+03  0.47143237232E+03  0.00000000000E+00 0.  1.
<mgrwt>
<rscale>  0 0.11559648E+04</rscale>
<asrwt>0</asrwt>
<pdfrwt beam="1">  1        2 0.77830244E-01 0.11559648E+04</pdfrwt>
<pdfrwt beam="2">  1       -1 0.10159074E+00 0.11559648E+04</pdfrwt>
<totfact> 0.63211800E+01</totfact>
</mgrwt>
</event>
<event>
12    6  0.1542110E-007  0.2793893E+04  0.7818608E-02  0.8305167E-01
         -1   -1    0    0    0  501 -0.00000000000E+00  0.00000000000E+00  0.14550886061E+04  0.14550886061E+04  0.00000000000E+00 0.  1.
          2   -1    0    0  501    0  0.00000000000E+00 -0.00000000000E+00 -0.13411274720E+04  0.13411274720E+04  0.00000000000E+00 0. -1.
         24    2    1    2    0    0  0.46737853960E+00 -0.99776623547E+03 -0.70287590780E+03  0.12230349378E+04  0.79007837115E+02 0.  0.
        254    2    1    2    0    0 -0.46737853960E+00  0.99776623547E+03  0.81683704191E+03  0.15731811402E+04  0.90118725456E+03 0.  0.
         23    2    4    4    0    0  0.42229354712E+02  0.11450594445E+04  0.78631076615E+03  0.13926178773E+04  0.90307704091E+02 0.  0.
         23    2    4    4    0    0 -0.42696733251E+02 -0.14729320902E+03  0.30526275760E+02  0.18056326290E+03  0.90293620733E+02 0.  0.
          2    1    3    3  502    0 -0.20829442521E+02 -0.91768192687E+03 -0.64946580489E+03  0.11244464488E+04  0.00000000000E+00 0. -1.
         -1    1    3    3    0  502  0.21296821060E+02 -0.80084308596E+02 -0.53410102912E+02  0.98588489002E+02  0.00000000000E+00 0.  1.
         11    1    5    5    0    0 -0.49117212889E+01  0.21340191739E+03  0.18749445861E+03  0.28411032252E+03  0.00000000000E+00 0.  1.
        -11    1    5    5    0    0  0.47141076001E+02  0.93165752710E+03  0.59881630753E+03  0.11085075548E+04  0.00000000000E+00 0. -1.
          3    1    6    6  503    0 -0.40142021561E+00 -0.13209432241E+03  0.14679684878E+02  0.13290810472E+03  0.00000000000E+00 0. -1.
         -3    1    6    6    0  503 -0.42295313036E+02 -0.15198886604E+02  0.15846590882E+02  0.47655158182E+02  0.00000000000E+00 0.  1.
<mgrwt>
<rscale>  0 0.27938928E+04</rscale>
<asrwt>0</asrwt>
<pdfrwt beam="1">  1        2 0.20632730E+00 0.27938928E+04</pdfrwt>
<pdfrwt beam="2">  1       -1 0.22385979E+00 0.27938928E+04</pdfrwt>
<totfact> 0.16090128E+00</totfact>
</mgrwt>
</event>
<event>
12    6  0.1542110E-007  0.1793264E+04  0.7818608E-02  0.8709890E-01
         -1   -1    0    0    0  501 -0.00000000000E+00  0.00000000000E+00  0.24092872606E+03  0.24092872606E+03  0.00000000000E+00 0.  1.
          2   -1    0    0  501    0  0.00000000000E+00 -0.00000000000E+00 -0.33368731700E+04  0.33368731700E+04  0.00000000000E+00 0. -1.
         24    2    1    2    0    0 -0.34869169958E+03 -0.45792349794E+02 -0.28459378743E+02  0.36161378971E+03  0.79194419084E+02 0.  0.
        254    2    1    2    0    0  0.34869169958E+03  0.45792349794E+02 -0.30674850652E+04  0.32161881063E+04  0.90039906132E+03 0.  0.
         23    2    4    4    0    0 -0.29413030555E+03 -0.47146018840E+02 -0.96074710030E+03  0.10097913167E+04  0.88927660602E+02 0.  0.
         23    2    4    4    0    0  0.64282200513E+03  0.92938368634E+02 -0.21067379649E+04  0.22063967896E+04  0.89354742595E+02 0.  0.
          4    1    3    3  502    0 -0.18716224918E+03  0.15157231991E+02 -0.18417945705E+02  0.18867609791E+03  0.00000000000E+00 0. -1.
         -3    1    3    3    0  502 -0.16152945040E+03 -0.60949581786E+02 -0.10041433038E+02  0.17293769179E+03  0.00000000000E+00 0.  1.
         11    1    5    5    0    0 -0.16396766765E+03 -0.56574550604E+02 -0.65017197631E+03  0.67291134229E+03  0.00000000000E+00 0. -1.
        -11    1    5    5    0    0 -0.13016263790E+03  0.94285317640E+01 -0.31057512399E+03  0.33687997441E+03  0.00000000000E+00 0.  1.
          3    1    6    6  503    0  0.51707133011E+03  0.84484986077E+02 -0.15721593865E+04  0.16571619142E+04  0.00000000000E+00 0. -1.
         -3    1    6    6    0  503  0.12575067502E+03  0.84533825573E+01 -0.53457857835E+03  0.54923487542E+03  0.00000000000E+00 0.  1.
<mgrwt>
<rscale>  0 0.17932636E+04</rscale>
<asrwt>0</asrwt>
<pdfrwt beam="1">  1        2 0.51336510E+00 0.17932636E+04</pdfrwt>
<pdfrwt beam="2">  1       -1 0.37065958E-01 0.17932636E+04</pdfrwt>
<totfact> 0.79710498E+00</totfact>
</mgrwt>
</event>
<event>
12    6  0.1542110E-007  0.1270710E+04  0.7818608E-02  0.9053121E-01
          2   -1    0    0  501    0  0.00000000000E+00  0.00000000000E+00  0.10847927234E+04  0.10847927234E+04  0.00000000000E+00 0. -1.
         -1   -1    0    0    0  501 -0.00000000000E+00 -0.00000000000E+00 -0.37212257745E+03  0.37212257745E+03  0.00000000000E+00 0.  1.
         24    2    1    2    0    0 -0.43692359174E+02 -0.53628713156E+02 -0.16693941767E+03  0.19743691288E+03  0.79545611253E+02 0.  0.
        254    2    1    2    0    0  0.43692359174E+02  0.53628713156E+02  0.87960956366E+03  0.12594783880E+04  0.89877013982E+03 0.  0.
         23    2    4    4    0    0  0.36623871260E+03 -0.15961997591E+03  0.72390217927E+03  0.83201785136E+03  0.92790131535E+02 0.  0.
         23    2    4    4    0    0 -0.32254635343E+03  0.21324868907E+03  0.15570738439E+03  0.42746053664E+03  0.94691960232E+02 0.  0.
          2    1    3    3  502    0  0.13120419445E+02 -0.28932153913E+02 -0.18915962227E+02  0.36973349367E+02  0.00000000000E+00 0. -1.
         -1    1    3    3    0  502 -0.56812778619E+02 -0.24696559243E+02 -0.14802345545E+03  0.16046356351E+03  0.00000000000E+00 0.  1.
         11    1    5    5    0    0  0.22358207240E+03 -0.64708660340E+02  0.48569541510E+03  0.53858721677E+03  0.00000000000E+00 0. -1.
        -11    1    5    5    0    0  0.14265664020E+03 -0.94911315573E+02  0.23820676417E+03  0.29343063459E+03  0.00000000000E+00 0.  1.
          1    1    6    6  503    0 -0.29276496842E+03  0.20718430727E+03  0.16621541185E+03  0.39530270306E+03  0.00000000000E+00 0. -1.
         -1    1    6    6    0  503 -0.29781385001E+02  0.60643818038E+01 -0.10508027457E+02  0.32157833576E+02  0.00000000000E+00 0.  1.
<mgrwt>
<rscale>  0 0.12707098E+04</rscale>
<asrwt>0</asrwt>
<pdfrwt beam="1">  1        2 0.16689119E+00 0.12707098E+04</pdfrwt>
<pdfrwt beam="2">  1       -1 0.57249628E-01 0.12707098E+04</pdfrwt>
<totfact> 0.77042068E+01</totfact>
</mgrwt>
</event>
<event>
12    6  0.1542110E-007  0.1476545E+04  0.7818608E-02  0.8900202E-01
          2   -1    0    0  501    0  0.00000000000E+00  0.00000000000E+00  0.12553613078E+04  0.12553613078E+04  0.00000000000E+00 0. -1.
         -1   -1    0    0    0  501 -0.00000000000E+00 -0.00000000000E+00 -0.43417478947E+03  0.43417478947E+03  0.00000000000E+00 0.  1.
         24    2    1    2    0    0 -0.31597905122E+03  0.16719205077E+03  0.57698104085E+03  0.68340745218E+03  0.79640953882E+02 0.  0.
        254    2    1    2    0    0  0.31597905122E+03 -0.16719205077E+03  0.24420547745E+03  0.10061286451E+04  0.90821946278E+03 0.  0.
         23    2    4    4    0    0 -0.18600752750E+03  0.25587805987E+02  0.39025714554E+03  0.44244633057E+03  0.90579134924E+02 0.  0.
         23    2    4    4    0    0  0.50198657872E+03 -0.19277985676E+03 -0.14605166809E+03  0.56368231451E+03  0.85159048536E+02 0.  0.
          4    1    3    3  502    0 -0.25900350349E+03  0.12900164202E+03  0.51617781489E+03  0.59174637730E+03  0.00000000000E+00 0. -1.
         -3    1    3    3    0  502 -0.56975547732E+02  0.38190408754E+02  0.60803225964E+02  0.91661074878E+02  0.00000000000E+00 0.  1.
         11    1    5    5    0    0 -0.54515724908E+02 -0.10429577284E+02  0.20530467592E+03  0.21267522258E+03  0.00000000000E+00 0. -1.
        -11    1    5    5    0    0 -0.13149180259E+03  0.36017383271E+02  0.18495246962E+03  0.22977110798E+03  0.00000000000E+00 0.  1.
          2    1    6    6  503    0  0.74358634603E+00 -0.21919876555E+01  0.58816033695E+01  0.63206794518E+01  0.00000000000E+00 0. -1.
         -2    1    6    6    0  503  0.50124299238E+03 -0.19058786910E+03 -0.15193327146E+03  0.55736163506E+03  0.00000000000E+00 0.  1.
<mgrwt>
<rscale>  0 0.14765449E+04</rscale>
<asrwt>0</asrwt>
<pdfrwt beam="1">  1        2 0.19313251E+00 0.14765449E+04</pdfrwt>
<pdfrwt beam="2">  1       -1 0.66796122E-01 0.14765449E+04</pdfrwt>
<totfact> 0.43998767E+01</totfact>
</mgrwt>
</event>
<event>
12    6  0.1542110E-007  0.3093185E+04  0.7818608E-02  0.8217611E-01
          2   -1    0    0  501    0  0.00000000000E+00  0.00000000000E+00  0.11494795169E+04  0.11494795169E+04  0.00000000000E+00 0. -1.
         -3   -1    0    0    0  501 -0.00000000000E+00 -0.00000000000E+00 -0.20808963851E+04  0.20808963851E+04  0.00000000000E+00 0.  1.
         24    2    1    2    0    0  0.41436107564E+03 -0.12423469530E+04 -0.98108759412E+03  0.16382868052E+04  0.79559640076E+02 0.  0.
        254    2    1    2    0    0 -0.41436107564E+03  0.12423469530E+04  0.49670725917E+02  0.15920890967E+04  0.90396872643E+03 0.  0.
         23    2    4    4    0    0 -0.14243517074E+03  0.10497679597E+04  0.36530748311E+03  0.11243539256E+04  0.91769525101E+02 0.  0.
         23    2    4    4    0    0 -0.27192590490E+03  0.19257899330E+03 -0.31563675719E+03  0.46773517116E+03  0.90106944408E+02 0.  0.
          4    1    3    3  502    0  0.15559773331E+03 -0.54994537991E+03 -0.39131716022E+03  0.69266131362E+03  0.00000000000E+00 0. -1.
         -3    1    3    3    0  502  0.25876334233E+03 -0.69240157304E+03 -0.58977043389E+03  0.94562549161E+03  0.00000000000E+00 0.  1.
         11    1    5    5    0    0 -0.52718236529E+02  0.19684795502E+03  0.97340980535E+02  0.22583975813E+03  0.00000000000E+00 0. -1.
        -11    1    5    5    0    0 -0.89716934215E+02  0.85292000463E+03  0.26796650257E+03  0.89851416744E+03  0.00000000000E+00 0.  1.
          2    1    6    6  503    0 -0.20062004463E+03  0.13393822237E+03 -0.16927723679E+03  0.29469074063E+03  0.00000000000E+00 0.  1.
         -2    1    6    6    0  503 -0.71305860270E+02  0.58640770936E+02 -0.14635952040E+03  0.17304443052E+03  0.00000000000E+00 0. -1.
<mgrwt>
<rscale>  0 0.30931846E+04</rscale>
<asrwt>0</asrwt>
<pdfrwt beam="1">  1        2 0.17684301E+00 0.30931846E+04</pdfrwt>
<pdfrwt beam="2">  1       -3 0.32013790E+00 0.30931846E+04</pdfrwt>
<totfact> 0.31679654E-01</totfact>
</mgrwt>
</event>
<event>
12    6  0.1542110E-007  0.1596176E+04  0.7818608E-02  0.8822901E-01
          2   -1    0    0  501    0  0.00000000000E+00  0.00000000000E+00  0.13174815604E+04  0.13174815604E+04  0.00000000000E+00 0. -1.
         -1   -1    0    0    0  501 -0.00000000000E+00 -0.00000000000E+00 -0.48345584859E+03  0.48345584859E+03  0.00000000000E+00 0.  1.
         24    2    1    2    0    0 -0.12963679250E+03  0.30412744378E+03  0.73315158998E+03  0.80827318373E+03  0.80592094007E+02 0.  0.
        254    2    1    2    0    0  0.12963679250E+03 -0.30412744378E+03  0.10087412180E+03  0.99266422523E+03  0.93054149589E+03 0.  0.
         23    2    4    4    0    0  0.18225849155E+03 -0.56900839096E+03 -0.13746960640E+03  0.62064151908E+03  0.96484692036E+02 0.  0.
         23    2    4    4    0    0 -0.52621699053E+02  0.26488094718E+03  0.23834372820E+03  0.37202270615E+03  0.93070949965E+02 0.  0.
          4    1    3    3  502    0 -0.40569557282E+02  0.84317981681E+02  0.13004701551E+03  0.16021122700E+03  0.00000000000E+00 0. -1.
         -3    1    3    3    0  502 -0.89067235217E+02  0.21980946210E+03  0.60310457447E+03  0.64806195674E+03  0.00000000000E+00 0.  1.
         11    1    5    5    0    0  0.79531688371E+02 -0.33870687851E+03 -0.11933801146E+03  0.36781680221E+03  0.00000000000E+00 0.  1.
        -11    1    5    5    0    0  0.10272680318E+03 -0.23030151245E+03 -0.18131594943E+02  0.25282471688E+03  0.00000000000E+00 0. -1.
          3    1    6    6  503    0 -0.53375789950E+02  0.62908908924E+02  0.54254164468E+02  0.98742190258E+02  0.00000000000E+00 0. -1.
         -3    1    6    6    0  503  0.75409089658E+00  0.20197203826E+03  0.18408956373E+03  0.27328051589E+03  0.00000000000E+00 0.  1.
<mgrwt>
<rscale>  0 0.15961756E+04</rscale>
<asrwt>0</asrwt>
<pdfrwt beam="1">  1        2 0.20268947E+00 0.15961756E+04</pdfrwt>
<pdfrwt beam="2">  1       -1 0.74377823E-01 0.15961756E+04</pdfrwt>
<totfact> 0.32125688E+01</totfact>
</mgrwt>
</event>
<event>
12    6  0.1542110E-007  0.1917512E+04  0.7818608E-02  0.8646188E-01
         -1   -1    0    0    0  501 -0.00000000000E+00  0.00000000000E+00  0.40304443944E+03  0.40304443944E+03  0.00000000000E+00 0.  1.
          2   -1    0    0  501    0  0.00000000000E+00 -0.00000000000E+00 -0.22806749481E+04  0.22806749481E+04  0.00000000000E+00 0. -1.
         24    2    1    2    0    0 -0.20555543923E+03 -0.70610781849E+03 -0.88095311195E+03  0.11502161321E+04  0.77958163298E+02 0.  0.
        254    2    1    2    0    0  0.20555543923E+03  0.70610781849E+03 -0.99667739670E+03  0.15335032554E+04  0.90411565150E+03 0.  0.
         23    2    4    4    0    0  0.39321706684E+03  0.66789172708E+03 -0.35389486994E+03  0.85675422537E+03  0.89928877307E+02 0.  0.
         23    2    4    4    0    0 -0.18766162761E+03  0.38216091416E+02 -0.64278252677E+03  0.67674903003E+03  0.90235895331E+02 0.  0.
          2    1    3    3  502    0 -0.10438337884E+03 -0.36737923108E+03 -0.39684256182E+03  0.55076983222E+03  0.00000000000E+00 0. -1.
         -1    1    3    3    0  502 -0.10117206039E+03 -0.33872858741E+03 -0.48411055013E+03  0.59944629991E+03  0.00000000000E+00 0.  1.
         11    1    5    5    0    0  0.16204738787E+03  0.20646775785E+03 -0.92910530626E+02  0.27842531790E+03  0.00000000000E+00 0.  1.
        -11    1    5    5    0    0  0.23116967897E+03  0.46142396922E+03 -0.26098433931E+03  0.57832890747E+03  0.00000000000E+00 0. -1.
          3    1    6    6  503    0 -0.91938713524E+02 -0.27048557095E+02 -0.29528984728E+03  0.31045200175E+03  0.00000000000E+00 0. -1.
         -3    1    6    6    0  503 -0.95722914089E+02  0.65264648511E+02 -0.34749267949E+03  0.36629702828E+03  0.00000000000E+00 0.  1.
<mgrwt>
<rscale>  0 0.19175123E+04</rscale>
<asrwt>0</asrwt>
<pdfrwt beam="1">  1        2 0.35087307E+00 0.19175123E+04</pdfrwt>
<pdfrwt beam="2">  1       -1 0.62006837E-01 0.19175123E+04</pdfrwt>
<totfact> 0.13063771E+01</totfact>
</mgrwt>
</event>
<event>
12    6  0.1542110E-007  0.1584852E+04  0.7818608E-02  0.8829909E-01
          2   -1    0    0  501    0  0.00000000000E+00  0.00000000000E+00  0.61331141012E+03  0.61331141012E+03  0.00000000000E+00 0. -1.
         -1   -1    0    0    0  501 -0.00000000000E+00 -0.00000000000E+00 -0.10238496767E+04  0.10238496767E+04  0.00000000000E+00 0.  1.
         24    2    1    2    0    0 -0.56795596826E+01 -0.22044977855E+03 -0.64044177588E+03  0.68126216770E+03  0.72952796991E+02 0.  0.
        254    2    1    2    0    0  0.56795596826E+01  0.22044977855E+03  0.22990350927E+03  0.95589891916E+03  0.90125288227E+03 0.  0.
         23    2    4    4    0    0 -0.28392273840E+03 -0.13619807539E+03 -0.14257912465E+03  0.35786346177E+03  0.92603527821E+02 0.  0.
         23    2    4    4    0    0  0.28960229808E+03  0.35664785394E+03  0.37248263392E+03  0.59803545738E+03  0.88520692164E+02 0.  0.
          4    1    3    3  502    0 -0.94518146641E+00 -0.11391811154E+01  0.19507096455E+01  0.24487486068E+01  0.00000000000E+00 0. -1.
         -3    1    3    3    0  502 -0.47343782162E+01 -0.21931059744E+03 -0.64239248553E+03  0.67881341910E+03  0.00000000000E+00 0.  1.
         11    1    5    5    0    0 -0.54359843797E+02 -0.74381990192E+01 -0.61574981798E+02  0.82473012590E+02  0.00000000000E+00 0. -1.
        -11    1    5    5    0    0 -0.22956289460E+03 -0.12875987637E+03 -0.81004142855E+02  0.27539044918E+03  0.00000000000E+00 0.  1.
          1    1    6    6  503    0  0.78764890796E+02  0.15416961434E+03  0.10962159313E+03  0.20491235124E+03  0.00000000000E+00 0. -1.
         -1    1    6    6    0  503  0.21083740729E+03  0.20247823960E+03  0.26286104079E+03  0.39312310615E+03  0.00000000000E+00 0.  1.
<mgrwt>
<rscale>  0 0.15848517E+04</rscale>
<asrwt>0</asrwt>
<pdfrwt beam="1">  1        2 0.94355603E-01 0.15848517E+04</pdfrwt>
<pdfrwt beam="2">  1       -1 0.15751533E+00 0.15848517E+04</pdfrwt>
<totfact> 0.16168665E+01</totfact>
</mgrwt>
</event>
<event>
12    6  0.1542110E-007  0.2746874E+04  0.7818608E-02  0.8319954E-01
         -1   -1    0    0    0  501 -0.00000000000E+00  0.00000000000E+00  0.77825996646E+03  0.77825996646E+03  0.00000000000E+00 0.  1.
          2   -1    0    0  501    0  0.00000000000E+00 -0.00000000000E+00 -0.24237772703E+04  0.24237772703E+04  0.00000000000E+00 0. -1.
         24    2    1    2    0    0  0.38219009319E+03 -0.11491071337E+03 -0.20847745924E+04  0.21241363880E+04  0.79978460973E+02 0.  0.
        254    2    1    2    0    0 -0.38219009319E+03  0.11491071337E+03  0.43925728864E+03  0.10779008487E+04  0.89980527596E+03 0.  0.
         23    2    4    4    0    0 -0.46061966827E+03  0.36646555672E+03  0.50287208025E+02  0.59803507718E+03  0.93003587028E+02 0.  0.
         23    2    4    4    0    0  0.78429575078E+02 -0.25155484335E+03  0.38897008061E+03  0.47986577153E+03  0.97685196492E+02 0.  0.
          2    1    3    3  502    0  0.31592370268E+03 -0.12311728723E+03 -0.16774291810E+04  0.17113545248E+04  0.00000000000E+00 0. -1.
         -1    1    3    3    0  502  0.66266390508E+02  0.82065738576E+01 -0.40734541141E+03  0.41278186317E+03  0.00000000000E+00 0.  1.
         11    1    5    5    0    0 -0.64901597302E+02  0.15403127819E+02  0.10723594329E+02  0.67560855192E+02  0.00000000000E+00 0.  1.
        -11    1    5    5    0    0 -0.39571807096E+03  0.35106242890E+03  0.39563613696E+02  0.53047422199E+03  0.00000000000E+00 0. -1.
          1    1    6    6  503    0 -0.19000825919E+02 -0.73843776297E+02  0.81466820164E+02  0.11158305190E+03  0.00000000000E+00 0.  1.
         -1    1    6    6    0  503  0.97430400997E+02 -0.17771106705E+03  0.30750326045E+03  0.36828271963E+03  0.00000000000E+00 0. -1.
<mgrwt>
<rscale>  0 0.27468737E+04</rscale>
<asrwt>0</asrwt>
<pdfrwt beam="1">  1        2 0.37288881E+00 0.27468737E+04</pdfrwt>
<pdfrwt beam="2">  1       -1 0.11973230E+00 0.27468737E+04</pdfrwt>
<totfact> 0.23824409E+00</totfact>
</mgrwt>
</event>
<event>
12    6  0.1542110E-007  0.1650776E+04  0.7818608E-02  0.8789947E-01
         -1   -1    0    0    0  501 -0.00000000000E+00  0.00000000000E+00  0.38895301397E+03  0.38895301397E+03  0.00000000000E+00 0.  1.
          2   -1    0    0  501    0  0.00000000000E+00 -0.00000000000E+00 -0.17515371154E+04  0.17515371154E+04  0.00000000000E+00 0. -1.
         24    2    1    2    0    0 -0.28441402048E+03  0.45292835907E+03 -0.76341632012E+03  0.93811605770E+03  0.10593312235E+03 0.  0.
        254    2    1    2    0    0  0.28441402048E+03 -0.45292835907E+03 -0.59916778127E+03  0.12023740716E+04  0.89479938786E+03 0.  0.
         23    2    4    4    0    0  0.17272099327E+03  0.18644441749E+03  0.54886526664E+02  0.27637559003E+03  0.93684970111E+02 0.  0.
         23    2    4    4    0    0  0.11169302721E+03 -0.63937277656E+03 -0.65405430793E+03  0.92599848160E+03  0.91723881611E+02 0.  0.
          2    1    3    3  502    0 -0.28924008311E+02  0.66780362411E+02 -0.17384478832E+03  0.18846279603E+03  0.00000000000E+00 0. -1.
         -1    1    3    3    0  502 -0.25549001217E+03  0.38614799666E+03 -0.58957153180E+03  0.74965326168E+03  0.00000000000E+00 0.  1.
         11    1    5    5    0    0  0.18240853363E+03  0.16390626797E+03  0.42472838075E+02  0.24888165821E+03  0.00000000000E+00 0. -1.
        -11    1    5    5    0    0 -0.96875403632E+01  0.22538149525E+02  0.12413688589E+02  0.27493931816E+02  0.00000000000E+00 0.  1.
          1    1    6    6  503    0  0.10577040257E+03 -0.53334688336E+03 -0.58834324205E+03  0.80112049438E+03  0.00000000000E+00 0. -1.
         -1    1    6    6    0  503  0.59226246408E+01 -0.10602589320E+03 -0.65711065880E+02  0.12487798721E+03  0.00000000000E+00 0.  1.
<mgrwt>
<rscale>  0 0.16507764E+04</rscale>
<asrwt>0</asrwt>
<pdfrwt beam="1">  1        2 0.26946725E+00 0.16507764E+04</pdfrwt>
<pdfrwt beam="2">  1       -1 0.59838926E-01 0.16507764E+04</pdfrwt>
<totfact> 0.28284905E+01</totfact>
</mgrwt>
</event>
<event>
12    6  0.1542110E-007  0.3904584E+04  0.7818608E-02  0.8024077E-01
         -1   -1    0    0    0  501 -0.00000000000E+00  0.00000000000E+00  0.11380665635E+04  0.11380665635E+04  0.00000000000E+00 0.  1.
          2   -1    0    0  501    0  0.00000000000E+00 -0.00000000000E+00 -0.33490515999E+04  0.33490515999E+04  0.00000000000E+00 0. -1.
         24    2    1    2    0    0  0.94619126886E+03  0.89294370190E+03  0.46005801616E+03  0.13824507469E+04  0.83007934707E+02 0.  0.
        254    2    1    2    0    0 -0.94619126886E+03 -0.89294370190E+03 -0.26710430525E+04  0.31046674165E+04  0.90103407633E+03 0.  0.
         23    2    4    4    0    0 -0.82670030632E+03 -0.72127724488E+03 -0.26576751353E+04  0.28766642233E+04  0.91025646767E+02 0.  0.
         23    2    4    4    0    0 -0.11949096254E+03 -0.17166645702E+03 -0.13367917194E+02  0.22800319319E+03  0.89773561243E+02 0.  0.
          2    1    3    3  502    0  0.53408524571E+02  0.77981920548E+02  0.25435724932E+02  0.97880674967E+02  0.00000000000E+00 0. -1.
         -1    1    3    3    0  502  0.89278274429E+03  0.81496178136E+03  0.43462229122E+03  0.12845700719E+04  0.00000000000E+00 0.  1.
         11    1    5    5    0    0 -0.33121737457E+03 -0.24448385361E+03 -0.10708950284E+04  0.11472983333E+04  0.00000000000E+00 0.  1.
        -11    1    5    5    0    0 -0.49548293175E+03 -0.47679339127E+03 -0.15867801070E+04  0.17293658900E+04  0.00000000000E+00 0. -1.
          2    1    6    6  503    0 -0.11542651976E+03 -0.93668181025E+02  0.64481573261E+00  0.14865202787E+03  0.00000000000E+00 0. -1.
         -2    1    6    6    0  503 -0.40644427757E+01 -0.77998276000E+02 -0.14012732927E+02  0.79351165323E+02  0.00000000000E+00 0.  1.
<mgrwt>
<rscale>  0 0.39045838E+04</rscale>
<asrwt>0</asrwt>
<pdfrwt beam="1">  1        2 0.51523870E+00 0.39045838E+04</pdfrwt>
<pdfrwt beam="2">  1       -1 0.17508717E+00 0.39045838E+04</pdfrwt>
<totfact> 0.21013595E-01</totfact>
</mgrwt>
</event>
<event>
12    6  0.1542110E-007  0.1609682E+04  0.7818608E-02  0.8814622E-01
         -3   -1    0    0    0  501 -0.00000000000E+00  0.00000000000E+00  0.23396074189E+04  0.23396074189E+04  0.00000000000E+00 0.  1.
          4   -1    0    0  501    0  0.00000000000E+00 -0.00000000000E+00 -0.27687080658E+03  0.27687080658E+03  0.00000000000E+00 0. -1.
         24    2    1    2    0    0 -0.17414581998E+03  0.20575371579E+03 -0.59927329985E+02  0.28718990362E+03  0.78901189396E+02 0.  0.
        254    2    1    2    0    0  0.17414581998E+03 -0.20575371579E+03  0.21226639423E+04  0.23292883219E+04  0.92044582469E+03 0.  0.
         23    2    4    4    0    0  0.19216272438E+03  0.27099432923E+03  0.34909570677E+03  0.49044380579E+03  0.91120113199E+02 0.  0.
         23    2    4    4    0    0 -0.18016904402E+02 -0.47674804502E+03  0.17735682356E+04  0.18388445161E+04  0.90507242252E+02 0.  0.
          2    1    3    3  502    0 -0.17568741333E+03  0.20910716121E+03 -0.51415898053E+02  0.27791269608E+03  0.00000000000E+00 0. -1.
         -1    1    3    3    0  502  0.15415933544E+01 -0.33534454181E+01 -0.85114319319E+01  0.92772075418E+01  0.00000000000E+00 0.  1.
         11    1    5    5    0    0  0.12361859840E+03  0.23801401045E+03  0.27900942157E+03  0.38701225351E+03  0.00000000000E+00 0. -1.
        -11    1    5    5    0    0  0.68544125975E+02  0.32980318782E+02  0.70086285208E+02  0.10343155228E+03  0.00000000000E+00 0.  1.
          2    1    6    6  503    0 -0.46757915906E+02 -0.20361468401E+03  0.85070672251E+03  0.87598354435E+03  0.00000000000E+00 0. -1.
         -2    1    6    6    0  503  0.28741011504E+02 -0.27313336102E+03  0.92286151306E+03  0.96286097175E+03  0.00000000000E+00 0.  1.
<mgrwt>
<rscale>  0 0.16096819E+04</rscale>
<asrwt>0</asrwt>
<pdfrwt beam="1">  1        4 0.42595510E-01 0.16096819E+04</pdfrwt>
<pdfrwt beam="2">  1       -3 0.35993959E+00 0.16096819E+04</pdfrwt>
<totfact> 0.20932438E-01</totfact>
</mgrwt>
</event>
<event>
12    6  0.1542110E-007  0.1613876E+04  0.7818608E-02  0.8812069E-01
          2   -1    0    0  501    0  0.00000000000E+00  0.00000000000E+00  0.96515266437E+03  0.96515266437E+03  0.00000000000E+00 0. -1.
         -1   -1    0    0    0  501 -0.00000000000E+00 -0.00000000000E+00 -0.67465889495E+03  0.67465889495E+03  0.00000000000E+00 0.  1.
         24    2    1    2    0    0  0.25789663006E+02 -0.13855833882E+03 -0.43858686913E+03  0.46825642923E+03  0.83917350820E+02 0.  0.
        254    2    1    2    0    0 -0.25789663006E+02  0.13855833882E+03  0.72908063854E+03  0.11715551301E+04  0.90615634709E+03 0.  0.
         23    2    4    4    0    0 -0.15764583071E+03  0.16157792681E+03 -0.14135714792E+03  0.28539656656E+03  0.10251693792E+03 0.  0.
         23    2    4    4    0    0  0.13185616770E+03 -0.23019587990E+02  0.87043778647E+03  0.88615856354E+03  0.98484055686E+02 0.  0.
          2    1    3    3  502    0 -0.50892234040E+01 -0.88177959549E+01 -0.36198633092E+00  0.10187480280E+02  0.00000000000E+00 0. -1.
         -1    1    3    3    0  502  0.30878886410E+02 -0.12974054287E+03 -0.43822488279E+03  0.45806894895E+03  0.00000000000E+00 0.  1.
         11    1    5    5    0    0 -0.72665552655E+02  0.32968380509E+02 -0.56025158192E+01  0.79991154758E+02  0.00000000000E+00 0. -1.
        -11    1    5    5    0    0 -0.84980278054E+02  0.12860954630E+03 -0.13575463210E+03  0.20540541180E+03  0.00000000000E+00 0.  1.
          1    1    6    6  503    0  0.18179672502E+02 -0.29105675244E+02  0.73326620059E+02  0.80959459194E+02  0.00000000000E+00 0. -1.
         -1    1    6    6    0  503  0.11367649520E+03  0.60860872541E+01  0.79711116641E+03  0.80519910434E+03  0.00000000000E+00 0.  1.
<mgrwt>
<rscale>  0 0.16138759E+04</rscale>
<asrwt>0</asrwt>
<pdfrwt beam="1">  1        2 0.14848502E+00 0.16138759E+04</pdfrwt>
<pdfrwt beam="2">  1       -1 0.10379368E+00 0.16138759E+04</pdfrwt>
<totfact> 0.25371441E+01</totfact>
</mgrwt>
</event>
<event>
12    6  0.1542110E-007  0.1708311E+04  0.7818608E-02  0.8756638E-01
          2   -1    0    0  501    0  0.00000000000E+00  0.00000000000E+00  0.32814449613E+04  0.32814449613E+04  0.00000000000E+00 0. -1.
         -1   -1    0    0    0  501 -0.00000000000E+00 -0.00000000000E+00 -0.22233553755E+03  0.22233553755E+03  0.00000000000E+00 0.  1.
         24    2    1    2    0    0  0.11497907110E+03  0.30980189247E+03  0.46242764602E+02  0.34302213352E+03  0.79551187530E+02 0.  0.
        254    2    1    2    0    0 -0.11497907110E+03 -0.30980189247E+03  0.30128666591E+04  0.31607583653E+04  0.89656597017E+03 0.  0.
         23    2    4    4    0    0 -0.43387426797E+03 -0.33989079209E+01  0.93650223768E+03  0.10358242535E+04  0.87389987767E+02 0.  0.
         23    2    4    4    0    0  0.31889519687E+03 -0.30640298455E+03  0.20763644214E+04  0.21249341118E+04  0.92080581095E+02 0.  0.
          4    1    3    3  502    0 -0.18964179048E+01  0.90265680758E+02  0.13589341217E+01  0.90295826180E+02  0.00000000000E+00 0. -1.
         -3    1    3    3    0  502  0.11687548900E+03  0.21953621171E+03  0.44883830480E+02  0.25272630734E+03  0.00000000000E+00 0.  1.
         11    1    5    5    0    0 -0.72769161140E+00 -0.55331278617E+01  0.22005584343E+01  0.59989579460E+01  0.00000000000E+00 0.  1.
        -11    1    5    5    0    0 -0.43314657636E+03  0.21342199408E+01  0.93430167925E+03  0.10298252955E+04  0.00000000000E+00 0. -1.
          4    1    6    6  503    0  0.15111204637E+03 -0.96819147692E+02  0.70075989955E+03  0.72337627466E+03  0.00000000000E+00 0. -1.
         -4    1    6    6    0  503  0.16778315050E+03 -0.20958383685E+03  0.13756045219E+04  0.14015578372E+04  0.00000000000E+00 0.  1.
<mgrwt>
<rscale>  0 0.17083112E+04</rscale>
<asrwt>0</asrwt>
<pdfrwt beam="1">  1        2 0.50483765E+00 0.17083112E+04</pdfrwt>
<pdfrwt beam="2">  1       -1 0.34205470E-01 0.17083112E+04</pdfrwt>
<totfact> 0.10106730E+01</totfact>
</mgrwt>
</event>
<event>
12    6  0.1542110E-007  0.3561736E+04  0.7818608E-02  0.8099313E-01
          2   -1    0    0  501    0  0.00000000000E+00  0.00000000000E+00  0.15451963616E+04  0.15451963616E+04  0.00000000000E+00 0. -1.
         -1   -1    0    0    0  501 -0.00000000000E+00 -0.00000000000E+00 -0.20524842506E+04  0.20524842506E+04  0.00000000000E+00 0.  1.
         24    2    1    2    0    0  0.46002165932E+03  0.45643497563E+03  0.13060987705E+04  0.14601370633E+04  0.78443809232E+02 0.  0.
        254    2    1    2    0    0 -0.46002165932E+03 -0.45643497563E+03 -0.18133866596E+04  0.21375435489E+04  0.92777606799E+03 0.  0.
         23    2    4    4    0    0  0.58443277303E+02 -0.84789586488E+02 -0.13162212002E+04  0.13234674000E+04  0.92319122339E+02 0.  0.
         23    2    4    4    0    0 -0.51846493662E+03 -0.37164538914E+03 -0.49716545936E+03  0.81407614890E+03  0.92845551626E+02 0.  0.
          4    1    3    3  502    0  0.25644547902E+03  0.26601087913E+03  0.65828111582E+03  0.75489078612E+03  0.00000000000E+00 0. -1.
         -3    1    3    3    0  502  0.20357618029E+03  0.19042409650E+03  0.64781765473E+03  0.70524627719E+03  0.00000000000E+00 0.  1.
         11    1    5    5    0    0  0.10176306672E+02 -0.53881879569E+02 -0.26136127465E+03  0.26705154943E+03  0.00000000000E+00 0. -1.
        -11    1    5    5    0    0  0.48266970631E+02 -0.30907706919E+02 -0.10548599255E+04  0.10564158506E+04  0.00000000000E+00 0.  1.
          1    1    6    6  503    0 -0.87026223050E+02 -0.29975968090E+02 -0.48615342841E+02  0.10409406189E+03  0.00000000000E+00 0. -1.
         -1    1    6    6    0  503 -0.43143871357E+03 -0.34166942105E+03 -0.44855011652E+03  0.70998208701E+03  0.00000000000E+00 0.  1.
<mgrwt>
<rscale>  0 0.35617362E+04</rscale>
<asrwt>0</asrwt>
<pdfrwt beam="1">  1        2 0.23772252E+00 0.35617362E+04</pdfrwt>
<pdfrwt beam="2">  1       -1 0.31576681E+00 0.35617362E+04</pdfrwt>
<totfact> 0.29054315E-01</totfact>
</mgrwt>
</event>
<event>
12    6  0.1542110E-007  0.1296312E+04  0.7818608E-02  0.9032495E-01
          2   -1    0    0  501    0  0.00000000000E+00  0.00000000000E+00  0.67397159118E+03  0.67397159118E+03  0.00000000000E+00 0. -1.
         -1   -1    0    0    0  501 -0.00000000000E+00 -0.00000000000E+00 -0.62332952403E+03  0.62332952403E+03  0.00000000000E+00 0.  1.
         24    2    1    2    0    0  0.22428194898E+03 -0.19834241975E+03 -0.10674960996E+03  0.32818026353E+03  0.81637601833E+02 0.  0.
        254    2    1    2    0    0 -0.22428194898E+03  0.19834241975E+03  0.15739167711E+03  0.96912085169E+03  0.90817453006E+03 0.  0.
         23    2    4    4    0    0  0.10956932206E+03 -0.23467359204E+03 -0.17241117293E+03  0.32406025069E+03  0.90621754505E+02 0.  0.
         23    2    4    4    0    0 -0.33385127104E+03  0.43301601179E+03  0.32980285005E+03  0.64506060100E+03  0.91508040207E+02 0.  0.
          2    1    3    3  502    0  0.37932462780E+02 -0.80911575949E+02 -0.40953746556E+02  0.98299360181E+02  0.00000000000E+00 0. -1.
         -1    1    3    3    0  502  0.18634948620E+03 -0.11743084380E+03 -0.65795863403E+02  0.22988090335E+03  0.00000000000E+00 0.  1.
         11    1    5    5    0    0  0.90836870144E+02 -0.21585167402E+03 -0.18118493769E+03  0.29609333630E+03  0.00000000000E+00 0.  1.
        -11    1    5    5    0    0  0.18732451914E+02 -0.18821918017E+02  0.87737647577E+01  0.27966914391E+02  0.00000000000E+00 0. -1.
          2    1    6    6  503    0 -0.14192007323E+03  0.12010083262E+03  0.13256596531E+03  0.22834021183E+03  0.00000000000E+00 0. -1.
         -2    1    6    6    0  503 -0.19193119781E+03  0.31291517916E+03  0.19723688473E+03  0.41672038916E+03  0.00000000000E+00 0.  1.
<mgrwt>
<rscale>  0 0.12963123E+04</rscale>
<asrwt>0</asrwt>
<pdfrwt beam="1">  1        2 0.10368794E+00 0.12963123E+04</pdfrwt>
<pdfrwt beam="2">  1       -1 0.95896850E-01 0.12963123E+04</pdfrwt>
<totfact> 0.50488037E+01</totfact>
</mgrwt>
</event>
<event>
12    6  0.1542110E-007  0.1559087E+04  0.7818608E-02  0.8846084E-01
          2   -1    0    0  501    0  0.00000000000E+00  0.00000000000E+00  0.21790328419E+04  0.21790328419E+04  0.00000000000E+00 0. -1.
         -1   -1    0    0    0  501 -0.00000000000E+00 -0.00000000000E+00 -0.27887988624E+03  0.27887988624E+03  0.00000000000E+00 0.  1.
         24    2    1    2    0    0 -0.15061762148E+03 -0.89671079206E+02  0.14050638918E+04  0.14181513124E+04  0.78879874929E+02 0.  0.
        254    2    1    2    0    0  0.15061762148E+03  0.89671079206E+02  0.49508906391E+03  0.10397614157E+04  0.89736505953E+03 0.  0.
         23    2    4    4    0    0 -0.68400441488E+02  0.26802963402E+03  0.64445898522E+03  0.70730316499E+03  0.91825260484E+02 0.  0.
         23    2    4    4    0    0  0.21901806297E+03 -0.17835855481E+03 -0.14936992131E+03  0.33245825073E+03  0.91850035933E+02 0.  0.
          4    1    3    3  502    0 -0.58673549664E+02 -0.35746176431E+02  0.86147997637E+03  0.86421532285E+03  0.00000000000E+00 0. -1.
         -3    1    3    3    0  502 -0.91944071818E+02 -0.53924902775E+02  0.54358391541E+03  0.55393598960E+03  0.00000000000E+00 0.  1.
         11    1    5    5    0    0 -0.45906682863E+02  0.17696827485E+03  0.30956514234E+03  0.35952158653E+03  0.00000000000E+00 0. -1.
        -11    1    5    5    0    0 -0.22493758624E+02  0.91061359176E+02  0.33489384288E+03  0.34778157846E+03  0.00000000000E+00 0.  1.
          1    1    6    6  503    0  0.20544359937E+03 -0.17171703040E+03 -0.16183830768E+03  0.31286650330E+03  0.00000000000E+00 0. -1.
         -1    1    6    6    0  503  0.13574463599E+02 -0.66415244159E+01  0.12468386373E+02  0.19591747429E+02  0.00000000000E+00 0.  1.
<mgrwt>
<rscale>  0 0.15590875E+04</rscale>
<asrwt>0</asrwt>
<pdfrwt beam="1">  1        2 0.33523581E+00 0.15590875E+04</pdfrwt>
<pdfrwt beam="2">  1       -1 0.42904599E-01 0.15590875E+04</pdfrwt>
<totfact> 0.31138544E+01</totfact>
</mgrwt>
</event>
<event>
12    6  0.1542110E-007  0.1596809E+04  0.7818608E-02  0.8822511E-01
         -1   -1    0    0    0  501 -0.00000000000E+00  0.00000000000E+00  0.38576078885E+03  0.38576078885E+03  0.00000000000E+00 0.  1.
          2   -1    0    0  501    0  0.00000000000E+00 -0.00000000000E+00 -0.16524475298E+04  0.16524475298E+04  0.00000000000E+00 0. -1.
         24    2    1    2    0    0 -0.18462623683E+03  0.16251032286E+03  0.17881335017E+03  0.31468477998E+03  0.80968167783E+02 0.  0.
        254    2    1    2    0    0  0.18462623683E+03 -0.16251032286E+03 -0.14455000911E+04  0.17235235387E+04  0.90585121437E+03 0.  0.
         23    2    4    4    0    0  0.42562598552E+03 -0.31707200944E+03 -0.51115866360E+03  0.74185128077E+03  0.85837082254E+02 0.  0.
         23    2    4    4    0    0 -0.24099974869E+03  0.15456168658E+03 -0.93434142754E+03  0.98167225792E+03  0.93361260301E+02 0.  0.
          4    1    3    3  502    0 -0.93210938684E+01 -0.92288470911E+01  0.53857303090E+01  0.14179580406E+02  0.00000000000E+00 0. -1.
         -3    1    3    3    0  502 -0.17530514296E+03  0.17173916995E+03  0.17342761986E+03  0.30050519958E+03  0.00000000000E+00 0.  1.
         11    1    5    5    0    0  0.10165787368E+02  0.39509670694E+01 -0.20572845805E+02  0.23285088750E+02  0.00000000000E+00 0.  1.
        -11    1    5    5    0    0  0.41546019815E+03 -0.32102297651E+03 -0.49058581779E+03  0.71856619202E+03  0.00000000000E+00 0. -1.
          3    1    6    6  503    0 -0.21257174592E+03  0.15606147976E+03 -0.89546250166E+03  0.93348541740E+03  0.00000000000E+00 0. -1.
         -3    1    6    6    0  503 -0.28428002773E+02 -0.14997931871E+01 -0.38878925884E+02  0.48186840518E+02  0.00000000000E+00 0.  1.
<mgrwt>
<rscale>  0 0.15968086E+04</rscale>
<asrwt>0</asrwt>
<pdfrwt beam="1">  1        2 0.25422270E+00 0.15968086E+04</pdfrwt>
<pdfrwt beam="2">  1       -1 0.59347814E-01 0.15968086E+04</pdfrwt>
<totfact> 0.32782988E+01</totfact>
</mgrwt>
</event>
<event>
12    6  0.1542110E-007  0.2719416E+04  0.7818608E-02  0.8328732E-01
          2   -1    0    0  501    0  0.00000000000E+00  0.00000000000E+00  0.23599460283E+04  0.23599460283E+04  0.00000000000E+00 0. -1.
         -1   -1    0    0    0  501 -0.00000000000E+00 -0.00000000000E+00 -0.78341031155E+03  0.78341031155E+03  0.00000000000E+00 0.  1.
         24    2    1    2    0    0 -0.25096737621E+03 -0.81745570830E+03 -0.28659897897E+03  0.90527823738E+03  0.78557325395E+02 0.  0.
        254    2    1    2    0    0  0.25096737621E+03  0.81745570830E+03  0.18631346957E+04  0.22380781025E+04  0.89805581084E+03 0.  0.
         23    2    4    4    0    0  0.21245360519E+03 -0.14404384824E+03  0.45338638995E+03  0.52873028843E+03  0.90062948763E+02 0.  0.
         23    2    4    4    0    0  0.38513771022E+02  0.96149955655E+03  0.14097483058E+04  0.17093478140E+04  0.92276518816E+02 0.  0.
          2    1    3    3  502    0 -0.35543481385E+02 -0.20580183305E+03 -0.47985557390E+02  0.21429033406E+03  0.00000000000E+00 0. -1.
         -1    1    3    3    0  502 -0.21542389482E+03 -0.61165387526E+03 -0.23861342158E+03  0.69098790332E+03  0.00000000000E+00 0.  1.
         11    1    5    5    0    0  0.98911553232E+02 -0.58561961409E+02  0.11928327594E+03  0.16565475727E+03  0.00000000000E+00 0.  1.
        -11    1    5    5    0    0  0.11354205195E+03 -0.85481886835E+02  0.33410311400E+03  0.36307553116E+03  0.00000000000E+00 0. -1.
          4    1    6    6  503    0  0.82914595445E+01  0.51227449779E+03  0.67146729498E+03  0.84460774186E+03  0.00000000000E+00 0. -1.
         -4    1    6    6    0  503  0.30222311477E+02  0.44922505876E+03  0.73828101078E+03  0.86474007217E+03  0.00000000000E+00 0.  1.
<mgrwt>
<rscale>  0 0.27194162E+04</rscale>
<asrwt>0</asrwt>
<pdfrwt beam="1">  1        2 0.36306862E+00 0.27194162E+04</pdfrwt>
<pdfrwt beam="2">  1       -1 0.12052466E+00 0.27194162E+04</pdfrwt>
<totfact> 0.25561635E+00</totfact>
</mgrwt>
</event>
<event>
12    6  0.1542110E-007  0.1807186E+04  0.7818608E-02  0.8702487E-01
          2   -1    0    0  501    0  0.00000000000E+00  0.00000000000E+00  0.98495848717E+03  0.98495848717E+03  0.00000000000E+00 0. -1.
         -1   -1    0    0    0  501 -0.00000000000E+00 -0.00000000000E+00 -0.82894903807E+03  0.82894903807E+03  0.00000000000E+00 0.  1.
         24    2    1    2    0    0  0.53895365490E+03  0.33572229947E+03 -0.18998522275E+03  0.66750697065E+03  0.79313722081E+02 0.  0.
        254    2    1    2    0    0 -0.53895365490E+03 -0.33572229947E+03  0.34599467185E+03  0.11464005546E+04  0.88957372608E+03 0.  0.
         23    2    4    4    0    0 -0.48651337478E+02 -0.23764790029E+03 -0.25104804682E+03  0.36154870500E+03  0.94068417251E+02 0.  0.
         23    2    4    4    0    0 -0.49030231742E+03 -0.98074399183E+02  0.59704271868E+03  0.78485184959E+03  0.97557509403E+02 0.  0.
          2    1    3    3  502    0  0.18413050853E+03  0.79835795742E+02 -0.82783356674E+02  0.21709648223E+03  0.00000000000E+00 0. -1.
         -1    1    3    3    0  502  0.35482314637E+03  0.25588650373E+03 -0.10720186608E+03  0.45041048842E+03  0.00000000000E+00 0.  1.
         11    1    5    5    0    0 -0.11691898867E+02 -0.10451015481E+03 -0.17409705248E+03  0.20339335447E+03  0.00000000000E+00 0.  1.
        -11    1    5    5    0    0 -0.36959438611E+02 -0.13313774547E+03 -0.76950994341E+02  0.15815535053E+03  0.00000000000E+00 0. -1.
          4    1    6    6  503    0 -0.30194540276E+03 -0.15431000986E+02  0.38368656762E+03  0.48849209227E+03  0.00000000000E+00 0.  1.
         -4    1    6    6    0  503 -0.18835691466E+03 -0.82643398197E+02  0.21335615106E+03  0.29635975732E+03  0.00000000000E+00 0. -1.
<mgrwt>
<rscale>  0 0.18071861E+04</rscale>
<asrwt>0</asrwt>
<pdfrwt beam="1">  1        2 0.15153208E+00 0.18071861E+04</pdfrwt>
<pdfrwt beam="2">  1       -1 0.12753062E+00 0.18071861E+04</pdfrwt>
<totfact> 0.14760397E+01</totfact>
</mgrwt>
</event>
<event>
12    6  0.1542110E-007  0.3765932E+04  0.7818608E-02  0.8053506E-01
         -1   -1    0    0    0  501 -0.00000000000E+00  0.00000000000E+00  0.13141097083E+04  0.13141097083E+04  0.00000000000E+00 0.  1.
          2   -1    0    0  501    0  0.00000000000E+00 -0.00000000000E+00 -0.26980706678E+04  0.26980706678E+04  0.00000000000E+00 0. -1.
         24    2    1    2    0    0  0.76866213990E+03  0.88684936657E+03  0.76686637777E+03  0.14040459918E+04  0.76927377127E+02 0.  0.
        254    2    1    2    0    0 -0.76866213990E+03 -0.88684936657E+03 -0.21508273373E+04  0.26081343842E+04  0.89384755255E+03 0.  0.
         23    2    4    4    0    0 -0.28526121171E+03 -0.93119537081E+03 -0.13525376806E+04  0.16694061730E+04  0.95184114397E+02 0.  0.
         23    2    4    4    0    0 -0.48340092819E+03  0.44346004241E+02 -0.79828965671E+03  0.93872821123E+03  0.91111212692E+02 0.  0.
          2    1    3    3  502    0  0.25387931100E+03  0.33393509618E+03  0.30413252507E+03  0.51813506522E+03  0.00000000000E+00 0. -1.
         -1    1    3    3    0  502  0.51478282890E+03  0.55291427039E+03  0.46273385271E+03  0.88591092655E+03  0.00000000000E+00 0.  1.
         11    1    5    5    0    0 -0.12020078844E+03 -0.43798223309E+03 -0.55317235878E+03  0.71573481441E+03  0.00000000000E+00 0. -1.
        -11    1    5    5    0    0 -0.16506042327E+03 -0.49321313772E+03 -0.79936532178E+03  0.95367135860E+03  0.00000000000E+00 0.  1.
          3    1    6    6  503    0 -0.22319703819E+03 -0.39736692601E+01 -0.43889605897E+03  0.49240477098E+03  0.00000000000E+00 0. -1.
         -3    1    6    6    0  503 -0.26020389000E+03  0.48319673501E+02 -0.35939359774E+03  0.44632344025E+03  0.00000000000E+00 0.  1.
<mgrwt>
<rscale>  0 0.37659319E+04</rscale>
<asrwt>0</asrwt>
<pdfrwt beam="1">  1        2 0.41508779E+00 0.37659319E+04</pdfrwt>
<pdfrwt beam="2">  1       -1 0.20217072E+00 0.37659319E+04</pdfrwt>
<totfact> 0.35358131E-01</totfact>
</mgrwt>
</event>
<event>
12    6  0.1542110E-007  0.1403261E+04  0.7818608E-02  0.8951462E-01
          2   -1    0    0  501    0  0.00000000000E+00  0.00000000000E+00  0.34839633591E+03  0.34839633591E+03  0.00000000000E+00 0. -1.
         -1   -1    0    0    0  501 -0.00000000000E+00 -0.00000000000E+00 -0.14130031938E+04  0.14130031938E+04  0.00000000000E+00 0.  1.
         24    2    1    2    0    0 -0.13059213961E+03  0.38072125074E+03 -0.29195697130E+03  0.50427568363E+03  0.83976867734E+02 0.  0.
        254    2    1    2    0    0  0.13059213961E+03 -0.38072125074E+03 -0.77264988659E+03  0.12571238461E+04  0.90629440000E+03 0.  0.
         23    2    4    4    0    0  0.47034968216E+03 -0.42780190596E+02 -0.24948501261E+03  0.54185487103E+03  0.91131561682E+02 0.  0.
         23    2    4    4    0    0 -0.33975754255E+03 -0.33794106014E+03 -0.52316487399E+03  0.71526897506E+03  0.90933346266E+02 0.  0.
          2    1    3    3  502    0 -0.63375856423E+02  0.97256561859E+02 -0.11508395882E+03  0.16346148041E+03  0.00000000000E+00 0. -1.
         -1    1    3    3    0  502 -0.67216283185E+02  0.28346468888E+03 -0.17687301249E+03  0.34081420322E+03  0.00000000000E+00 0.  1.
         11    1    5    5    0    0  0.38083073860E+03  0.64170559754E-01 -0.21127096364E+03  0.43550829574E+03  0.00000000000E+00 0. -1.
        -11    1    5    5    0    0  0.89518943555E+02 -0.42844361156E+02 -0.38214048971E+02  0.10634657529E+03  0.00000000000E+00 0.  1.
          3    1    6    6  503    0 -0.62227343581E+02 -0.11853443400E+03 -0.13720659685E+03  0.19169847300E+03  0.00000000000E+00 0. -1.
         -3    1    6    6    0  503 -0.27753019897E+03 -0.21940662614E+03 -0.38595827714E+03  0.52357050206E+03  0.00000000000E+00 0.  1.
<mgrwt>
<rscale>  0 0.14032607E+04</rscale>
<asrwt>0</asrwt>
<pdfrwt beam="1">  1        2 0.53599435E-01 0.14032607E+04</pdfrwt>
<pdfrwt beam="2">  1       -1 0.21738511E+00 0.14032607E+04</pdfrwt>
<totfact> 0.11858515E+01</totfact>
</mgrwt>
</event>
<event>
12    6  0.1542110E-007  0.1720496E+04  0.7818608E-02  0.8749760E-01
         -1   -1    0    0    0  501 -0.00000000000E+00  0.00000000000E+00  0.31938659886E+03  0.31938659886E+03  0.00000000000E+00 0.  1.
          2   -1    0    0  501    0  0.00000000000E+00 -0.00000000000E+00 -0.23170253991E+04  0.23170253991E+04  0.00000000000E+00 0. -1.
         24    2    1    2    0    0 -0.24703898018E+03 -0.13170461453E+03  0.11809080398E+03  0.31462357508E+03  0.81659003153E+02 0.  0.
        254    2    1    2    0    0  0.24703898018E+03  0.13170461453E+03 -0.21157296043E+04  0.23217884229E+04  0.91433875517E+03 0.  0.
         23    2    4    4    0    0  0.91624578981E+02  0.30685697521E+03 -0.20319980614E+04  0.20590693004E+04  0.90520692300E+02 0.  0.
         23    2    4    4    0    0  0.15541440120E+03 -0.17515236068E+03 -0.83731542893E+02  0.26271912251E+03  0.84725323883E+02 0.  0.
          2    1    3    3  502    0 -0.13934982743E+03 -0.11872253398E+03  0.70472661592E+02  0.19616271438E+03  0.00000000000E+00 0. -1.
         -1    1    3    3    0  502 -0.10768915274E+03 -0.12982080553E+02  0.47618142388E+02  0.11846086070E+03  0.00000000000E+00 0.  1.
         11    1    5    5    0    0  0.74283229434E+02  0.10551868164E+03 -0.69379036635E+03  0.70568921119E+03  0.00000000000E+00 0. -1.
        -11    1    5    5    0    0  0.17341349547E+02  0.20133829357E+03 -0.13382076950E+04  0.13533800892E+04  0.00000000000E+00 0.  1.
          1    1    6    6  503    0  0.86205684117E+02 -0.89745381432E+02  0.15238667601E+00  0.12444145886E+03  0.00000000000E+00 0. -1.
         -1    1    6    6    0  503  0.69208717080E+02 -0.85406979251E+02 -0.83883929569E+02  0.13827766365E+03  0.00000000000E+00 0.  1.
<mgrwt>
<rscale>  0 0.17204963E+04</rscale>
<asrwt>0</asrwt>
<pdfrwt beam="1">  1        2 0.35646546E+00 0.17204963E+04</pdfrwt>
<pdfrwt beam="2">  1       -1 0.49136398E-01 0.17204963E+04</pdfrwt>
<totfact> 0.19918597E+01</totfact>
</mgrwt>
</event>
<event>
12    6  0.1542110E-007  0.1143320E+04  0.7818608E-02  0.9163968E-01
          2   -1    0    0  501    0  0.00000000000E+00  0.00000000000E+00  0.26230197799E+03  0.26230197799E+03  0.00000000000E+00 0. -1.
         -1   -1    0    0    0  501 -0.00000000000E+00 -0.00000000000E+00 -0.12458748529E+04  0.12458748529E+04  0.00000000000E+00 0.  1.
         24    2    1    2    0    0  0.16253554174E+03 -0.11369527001E+03 -0.26743642824E+03  0.34308612381E+03  0.82712927963E+02 0.  0.
        254    2    1    2    0    0 -0.16253554174E+03  0.11369527001E+03 -0.71613644665E+03  0.11650907070E+04  0.89735195363E+03 0.  0.
         23    2    4    4    0    0 -0.43461002173E+01  0.38499685053E+03 -0.73850896654E+03  0.83736401012E+03  0.86841973035E+02 0.  0.
         23    2    4    4    0    0 -0.15818944152E+03 -0.27130158052E+03  0.22372519896E+02  0.32772669692E+03  0.90971485784E+02 0.  0.
          2    1    3    3  502    0 -0.72263403043E+00 -0.89492760659E+01  0.36988902499E+01  0.97104856277E+01  0.00000000000E+00 0. -1.
         -1    1    3    3    0  502  0.16325817577E+03 -0.10474599394E+03 -0.27113531849E+03  0.33337563819E+03  0.00000000000E+00 0.  1.
         11    1    5    5    0    0 -0.13791992116E+02  0.51583362302E+01 -0.26309742437E+02  0.30150124814E+02  0.00000000000E+00 0. -1.
        -11    1    5    5    0    0  0.94458918991E+01  0.37983851430E+03 -0.71219922411E+03  0.80721388531E+03  0.00000000000E+00 0.  1.
          3    1    6    6  503    0 -0.36812923056E+02 -0.19643292832E+02 -0.17967424915E+02  0.45429930831E+02  0.00000000000E+00 0. -1.
         -3    1    6    6    0  503 -0.12137651847E+03 -0.25165828769E+03  0.40339944811E+02  0.28229676609E+03  0.00000000000E+00 0.  1.
<mgrwt>
<rscale>  0 0.11433205E+04</rscale>
<asrwt>0</asrwt>
<pdfrwt beam="1">  1        2 0.40354150E-01 0.11433205E+04</pdfrwt>
<pdfrwt beam="2">  1       -1 0.19167306E+00 0.11433205E+04</pdfrwt>
<totfact> 0.24915124E+01</totfact>
</mgrwt>
</event>
<event>
12    6  0.1542110E-007  0.1739365E+04  0.7818608E-02  0.8739226E-01
          2   -1    0    0  501    0  0.00000000000E+00  0.00000000000E+00  0.51550545514E+03  0.51550545514E+03  0.00000000000E+00 0. -1.
         -1   -1    0    0    0  501 -0.00000000000E+00 -0.00000000000E+00 -0.14671965718E+04  0.14671965718E+04  0.00000000000E+00 0.  1.
         24    2    1    2    0    0 -0.37505925921E+02 -0.63889773699E+02  0.36424870790E+03  0.37994366738E+03  0.78685904163E+02 0.  0.
        254    2    1    2    0    0  0.37505925921E+02  0.63889773699E+02 -0.13159398245E+04  0.16027583596E+04  0.91194744346E+03 0.  0.
         23    2    4    4    0    0 -0.45847949335E+02 -0.31329350946E+03 -0.13265250169E+03  0.35451649503E+03  0.88489555962E+02 0.  0.
         23    2    4    4    0    0  0.83353875256E+02  0.37718328316E+03 -0.11832873229E+04  0.12482418645E+04  0.93401104422E+02 0.  0.
          2    1    3    3  502    0 -0.74644324877E+01 -0.18783819863E+02  0.27348830447E+03  0.27423421071E+03  0.00000000000E+00 0. -1.
         -1    1    3    3    0  502 -0.30041493433E+02 -0.45105953836E+02  0.90760403423E+02  0.10570945667E+03  0.00000000000E+00 0.  1.
         11    1    5    5    0    0 -0.72226426977E+02 -0.22921618260E+03 -0.10392048408E+03  0.26183235501E+03  0.00000000000E+00 0. -1.
        -11    1    5    5    0    0  0.26378477642E+02 -0.84077326860E+02 -0.28732017611E+02  0.92684140016E+02  0.00000000000E+00 0.  1.
          2    1    6    6  503    0  0.53355320528E+01  0.18945479287E+03 -0.66591702275E+03  0.69236339276E+03  0.00000000000E+00 0.  1.
         -2    1    6    6    0  503  0.78018343204E+02  0.18772849029E+03 -0.51737030010E+03  0.55587847176E+03  0.00000000000E+00 0. -1.
<mgrwt>
<rscale>  0 0.17393652E+04</rscale>
<asrwt>0</asrwt>
<pdfrwt beam="1">  1        2 0.79308533E-01 0.17393652E+04</pdfrwt>
<pdfrwt beam="2">  1       -1 0.22572255E+00 0.17393652E+04</pdfrwt>
<totfact> 0.64911060E+00</totfact>
</mgrwt>
</event>
<event>
12    6  0.1542110E-007  0.1326473E+04  0.7818608E-02  0.9008831E-01
         -1   -1    0    0    0  501 -0.00000000000E+00  0.00000000000E+00  0.12130890133E+04  0.12130890133E+04  0.00000000000E+00 0.  1.
          2   -1    0    0  501    0  0.00000000000E+00 -0.00000000000E+00 -0.36261387732E+03  0.36261387732E+03  0.00000000000E+00 0. -1.
         24    2    1    2    0    0 -0.21419214108E+03  0.19266403016E+03 -0.67563189761E+01  0.29922529833E+03  0.80575613527E+02 0.  0.
        254    2    1    2    0    0  0.21419214108E+03 -0.19266403016E+03  0.85723145494E+03  0.12764775923E+04  0.90086157340E+03 0.  0.
         23    2    4    4    0    0 -0.63356162528E+02 -0.18406977465E+03  0.94682447579E+03  0.97086486708E+03  0.90588724012E+02 0.  0.
         23    2    4    4    0    0  0.27754830361E+03 -0.85942555065E+01 -0.89593020847E+02  0.30561272519E+03  0.90913730257E+02 0.  0.
          2    1    3    3  502    0 -0.21823697503E+03  0.17403543782E+03 -0.41055714411E+00  0.27913416030E+03  0.00000000000E+00 0. -1.
         -1    1    3    3    0  502  0.40448339484E+01  0.18628592335E+02 -0.63457618320E+01  0.20091138029E+02  0.00000000000E+00 0.  1.
         11    1    5    5    0    0 -0.44129238736E+02 -0.18234417305E+02  0.21605212570E+03  0.22126546207E+03  0.00000000000E+00 0. -1.
        -11    1    5    5    0    0 -0.19226923792E+02 -0.16583535734E+03  0.73077235008E+03  0.74959940501E+03  0.00000000000E+00 0.  1.
          3    1    6    6  503    0  0.14896522817E+03 -0.23907136372E+02 -0.50304113849E+01  0.15095527620E+03  0.00000000000E+00 0. -1.
         -3    1    6    6    0  503  0.12858307544E+03  0.15312880865E+02 -0.84562609462E+02  0.15465744900E+03  0.00000000000E+00 0.  1.
<mgrwt>
<rscale>  0 0.13264734E+04</rscale>
<asrwt>0</asrwt>
<pdfrwt beam="1">  1        2 0.55786751E-01 0.13264734E+04</pdfrwt>
<pdfrwt beam="2">  1       -1 0.18662908E+00 0.13264734E+04</pdfrwt>
<totfact> 0.18563447E+01</totfact>
</mgrwt>
</event>
<event>
12    6  0.1542110E-007  0.1529541E+04  0.7818608E-02  0.8865043E-01
         -1   -1    0    0    0  501 -0.00000000000E+00  0.00000000000E+00  0.47172800323E+03  0.47172800323E+03  0.00000000000E+00 0.  1.
          2   -1    0    0  501    0  0.00000000000E+00 -0.00000000000E+00 -0.12398544967E+04  0.12398544967E+04  0.00000000000E+00 0. -1.
         24    2    1    2    0    0  0.51292665734E+02 -0.45231151080E+03 -0.30392369107E+03  0.55754772525E+03  0.10617540008E+03 0.  0.
        254    2    1    2    0    0 -0.51292665734E+02  0.45231151080E+03 -0.46420280236E+03  0.11540347746E+04  0.95346493328E+03 0.  0.
         23    2    4    4    0    0  0.73180620104E+02  0.72787194099E+03 -0.35190920965E+03  0.81824243450E+03  0.10260421111E+03 0.  0.
         23    2    4    4    0    0 -0.12447328584E+03 -0.27556043019E+03 -0.11229359271E+03  0.33579234014E+03  0.93378237054E+02 0.  0.
          4    1    3    3  502    0  0.50626260698E+02 -0.19245333427E+03 -0.79856874769E+02  0.21442580207E+03  0.00000000000E+00 0. -1.
         -3    1    3    3    0  502  0.66640503558E+00 -0.25985817652E+03 -0.22406681630E+03  0.34312192318E+03  0.00000000000E+00 0.  1.
         11    1    5    5    0    0  0.87815244980E+02  0.59295755164E+03 -0.31715329328E+03  0.67815660930E+03  0.00000000000E+00 0.  1.
        -11    1    5    5    0    0 -0.14634624876E+02  0.13491438935E+03 -0.34755916369E+02  0.14008582519E+03  0.00000000000E+00 0. -1.
          3    1    6    6  503    0 -0.66380665383E+01 -0.13878968113E+00 -0.21895679588E+02  0.22880209233E+02  0.00000000000E+00 0. -1.
         -3    1    6    6    0  503 -0.11783521930E+03 -0.27542164051E+03 -0.90397913120E+02  0.31291213090E+03  0.00000000000E+00 0.  1.
<mgrwt>
<rscale>  0 0.15295412E+04</rscale>
<asrwt>0</asrwt>
<pdfrwt beam="1">  1        2 0.19074684E+00 0.15295412E+04</pdfrwt>
<pdfrwt beam="2">  1       -1 0.72573539E-01 0.15295412E+04</pdfrwt>
<totfact> 0.37748336E+01</totfact>
</mgrwt>
</event>
<event>
12    6  0.1542110E-007  0.2319260E+04  0.7818608E-02  0.8470366E-01
         -3   -1    0    0    0  501 -0.00000000000E+00  0.00000000000E+00  0.17138024064E+04  0.17138024064E+04  0.00000000000E+00 0.  1.
          2   -1    0    0  501    0  0.00000000000E+00 -0.00000000000E+00 -0.78465393778E+03  0.78465393778E+03  0.00000000000E+00 0. -1.
         24    2    1    2    0    0 -0.71329503580E+03  0.32419989511E+03 -0.25466917485E+03  0.82765096688E+03  0.79084475502E+02 0.  0.
        254    2    1    2    0    0  0.71329503580E+03 -0.32419989511E+03  0.11838176435E+04  0.16708053773E+04  0.88106243579E+03 0.  0.
         23    2    4    4    0    0  0.90618199580E+03 -0.20903567297E+03  0.89669744224E+03  0.12951485560E+04  0.92096454836E+02 0.  0.
         23    2    4    4    0    0 -0.19288696000E+03 -0.11516422214E+03  0.28712020125E+03  0.37565682136E+03  0.90619314020E+02 0.  0.
          2    1    3    3  502    0 -0.58640142960E+03  0.24445706566E+03 -0.18065557231E+03  0.66050157411E+03  0.00000000000E+00 0. -1.
         -1    1    3    3    0  502 -0.12689360620E+03  0.79742829449E+02 -0.74013602537E+02  0.16714939277E+03  0.00000000000E+00 0.  1.
         11    1    5    5    0    0  0.15616079103E+03 -0.69774421420E+02  0.18328618838E+03  0.25069600992E+03  0.00000000000E+00 0.  1.
        -11    1    5    5    0    0  0.75002120477E+03 -0.13926125155E+03  0.71341125386E+03  0.10444525460E+04  0.00000000000E+00 0. -1.
          2    1    6    6  503    0 -0.19831307029E+03 -0.10717962477E+03  0.28825960134E+03  0.36593598289E+03  0.00000000000E+00 0. -1.
         -2    1    6    6    0  503  0.54261102907E+01 -0.79845973644E+01 -0.11394000888E+01  0.97208384680E+01  0.00000000000E+00 0.  1.
<mgrwt>
<rscale>  0 0.23192601E+04</rscale>
<asrwt>0</asrwt>
<pdfrwt beam="1">  1        2 0.12071599E+00 0.23192601E+04</pdfrwt>
<pdfrwt beam="2">  1       -3 0.26366191E+00 0.23192601E+04</pdfrwt>
<totfact> 0.12218443E+00</totfact>
</mgrwt>
</event>
<event>
12    6  0.1542110E-007  0.1411302E+04  0.7818608E-02  0.8945678E-01
         -1   -1    0    0    0  501 -0.00000000000E+00  0.00000000000E+00  0.19210238403E+03  0.19210238403E+03  0.00000000000E+00 0.  1.
          2   -1    0    0  501    0  0.00000000000E+00 -0.00000000000E+00 -0.25920723902E+04  0.25920723902E+04  0.00000000000E+00 0. -1.
         24    2    1    2    0    0  0.40358083501E+03  0.51964486142E+02 -0.64738570985E+03  0.76870335514E+03  0.78859322040E+02 0.  0.
        254    2    1    2    0    0 -0.40358083501E+03 -0.51964486142E+02 -0.17525842963E+04  0.20154714191E+04  0.90829264408E+03 0.  0.
         23    2    4    4    0    0 -0.46430571868E+03  0.29541817586E+03 -0.14068380177E+04  0.15135797466E+04  0.94227076909E+02 0.  0.
         23    2    4    4    0    0  0.60724883673E+02 -0.34738266200E+03 -0.34574627856E+03  0.50189167251E+03  0.89400986814E+02 0.  0.
          4    1    3    3  502    0  0.30256058530E+02  0.26405717398E+02 -0.68524296265E+02  0.79424619406E+02  0.00000000000E+00 0. -1.
         -3    1    3    3    0  502  0.37332477648E+03  0.25558768744E+02 -0.57886141359E+03  0.68927873573E+03  0.00000000000E+00 0.  1.
         11    1    5    5    0    0 -0.42019041779E+03  0.29409908950E+03 -0.13206991133E+04  0.14167922959E+04  0.00000000000E+00 0. -1.
        -11    1    5    5    0    0 -0.44115300887E+02  0.13190863594E+01 -0.86138904391E+02  0.96787450689E+02  0.00000000000E+00 0.  1.
          1    1    6    6  503    0  0.44602496142E+02 -0.30475389331E+03 -0.25314021644E+03  0.39867817514E+03  0.00000000000E+00 0. -1.
         -1    1    6    6    0  503  0.16122387531E+02 -0.42628768692E+02 -0.92606062115E+02  0.10321349738E+03  0.00000000000E+00 0.  1.
<mgrwt>
<rscale>  0 0.14113019E+04</rscale>
<asrwt>0</asrwt>
<pdfrwt beam="1">  1        2 0.39878033E+00 0.14113019E+04</pdfrwt>
<pdfrwt beam="2">  1       -1 0.29554216E-01 0.14113019E+04</pdfrwt>
<totfact> 0.35846833E+01</totfact>
</mgrwt>
</event>
<event>
12    6  0.1542110E-007  0.1784464E+04  0.7818608E-02  0.8714605E-01
         -1   -1    0    0    0  501 -0.00000000000E+00  0.00000000000E+00  0.13137078372E+04  0.13137078372E+04  0.00000000000E+00 0.  1.
          2   -1    0    0  501    0  0.00000000000E+00 -0.00000000000E+00 -0.60597772558E+03  0.60597772558E+03  0.00000000000E+00 0. -1.
         24    2    1    2    0    0  0.15764901351E+03  0.33654332736E+03  0.85022502758E+03  0.93226982441E+03  0.90165433190E+02 0.  0.
        254    2    1    2    0    0 -0.15764901351E+03 -0.33654332736E+03 -0.14249491592E+03  0.98741573841E+03  0.90364285907E+03 0.  0.
         23    2    4    4    0    0 -0.12766353226E+03  0.17828644818E+03  0.24021148140E+03  0.33889370715E+03  0.95201648488E+02 0.  0.
         23    2    4    4    0    0 -0.29985481254E+02 -0.51482977554E+03 -0.38270639733E+03  0.64852203126E+03  0.90375945927E+02 0.  0.
          4    1    3    3  502    0  0.33782791901E+02  0.57241516095E+02  0.82257734443E+02  0.10575539262E+03  0.00000000000E+00 0. -1.
         -3    1    3    3    0  502  0.12386622161E+03  0.27930181126E+03  0.76796729313E+03  0.82651443179E+03  0.00000000000E+00 0.  1.
         11    1    5    5    0    0 -0.96980224122E+02  0.13749671769E+03  0.23291590108E+03  0.28733313109E+03  0.00000000000E+00 0. -1.
        -11    1    5    5    0    0 -0.30683308137E+02  0.40789730488E+02  0.72955803261E+01  0.51560576061E+02  0.00000000000E+00 0.  1.
          3    1    6    6  503    0 -0.27399678007E+02 -0.40415116675E+03 -0.34338098276E+03  0.53103616380E+03  0.00000000000E+00 0. -1.
         -3    1    6    6    0  503 -0.25858032468E+01 -0.11067860879E+03 -0.39325414571E+02  0.11748586746E+03  0.00000000000E+00 0.  1.
<mgrwt>
<rscale>  0 0.17844637E+04</rscale>
<asrwt>0</asrwt>
<pdfrwt beam="1">  1        2 0.93227343E-01 0.17844637E+04</pdfrwt>
<pdfrwt beam="2">  1       -1 0.20210890E+00 0.17844637E+04</pdfrwt>
<totfact> 0.76996104E+00</totfact>
</mgrwt>
</event>
<event>
12    6  0.1542110E-007  0.1579123E+04  0.7818608E-02  0.8833477E-01
         -1   -1    0    0    0  501 -0.00000000000E+00  0.00000000000E+00  0.21119130588E+03  0.21119130588E+03  0.00000000000E+00 0.  1.
          2   -1    0    0  501    0  0.00000000000E+00 -0.00000000000E+00 -0.29518608944E+04  0.29518608944E+04  0.00000000000E+00 0. -1.
         24    2    1    2    0    0 -0.28744609927E+03  0.23327565885E+03 -0.17125143462E+04  0.17538936932E+04  0.79968167996E+02 0.  0.
        254    2    1    2    0    0  0.28744609927E+03 -0.23327565885E+03 -0.10281552423E+04  0.14091585071E+04  0.88970877421E+03 0.  0.
         23    2    4    4    0    0 -0.81532142666E+02 -0.14534281177E+03  0.98678172764E+02  0.21630996852E+03  0.96335857722E+02 0.  0.
         23    2    4    4    0    0  0.36897824194E+03 -0.87932847082E+02 -0.11268334150E+04  0.11928485386E+04  0.96213107789E+02 0.  0.
          4    1    3    3  502    0 -0.21024106129E+03  0.14467933426E+03 -0.10177534077E+04  0.10492642243E+04  0.00000000000E+00 0. -1.
         -3    1    3    3    0  502 -0.77205037983E+02  0.88596324587E+02 -0.69476093853E+03  0.70462946882E+03  0.00000000000E+00 0.  1.
         11    1    5    5    0    0  0.12344522536E+02 -0.28026700545E+02  0.49511403797E+02  0.58217370999E+02  0.00000000000E+00 0. -1.
        -11    1    5    5    0    0 -0.93876665202E+02 -0.11731611122E+03  0.49166768967E+02  0.15809259752E+03  0.00000000000E+00 0.  1.
          1    1    6    6  503    0  0.22444216152E+03 -0.22371048188E+02 -0.76903404818E+03  0.80142879592E+03  0.00000000000E+00 0. -1.
         -1    1    6    6    0  503  0.14453608042E+03 -0.65561798894E+02 -0.35779936686E+03  0.39141974266E+03  0.00000000000E+00 0.  1.
<mgrwt>
<rscale>  0 0.15791230E+04</rscale>
<asrwt>0</asrwt>
<pdfrwt beam="1">  1        2 0.45413244E+00 0.15791230E+04</pdfrwt>
<pdfrwt beam="2">  1       -1 0.32490971E-01 0.15791230E+04</pdfrwt>
<totfact> 0.18190130E+01</totfact>
</mgrwt>
</event>
<event>
12    6  0.1542110E-007  0.1202275E+04  0.7818608E-02  0.9110867E-01
         -1   -1    0    0    0  501 -0.00000000000E+00  0.00000000000E+00  0.11410477665E+04  0.11410477665E+04  0.00000000000E+00 0.  1.
          2   -1    0    0  501    0  0.00000000000E+00 -0.00000000000E+00 -0.31669694430E+03  0.31669694430E+03  0.00000000000E+00 0. -1.
         24    2    1    2    0    0 -0.20729717322E+03 -0.83208428776E+02  0.57469308046E+02  0.24444286512E+03  0.80955742844E+02 0.  0.
        254    2    1    2    0    0  0.20729717322E+03  0.83208428776E+02  0.76688151415E+03  0.12133018457E+04  0.91328985065E+03 0.  0.
         23    2    4    4    0    0 -0.20190451303E+02 -0.38745775254E+03  0.42039240273E+03  0.57957403485E+03  0.92979165805E+02 0.  0.
         23    2    4    4    0    0  0.22748762452E+03  0.47066618132E+03  0.34648911142E+03  0.63372781081E+03  0.90988792274E+02 0.  0.
          4    1    3    3  502    0 -0.15908045806E+03 -0.71023949393E+02  0.81557560497E+01  0.17440616354E+03  0.00000000000E+00 0. -1.
         -3    1    3    3    0  502 -0.48216715162E+02 -0.12184479383E+02  0.49313551996E+02  0.70036701588E+02  0.00000000000E+00 0.  1.
         11    1    5    5    0    0  0.19573707876E+02 -0.52469210619E+02  0.98452279567E+02  0.11326517318E+03  0.00000000000E+00 0. -1.
        -11    1    5    5    0    0 -0.39764159179E+02 -0.33498854192E+03  0.32194012317E+03  0.46630886168E+03  0.00000000000E+00 0.  1.
          4    1    6    6  503    0  0.66124038276E+02  0.63131958817E+02  0.46378350834E+02  0.10251333615E+03  0.00000000000E+00 0. -1.
         -4    1    6    6    0  503  0.16136358624E+03  0.40753422250E+03  0.30011076058E+03  0.53121447466E+03  0.00000000000E+00 0.  1.
<mgrwt>
<rscale>  0 0.12022751E+04</rscale>
<asrwt>0</asrwt>
<pdfrwt beam="1">  1        2 0.48722607E-01 0.12022751E+04</pdfrwt>
<pdfrwt beam="2">  1       -1 0.17554581E+00 0.12022751E+04</pdfrwt>
<totfact> 0.26179528E+01</totfact>
</mgrwt>
</event>
<event>
12    6  0.1542110E-007  0.1786436E+04  0.7818608E-02  0.8713546E-01
          2   -1    0    0  501    0  0.00000000000E+00  0.00000000000E+00  0.10522164735E+04  0.10522164735E+04  0.00000000000E+00 0. -1.
         -1   -1    0    0    0  501 -0.00000000000E+00 -0.00000000000E+00 -0.75824571618E+03  0.75824571618E+03  0.00000000000E+00 0.  1.
         24    2    1    2    0    0  0.54497787642E+03  0.15975595525E+03 -0.14860111431E+03  0.59253735262E+03  0.80593871057E+02 0.  0.
        254    2    1    2    0    0 -0.54497787642E+03 -0.15975595525E+03  0.44257187165E+03  0.12179248371E+04  0.98231776741E+03 0.  0.
         23    2    4    4    0    0 -0.38323495440E+03 -0.56390362592E+03  0.22802155105E+03  0.72492836477E+03  0.93118079320E+02 0.  0.
         23    2    4    4    0    0 -0.16174292202E+03  0.40414767068E+03  0.21455032060E+03  0.49299647230E+03  0.86703916286E+02 0.  0.
          2    1    3    3  502    0  0.10364529742E+03  0.42868999067E+02  0.80314885720E+00  0.11216391491E+03  0.00000000000E+00 0. -1.
         -1    1    3    3    0  502  0.44133257900E+03  0.11688695618E+03 -0.14940426317E+03  0.48037343771E+03  0.00000000000E+00 0.  1.
         11    1    5    5    0    0 -0.12203292834E+03 -0.21681697261E+03  0.12523702880E+03  0.27854254359E+03  0.00000000000E+00 0.  1.
        -11    1    5    5    0    0 -0.26120202607E+03 -0.34708665332E+03  0.10278452225E+03  0.44638582118E+03  0.00000000000E+00 0. -1.
          3    1    6    6  503    0 -0.52102943770E+02  0.16241665252E+03  0.12986916008E+03  0.21438256577E+03  0.00000000000E+00 0. -1.
         -3    1    6    6    0  503 -0.10963997825E+03  0.24173101815E+03  0.84681160518E+02  0.27861390653E+03  0.00000000000E+00 0.  1.
<mgrwt>
<rscale>  0 0.17864363E+04</rscale>
<asrwt>0</asrwt>
<pdfrwt beam="1">  1        2 0.16187946E+00 0.17864363E+04</pdfrwt>
<pdfrwt beam="2">  1       -1 0.11665319E+00 0.17864363E+04</pdfrwt>
<totfact> 0.16685169E+01</totfact>
</mgrwt>
</event>
<event>
12    6  0.1542110E-007  0.1259605E+04  0.7818608E-02  0.9062227E-01
         -1   -1    0    0    0  501 -0.00000000000E+00  0.00000000000E+00  0.90125426369E+03  0.90125426369E+03  0.00000000000E+00 0.  1.
          2   -1    0    0  501    0  0.00000000000E+00 -0.00000000000E+00 -0.44010985058E+03  0.44010985058E+03  0.00000000000E+00 0. -1.
         24    2    1    2    0    0  0.12768039736E+03 -0.27146952247E+03  0.90106619653E+02  0.32328589981E+03  0.79978650983E+02 0.  0.
        254    2    1    2    0    0 -0.12768039736E+03  0.27146952247E+03  0.37103779346E+03  0.10180782145E+04  0.89934210459E+03 0.  0.
         23    2    4    4    0    0 -0.36738747765E+03  0.39308935260E+02 -0.13617449354E+03  0.40392451253E+03  0.89959813259E+02 0.  0.
         23    2    4    4    0    0  0.23970708029E+03  0.23216058721E+03  0.50721228700E+03  0.61415370193E+03  0.92533469200E+02 0.  0.
          2    1    3    3  502    0  0.82387501948E+02 -0.22069143773E+03  0.97282976284E+02  0.25486543241E+03  0.00000000000E+00 0. -1.
         -1    1    3    3    0  502  0.45292895415E+02 -0.50778084740E+02 -0.71763566317E+01  0.68420467401E+02  0.00000000000E+00 0.  1.
         11    1    5    5    0    0 -0.31334220639E+03  0.38912913343E+02 -0.14781937550E+03  0.34863752079E+03  0.00000000000E+00 0.  1.
        -11    1    5    5    0    0 -0.54045271269E+02  0.39602191743E+00  0.11644881960E+02  0.55286991741E+02  0.00000000000E+00 0. -1.
          1    1    6    6  503    0  0.52821821853E+02  0.45832179415E+02  0.49043847899E+02  0.85416816556E+02  0.00000000000E+00 0. -1.
         -1    1    6    6    0  503  0.18688525844E+03  0.18632840779E+03  0.45816843910E+03  0.52873688538E+03  0.00000000000E+00 0.  1.
<mgrwt>
<rscale>  0 0.12596045E+04</rscale>
<asrwt>0</asrwt>
<pdfrwt beam="1">  1        2 0.67709208E-01 0.12596045E+04</pdfrwt>
<pdfrwt beam="2">  1       -1 0.13865450E+00 0.12596045E+04</pdfrwt>
<totfact> 0.34490446E+01</totfact>
</mgrwt>
</event>
<event>
12    6  0.1542110E-007  0.3285594E+04  0.7818608E-02  0.8166571E-01
          2   -1    0    0  501    0  0.00000000000E+00  0.00000000000E+00  0.11535574530E+04  0.11535574530E+04  0.00000000000E+00 0. -1.
         -1   -1    0    0    0  501 -0.00000000000E+00 -0.00000000000E+00 -0.23395293921E+04  0.23395293921E+04  0.00000000000E+00 0.  1.
         24    2    1    2    0    0  0.16277799293E+03  0.27530957488E+03 -0.21239737608E+04  0.21494925147E+04  0.82228321868E+02 0.  0.
        254    2    1    2    0    0 -0.16277799293E+03 -0.27530957488E+03  0.93800182169E+03  0.13435943305E+04  0.90725204344E+03 0.  0.
         23    2    4    4    0    0 -0.21055471180E+03 -0.29358507616E+03  0.10966115512E+04  0.11581187798E+04  0.90314618446E+02 0.  0.
         23    2    4    4    0    0  0.47776718869E+02  0.18275501280E+02 -0.15860972953E+03  0.18547555063E+03  0.81409611040E+02 0.  0.
          2    1    3    3  502    0  0.84138867405E+02  0.16207511210E+03 -0.94472913970E+03  0.96221662757E+03  0.00000000000E+00 0. -1.
         -1    1    3    3    0  502  0.78639125528E+02  0.11323446278E+03 -0.11792446211E+04  0.11872758871E+04  0.00000000000E+00 0.  1.
         11    1    5    5    0    0 -0.18769532124E+03 -0.25067615192E+03  0.10233472859E+04  0.10701905131E+04  0.00000000000E+00 0.  1.
        -11    1    5    5    0    0 -0.22859390563E+02 -0.42908924240E+02  0.73264265277E+02  0.87928266689E+02  0.00000000000E+00 0. -1.
          4    1    6    6  503    0  0.31943680761E+02 -0.29326305529E+02 -0.52412827494E+02  0.68025990787E+02  0.00000000000E+00 0. -1.
         -4    1    6    6    0  503  0.15833038108E+02  0.47601806809E+02 -0.10619690203E+03  0.11744955985E+03  0.00000000000E+00 0.  1.
<mgrwt>
<rscale>  0 0.32855937E+04</rscale>
<asrwt>0</asrwt>
<pdfrwt beam="1">  1        2 0.17747038E+00 0.32855937E+04</pdfrwt>
<pdfrwt beam="2">  1       -1 0.35992760E+00 0.32855937E+04</pdfrwt>
<totfact> 0.25670383E-01</totfact>
</mgrwt>
</event>
<event>
12    6  0.1542110E-007  0.1345988E+04  0.7818608E-02  0.8993870E-01
          2   -1    0    0  501    0  0.00000000000E+00  0.00000000000E+00  0.34332342859E+04  0.34332342859E+04  0.00000000000E+00 0. -1.
         -1   -1    0    0    0  501 -0.00000000000E+00 -0.00000000000E+00 -0.13192261827E+03  0.13192261827E+03  0.00000000000E+00 0.  1.
         24    2    1    2    0    0  0.15549321084E+03 -0.18220050919E+03  0.16611818703E+04  0.16803570037E+04  0.81849188861E+02 0.  0.
        254    2    1    2    0    0 -0.15549321084E+03  0.18220050919E+03  0.16401297974E+04  0.18847999005E+04  0.89725679063E+03 0.  0.
         23    2    4    4    0    0 -0.44746090915E+03 -0.13766542225E+03  0.71759016734E+03  0.86161807753E+03  0.90978181779E+02 0.  0.
         23    2    4    4    0    0  0.29196769832E+03  0.31986593145E+03  0.92253963004E+03  0.10231818229E+04  0.90897320144E+02 0.  0.
          2    1    3    3  502    0  0.15519897159E+03 -0.14887123956E+03  0.13030364348E+04  0.13206639683E+04  0.00000000000E+00 0. -1.
         -1    1    3    3    0  502  0.29423924350E+00 -0.33329269631E+02  0.35814543547E+03  0.35969303543E+03  0.00000000000E+00 0.  1.
         11    1    5    5    0    0 -0.18082918163E+03 -0.98297766819E+01  0.26291786173E+03  0.31925165536E+03  0.00000000000E+00 0.  1.
        -11    1    5    5    0    0 -0.26663172753E+03 -0.12783564557E+03  0.45467230562E+03  0.54236642217E+03  0.00000000000E+00 0. -1.
          3    1    6    6  503    0  0.16514642298E+03  0.22493420421E+03  0.65974099712E+03  0.71632877963E+03  0.00000000000E+00 0. -1.
         -3    1    6    6    0  503  0.12682127534E+03  0.94931727239E+02  0.26279863292E+03  0.30685304329E+03  0.00000000000E+00 0.  1.
<mgrwt>
<rscale>  0 0.13459885E+04</rscale>
<asrwt>0</asrwt>
<pdfrwt beam="1">  1        2 0.52818982E+00 0.13459885E+04</pdfrwt>
<pdfrwt beam="2">  1       -1 0.20295790E-01 0.13459885E+04</pdfrwt>
<totfact> 0.20448877E+01</totfact>
</mgrwt>
</event>
<event>
12    6  0.1542110E-007  0.1749962E+04  0.7818608E-02  0.8733371E-01
          2   -1    0    0  501    0  0.00000000000E+00  0.00000000000E+00  0.13757061070E+04  0.13757061070E+04  0.00000000000E+00 0. -1.
         -1   -1    0    0    0  501 -0.00000000000E+00 -0.00000000000E+00 -0.55650807808E+03  0.55650807808E+03  0.00000000000E+00 0.  1.
         24    2    1    2    0    0  0.57263537236E+03  0.14736932498E+03  0.58729762835E+03  0.83703055623E+03  0.77927274885E+02 0.  0.
        254    2    1    2    0    0 -0.57263537236E+03 -0.14736932498E+03  0.23190040062E+03  0.10951836289E+04  0.89219975206E+03 0.  0.
         23    2    4    4    0    0 -0.96269810100E+02 -0.43565026937E+03  0.27247465955E+03  0.52922948069E+03  0.82355143068E+02 0.  0.
         23    2    4    4    0    0 -0.47636556226E+03  0.28828094439E+03 -0.40574258929E+02  0.56595414821E+03  0.92885820146E+02 0.  0.
          4    1    3    3  502    0  0.42400317681E+03  0.13839409290E+03  0.46518018388E+03  0.64445653257E+03  0.00000000000E+00 0. -1.
         -3    1    3    3    0  502  0.14863219555E+03  0.89752320829E+01  0.12211744447E+03  0.19257402366E+03  0.00000000000E+00 0.  1.
         11    1    5    5    0    0 -0.29616793240E+02 -0.55995324898E+02  0.67842070706E+02  0.92817979993E+02  0.00000000000E+00 0. -1.
        -11    1    5    5    0    0 -0.66653016860E+02 -0.37965494448E+03  0.20463258884E+03  0.43641150070E+03  0.00000000000E+00 0.  1.
          3    1    6    6  503    0 -0.36112240345E+02  0.47078882935E+01  0.14899874518E+02  0.39347990743E+02  0.00000000000E+00 0. -1.
         -3    1    6    6    0  503 -0.44025332192E+03  0.28357305610E+03 -0.55474133447E+02  0.52660615747E+03  0.00000000000E+00 0.  1.
<mgrwt>
<rscale>  0 0.17499618E+04</rscale>
<asrwt>0</asrwt>
<pdfrwt beam="1">  1        2 0.21164709E+00 0.17499618E+04</pdfrwt>
<pdfrwt beam="2">  1       -1 0.85616628E-01 0.17499618E+04</pdfrwt>
<totfact> 0.21757600E+01</totfact>
</mgrwt>
</event>
<event>
12    6  0.1542110E-007  0.1484755E+04  0.7818608E-02  0.8894655E-01
          2   -1    0    0  501    0  0.00000000000E+00  0.00000000000E+00  0.14160017156E+04  0.14160017156E+04  0.00000000000E+00 0. -1.
         -1   -1    0    0    0  501 -0.00000000000E+00 -0.00000000000E+00 -0.38921156375E+03  0.38921156375E+03  0.00000000000E+00 0.  1.
         24    2    1    2    0    0  0.21099636421E+03 -0.39673638629E+03  0.19328986219E+03  0.49614762289E+03  0.82959429589E+02 0.  0.
        254    2    1    2    0    0 -0.21099636421E+03  0.39673638629E+03  0.83350028964E+03  0.13090656564E+04  0.90388657150E+03 0.  0.
         23    2    4    4    0    0 -0.21406994743E+03  0.67579720202E+03  0.61698368653E+03  0.94403068278E+03  0.89427400392E+02 0.  0.
         23    2    4    4    0    0  0.30735832237E+01 -0.27906081573E+03  0.21651660311E+03  0.36503497366E+03  0.92123323796E+02 0.  0.
          4    1    3    3  502    0  0.15223909336E+03 -0.28591721994E+03  0.97361234892E+02  0.33823750275E+03  0.00000000000E+00 0. -1.
         -3    1    3    3    0  502  0.58757270850E+02 -0.11081916635E+03  0.95928627296E+02  0.15791012014E+03  0.00000000000E+00 0.  1.
         11    1    5    5    0    0 -0.37615508880E+02  0.51624121225E+02  0.77006676233E+02  0.10005001042E+03  0.00000000000E+00 0.  1.
        -11    1    5    5    0    0 -0.17645443855E+03  0.62417308079E+03  0.53997701029E+03  0.84398067236E+03  0.00000000000E+00 0. -1.
          3    1    6    6  503    0  0.32127604025E+02 -0.22083749886E+03  0.19541690466E+03  0.29662965204E+03  0.00000000000E+00 0. -1.
         -3    1    6    6    0  503 -0.29054020801E+02 -0.58223316868E+02  0.21099698452E+02  0.68405321625E+02  0.00000000000E+00 0.  1.
<mgrwt>
<rscale>  0 0.14847549E+04</rscale>
<asrwt>0</asrwt>
<pdfrwt beam="1">  1        2 0.21784642E+00 0.14847549E+04</pdfrwt>
<pdfrwt beam="2">  1       -1 0.59878703E-01 0.14847549E+04</pdfrwt>
<totfact> 0.44167283E+01</totfact>
</mgrwt>
</event>
<event>
12    6  0.1542110E-007  0.1882562E+04  0.7818608E-02  0.8663585E-01
          2   -1    0    0  501    0  0.00000000000E+00  0.00000000000E+00  0.69156278371E+03  0.69156278371E+03  0.00000000000E+00 0. -1.
         -1   -1    0    0    0  501 -0.00000000000E+00 -0.00000000000E+00 -0.12811704374E+04  0.12811704374E+04  0.00000000000E+00 0.  1.
         24    2    1    2    0    0  0.24985219160E+03  0.29227696338E+03 -0.86941827866E+03  0.95368792119E+03  0.76030038666E+02 0.  0.
        254    2    1    2    0    0 -0.24985219160E+03 -0.29227696338E+03  0.27981062494E+03  0.10190453000E+04  0.90128097536E+03 0.  0.
         23    2    4    4    0    0 -0.30075497095E+03 -0.40926663902E+03 -0.16943939564E+03  0.54288474247E+03  0.89785301933E+02 0.  0.
         23    2    4    4    0    0  0.50902779350E+02  0.11698967564E+03  0.44925002058E+03  0.47616055748E+03  0.92874207205E+02 0.  0.
          4    1    3    3  502    0  0.16477735990E+02  0.31728722047E+01 -0.72453689455E+02  0.74371500032E+02  0.00000000000E+00 0. -1.
         -3    1    3    3    0  502  0.23337445561E+03  0.28910409118E+03 -0.79696458921E+03  0.87931642116E+03  0.00000000000E+00 0.  1.
         11    1    5    5    0    0 -0.29502567846E+03 -0.39580109252E+03 -0.17933034253E+03  0.52522188411E+03  0.00000000000E+00 0.  1.
        -11    1    5    5    0    0 -0.57292924921E+01 -0.13465546502E+02  0.98909468962E+01  0.17662858363E+02  0.00000000000E+00 0. -1.
          1    1    6    6  503    0  0.46425565395E+02  0.12918065918E+03  0.43790545391E+03  0.45891629127E+03  0.00000000000E+00 0.  1.
         -1    1    6    6    0  503  0.44772139548E+01 -0.12190983538E+02  0.11344566662E+02  0.17244266211E+02  0.00000000000E+00 0. -1.
<mgrwt>
<rscale>  0 0.18825619E+04</rscale>
<asrwt>0</asrwt>
<pdfrwt beam="1">  1        2 0.10639428E+00 0.18825619E+04</pdfrwt>
<pdfrwt beam="2">  1       -1 0.19710314E+00 0.18825619E+04</pdfrwt>
<totfact> 0.70214999E+00</totfact>
</mgrwt>
</event>
<event>
12    6  0.1542110E-007  0.1508498E+04  0.7818608E-02  0.8878821E-01
         -1   -1    0    0    0  501 -0.00000000000E+00  0.00000000000E+00  0.53358516055E+03  0.53358516055E+03  0.00000000000E+00 0.  1.
          2   -1    0    0  501    0  0.00000000000E+00 -0.00000000000E+00 -0.10661688723E+04  0.10661688723E+04  0.00000000000E+00 0. -1.
         24    2    1    2    0    0  0.19128042451E+03 -0.39253787047E+03 -0.37206738130E+03  0.57924945652E+03  0.80134986721E+02 0.  0.
        254    2    1    2    0    0 -0.19128042451E+03  0.39253787047E+03 -0.16051633045E+03  0.10205045763E+04  0.90828955593E+03 0.  0.
         23    2    4    4    0    0 -0.57223622967E+02  0.64677802194E+03  0.41599511483E+02  0.65743523545E+03  0.94309155239E+02 0.  0.
         23    2    4    4    0    0 -0.13405680154E+03 -0.25424015147E+03 -0.20211584193E+03  0.36306934089E+03  0.91428945479E+02 0.  0.
          4    1    3    3  502    0  0.15674967403E+03 -0.37048766038E+03 -0.34665336178E+03  0.53103683491E+03  0.00000000000E+00 0. -1.
         -3    1    3    3    0  502  0.34530750486E+02 -0.22050210095E+02 -0.25414019518E+02  0.48212621609E+02  0.00000000000E+00 0.  1.
         11    1    5    5    0    0 -0.25624620478E+02  0.36695831283E+03  0.69844830456E+02  0.37442399078E+03  0.00000000000E+00 0.  1.
        -11    1    5    5    0    0 -0.31599002489E+02  0.27981970911E+03 -0.28245318972E+02  0.28301124467E+03  0.00000000000E+00 0. -1.
          1    1    6    6  503    0 -0.14565580489E+03 -0.24474581134E+03 -0.18204298938E+03  0.33801741915E+03  0.00000000000E+00 0. -1.
         -1    1    6    6    0  503  0.11599003345E+02 -0.94943401326E+01 -0.20072852554E+02  0.25051921738E+02  0.00000000000E+00 0.  1.
<mgrwt>
<rscale>  0 0.15084984E+04</rscale>
<asrwt>0</asrwt>
<pdfrwt beam="1">  1        2 0.16402598E+00 0.15084984E+04</pdfrwt>
<pdfrwt beam="2">  1       -1 0.82090025E-01 0.15084984E+04</pdfrwt>
<totfact> 0.37185551E+01</totfact>
</mgrwt>
</event>
<event>
12    6  0.1542110E-007  0.1148969E+04  0.7818608E-02  0.9158735E-01
          2   -1    0    0  501    0  0.00000000000E+00  0.00000000000E+00  0.24092873237E+04  0.24092873237E+04  0.00000000000E+00 0. -1.
         -1   -1    0    0    0  501 -0.00000000000E+00 -0.00000000000E+00 -0.13698345290E+03  0.13698345290E+03  0.00000000000E+00 0.  1.
         24    2    1    2    0    0  0.49851427042E+02  0.86357129741E+02  0.83651893259E+03  0.84618368593E+03  0.79499604458E+02 0.  0.
        254    2    1    2    0    0 -0.49851427042E+02 -0.86357129741E+02  0.14357849382E+04  0.17000870907E+04  0.90491712797E+03 0.  0.
         23    2    4    4    0    0 -0.17014455347E+03  0.36096753340E+03  0.45809164812E+03  0.61432401782E+03  0.91100557358E+02 0.  0.
         23    2    4    4    0    0  0.12029312643E+03 -0.44732466314E+03  0.97769329012E+03  0.10857630729E+04  0.91801363815E+02 0.  0.
          4    1    3    3  502    0  0.63426688499E+02  0.76604519300E+02  0.79827391264E+03  0.80444542189E+03  0.00000000000E+00 0. -1.
         -3    1    3    3    0  502 -0.13575261458E+02  0.97526104407E+01  0.38245019951E+02  0.41738264041E+02  0.00000000000E+00 0.  1.
         11    1    5    5    0    0 -0.10917412893E+03  0.19930468368E+03  0.32335283491E+03  0.39521943678E+03  0.00000000000E+00 0. -1.
        -11    1    5    5    0    0 -0.60970424539E+02  0.16166284972E+03  0.13473881321E+03  0.21910458104E+03  0.00000000000E+00 0.  1.
          4    1    6    6  503    0  0.16463788864E+02 -0.12599890749E+03  0.18817710307E+03  0.22706255339E+03  0.00000000000E+00 0. -1.
         -4    1    6    6    0  503  0.10382933757E+03 -0.32132575565E+03  0.78951618705E+03  0.85870051950E+03  0.00000000000E+00 0.  1.
<mgrwt>
<rscale>  0 0.11489691E+04</rscale>
<asrwt>0</asrwt>
<pdfrwt beam="1">  1        2 0.37065956E+00 0.11489691E+04</pdfrwt>
<pdfrwt beam="2">  1       -1 0.21074379E-01 0.11489691E+04</pdfrwt>
<totfact> 0.83464790E+01</totfact>
</mgrwt>
</event>
<event>
12    6  0.1542110E-007  0.1992988E+04  0.7818608E-02  0.8609906E-01
          2   -1    0    0  501    0  0.00000000000E+00  0.00000000000E+00  0.11741244891E+04  0.11741244891E+04  0.00000000000E+00 0. -1.
         -1   -1    0    0    0  501 -0.00000000000E+00 -0.00000000000E+00 -0.84573717740E+03  0.84573717740E+03  0.00000000000E+00 0.  1.
         24    2    1    2    0    0  0.98617374795E+02  0.25173652524E+02 -0.66152474390E+03  0.67403135057E+03  0.79650331878E+02 0.  0.
        254    2    1    2    0    0 -0.98617374795E+02 -0.25173652524E+02  0.98991205561E+03  0.13458303160E+04  0.90607630037E+03 0.  0.
         23    2    4    4    0    0  0.92866744996E+01 -0.35443474121E+03  0.90709499139E+03  0.97837389738E+03  0.93187614896E+02 0.  0.
         23    2    4    4    0    0 -0.10790404929E+03  0.32926108869E+03  0.82817064225E+02  0.36745641857E+03  0.90052235104E+02 0.  0.
          2    1    3    3  502    0  0.57292872586E+01  0.11231103469E+02 -0.10914986112E+02  0.16676310727E+02  0.00000000000E+00 0. -1.
         -1    1    3    3    0  502  0.92888087536E+02  0.13942549055E+02 -0.65060975778E+03  0.65735503984E+03  0.00000000000E+00 0.  1.
         11    1    5    5    0    0  0.32434005003E+02 -0.10184614465E+03  0.19377666046E+03  0.22130069137E+03  0.00000000000E+00 0. -1.
        -11    1    5    5    0    0 -0.23147330503E+02 -0.25258859656E+03  0.71331833092E+03  0.75707320601E+03  0.00000000000E+00 0.  1.
          2    1    6    6  503    0 -0.35842493745E+02  0.75736457883E+02  0.59690082892E+02  0.10287663197E+03  0.00000000000E+00 0. -1.
         -2    1    6    6    0  503 -0.72061555549E+02  0.25352463080E+03  0.23126981333E+02  0.26457978660E+03  0.00000000000E+00 0.  1.
<mgrwt>
<rscale>  0 0.19929884E+04</rscale>
<asrwt>0</asrwt>
<pdfrwt beam="1">  1        2 0.18063454E+00 0.19929884E+04</pdfrwt>
<pdfrwt beam="2">  1       -1 0.13011341E+00 0.19929884E+04</pdfrwt>
<totfact> 0.10530288E+01</totfact>
</mgrwt>
</event>
<event>
12    6  0.1542110E-007  0.2441051E+04  0.7818608E-02  0.8424293E-01
         -1   -1    0    0    0  501 -0.00000000000E+00  0.00000000000E+00  0.50948136762E+03  0.50948136762E+03  0.00000000000E+00 0.  1.
          2   -1    0    0  501    0  0.00000000000E+00 -0.00000000000E+00 -0.29239199574E+04  0.29239199574E+04  0.00000000000E+00 0. -1.
         24    2    1    2    0    0 -0.64320970423E+03 -0.74485809614E+03 -0.51587663621E+03  0.11143496600E+04  0.84345444220E+02 0.  0.
        254    2    1    2    0    0  0.64320970423E+03  0.74485809614E+03 -0.18985619536E+04  0.23190516650E+04  0.89717937253E+03 0.  0.
         23    2    4    4    0    0 -0.71664461633E+02  0.49317884410E+03 -0.11169796307E+04  0.12265558433E+04  0.91839937155E+02 0.  0.
         23    2    4    4    0    0  0.71487416586E+03  0.25167925204E+03 -0.78158232295E+03  0.10924958218E+04  0.91042155660E+02 0.  0.
          2    1    3    3  502    0 -0.35673712283E+02 -0.16639937948E+02 -0.21829932797E+02  0.45011634595E+02  0.00000000000E+00 0. -1.
         -1    1    3    3    0  502 -0.60753599195E+03 -0.72821815819E+03 -0.49404670342E+03  0.10693380254E+04  0.00000000000E+00 0.  1.
         11    1    5    5    0    0 -0.10800150636E+02  0.32214618515E+03 -0.77552637538E+03  0.83984282266E+03  0.00000000000E+00 0. -1.
        -11    1    5    5    0    0 -0.60864310996E+02  0.17103265895E+03 -0.34145325528E+03  0.38671302062E+03  0.00000000000E+00 0.  1.
          2    1    6    6  503    0  0.20011408767E+03  0.10378551646E+03 -0.19358935819E+03  0.29714293045E+03  0.00000000000E+00 0. -1.
         -2    1    6    6    0  503  0.51476007819E+03  0.14789373558E+03 -0.58799296475E+03  0.79535289132E+03  0.00000000000E+00 0.  1.
<mgrwt>
<rscale>  0 0.24410512E+04</rscale>
<asrwt>0</asrwt>
<pdfrwt beam="1">  1        2 0.44983383E+00 0.24410512E+04</pdfrwt>
<pdfrwt beam="2">  1       -1 0.78381751E-01 0.24410512E+04</pdfrwt>
<totfact> 0.32255703E+00</totfact>
</mgrwt>
</event>
<event>
12    6  0.1542110E-007  0.3976772E+04  0.7818608E-02  0.8009249E-01
          2   -1    0    0  501    0  0.00000000000E+00  0.00000000000E+00  0.32644072248E+04  0.32644072248E+04  0.00000000000E+00 0. -1.
         -1   -1    0    0    0  501 -0.00000000000E+00 -0.00000000000E+00 -0.12111478708E+04  0.12111478708E+04  0.00000000000E+00 0.  1.
         24    2    1    2    0    0 -0.14242985040E+04 -0.64391944630E+03 -0.17902751833E+03  0.15757469418E+04  0.87573343050E+02 0.  0.
        254    2    1    2    0    0  0.14242985040E+04  0.64391944630E+03  0.22322868724E+04  0.28998081538E+04  0.99122357036E+03 0.  0.
         23    2    4    4    0    0  0.10454335015E+04  0.50672836612E+03  0.81047783942E+03  0.14193999592E+04  0.90094799164E+02 0.  0.
         23    2    4    4    0    0  0.37886500251E+03  0.13719108018E+03  0.14218090329E+04  0.14804081946E+04  0.87791878322E+02 0.  0.
          4    1    3    3  502    0 -0.48445272883E+02 -0.39890771912E+02 -0.11929789108E+02  0.63879089040E+02  0.00000000000E+00 0. -1.
         -3    1    3    3    0  502 -0.13758532312E+04 -0.60402867438E+03 -0.16709772922E+03  0.15118678528E+04  0.00000000000E+00 0.  1.
         11    1    5    5    0    0  0.71053141581E+03  0.37195410523E+03  0.59913036720E+03  0.10010803894E+04  0.00000000000E+00 0. -1.
        -11    1    5    5    0    0  0.33490208573E+03  0.13477426089E+03  0.21134747222E+03  0.41831956975E+03  0.00000000000E+00 0.  1.
          1    1    6    6  503    0  0.33581861828E+03  0.10875121426E+03  0.13184910047E+04  0.13649247234E+04  0.00000000000E+00 0. -1.
         -1    1    6    6    0  503  0.43046384235E+02  0.28439865921E+02  0.10331802819E+03  0.11548347120E+03  0.00000000000E+00 0.  1.
<mgrwt>
<rscale>  0 0.39767725E+04</rscale>
<asrwt>0</asrwt>
<pdfrwt beam="1">  1        2 0.50221649E+00 0.39767725E+04</pdfrwt>
<pdfrwt beam="2">  1       -1 0.18633044E+00 0.39767725E+04</pdfrwt>
<totfact> 0.19770233E-01</totfact>
</mgrwt>
</event>
<event>
12    6  0.1542110E-007  0.1641946E+04  0.7818608E-02  0.8795186E-01
          2   -1    0    0  501    0  0.00000000000E+00  0.00000000000E+00  0.14943763288E+04  0.14943763288E+04  0.00000000000E+00 0. -1.
         -1   -1    0    0    0  501 -0.00000000000E+00 -0.00000000000E+00 -0.45102180582E+03  0.45102180582E+03  0.00000000000E+00 0.  1.
         24    2    1    2    0    0 -0.28505488716E+03 -0.22758972496E+03 -0.15341038951E+03  0.40370017642E+03  0.79910657791E+02 0.  0.
        254    2    1    2    0    0  0.28505488716E+03  0.22758972496E+03  0.11967649125E+04  0.15416979583E+04  0.90085124576E+03 0.  0.
         23    2    4    4    0    0  0.14355236483E+03 -0.32786144598E+03  0.31128558565E+03  0.48271111115E+03  0.89503585304E+02 0.  0.
         23    2    4    4    0    0  0.14150252233E+03  0.55545117094E+03  0.88547932689E+03  0.10589868471E+04  0.93970936248E+02 0.  0.
          4    1    3    3  502    0 -0.48989692119E+02 -0.84304841255E+01 -0.82546997406E+01  0.50390505696E+02  0.00000000000E+00 0. -1.
         -3    1    3    3    0  502 -0.23606519504E+03 -0.21915924083E+03 -0.14515568977E+03  0.35330967072E+03  0.00000000000E+00 0.  1.
         11    1    5    5    0    0  0.35024572218E+02 -0.60086228498E+02  0.11157308020E+03  0.13147481789E+03  0.00000000000E+00 0.  1.
        -11    1    5    5    0    0  0.10852779262E+03 -0.26777521749E+03  0.19971250545E+03  0.35123629326E+03  0.00000000000E+00 0. -1.
          4    1    6    6  503    0  0.13980766637E+03  0.40573186256E+03  0.69320559731E+03  0.81529045622E+03  0.00000000000E+00 0. -1.
         -4    1    6    6    0  503  0.16948559580E+01  0.14971930838E+03  0.19227372958E+03  0.24369639088E+03  0.00000000000E+00 0.  1.
<mgrwt>
<rscale>  0 0.16419456E+04</rscale>
<asrwt>0</asrwt>
<pdfrwt beam="1">  1        2 0.22990405E+00 0.16419456E+04</pdfrwt>
<pdfrwt beam="2">  1       -1 0.69387971E-01 0.16419456E+04</pdfrwt>
<totfact> 0.29259249E+01</totfact>
</mgrwt>
</event>
<event>
12    6  0.1542110E-007  0.1249666E+04  0.7818608E-02  0.9070461E-01
          2   -1    0    0  501    0  0.00000000000E+00  0.00000000000E+00  0.13287700960E+04  0.13287700960E+04  0.00000000000E+00 0. -1.
         -1   -1    0    0    0  501 -0.00000000000E+00 -0.00000000000E+00 -0.29381790577E+03  0.29381790577E+03  0.00000000000E+00 0.  1.
         24    2    1    2    0    0  0.23194291988E+03 -0.14843767337E+02  0.49762092186E+03  0.55497230691E+03  0.79685783274E+02 0.  0.
        254    2    1    2    0    0 -0.23194291988E+03  0.14843767337E+02  0.53733126834E+03  0.10676156948E+04  0.89278246198E+03 0.  0.
         23    2    4    4    0    0  0.11955202527E+03 -0.35139150510E+03  0.35018627201E+03  0.51813236765E+03  0.89788911890E+02 0.  0.
         23    2    4    4    0    0 -0.35149494515E+03  0.36623527244E+03  0.18714499633E+03  0.54948332719E+03  0.96081767021E+02 0.  0.
          4    1    3    3  502    0  0.15938593815E+03  0.11770759402E+02  0.39798939567E+03  0.42887992156E+03  0.00000000000E+00 0. -1.
         -3    1    3    3    0  502  0.72556981733E+02 -0.26614526739E+02  0.99631526193E+02  0.12609238535E+03  0.00000000000E+00 0.  1.
         11    1    5    5    0    0  0.10906786822E+03 -0.33265429395E+03  0.35217424012E+03  0.49656960697E+03  0.00000000000E+00 0. -1.
        -11    1    5    5    0    0  0.10484157050E+02 -0.18737211158E+02 -0.19879681133E+01  0.21562760683E+02  0.00000000000E+00 0.  1.
          1    1    6    6  503    0 -0.12140990242E+03  0.98841685572E+02  0.15916359489E+02  0.15736382593E+03  0.00000000000E+00 0. -1.
         -1    1    6    6    0  503 -0.23008504273E+03  0.26739358687E+03  0.17122863685E+03  0.39211950126E+03  0.00000000000E+00 0.  1.
<mgrwt>
<rscale>  0 0.12496663E+04</rscale>
<asrwt>0</asrwt>
<pdfrwt beam="1">  1        2 0.20442616E+00 0.12496663E+04</pdfrwt>
<pdfrwt beam="2">  1       -1 0.45202756E-01 0.12496663E+04</pdfrwt>
<totfact> 0.86556218E+01</totfact>
</mgrwt>
</event>
<event>
12    6  0.1542110E-007  0.1564127E+04  0.7818608E-02  0.8842894E-01
         -1   -1    0    0    0  501 -0.00000000000E+00  0.00000000000E+00  0.15629138257E+04  0.15629138257E+04  0.00000000000E+00 0.  1.
          2   -1    0    0  501    0  0.00000000000E+00 -0.00000000000E+00 -0.39133544226E+03  0.39133544226E+03  0.00000000000E+00 0. -1.
         24    2    1    2    0    0 -0.38895044986E+03  0.24264690234E+03  0.10555195824E+03  0.47802476752E+03  0.84891052621E+02 0.  0.
        254    2    1    2    0    0  0.38895044986E+03 -0.24264690234E+03  0.10660264252E+04  0.14762245004E+04  0.91250559713E+03 0.  0.
         23    2    4    4    0    0 -0.26054551488E+02 -0.40146521095E+03  0.12442475131E+03  0.43091988458E+03  0.91418121443E+02 0.  0.
         23    2    4    4    0    0  0.41500500134E+03  0.15881830861E+03  0.94160167386E+03  0.10453046158E+04  0.92712574021E+02 0.  0.
          4    1    3    3  502    0 -0.28882659526E+03  0.16264643371E+03  0.11150888240E+03  0.34972688684E+03  0.00000000000E+00 0. -1.
         -3    1    3    3    0  502 -0.10012385460E+03  0.80000468633E+02 -0.59569241582E+01  0.12829788068E+03  0.00000000000E+00 0.  1.
         11    1    5    5    0    0 -0.52862954933E+02 -0.25311361816E+03  0.52345079338E+02  0.26382002015E+03  0.00000000000E+00 0. -1.
        -11    1    5    5    0    0  0.26808403445E+02 -0.14835159279E+03  0.72079671977E+02  0.16709986442E+03  0.00000000000E+00 0.  1.
          3    1    6    6  503    0  0.73777993670E+01  0.21176193838E+02  0.31899113357E+02  0.38992519050E+02  0.00000000000E+00 0. -1.
         -3    1    6    6    0  503  0.40762720198E+03  0.13764211477E+03  0.90970256050E+03  0.10063120968E+04  0.00000000000E+00 0.  1.
<mgrwt>
<rscale>  0 0.15641273E+04</rscale>
<asrwt>0</asrwt>
<pdfrwt beam="1">  1        2 0.60205453E-01 0.15641273E+04</pdfrwt>
<pdfrwt beam="2">  1       -1 0.24044828E+00 0.15641273E+04</pdfrwt>
<totfact> 0.72218797E+00</totfact>
</mgrwt>
</event>
<event>
12    6  0.1542110E-007  0.1062787E+04  0.7818608E-02  0.9242241E-01
         -1   -1    0    0    0  501 -0.00000000000E+00  0.00000000000E+00  0.52940895084E+03  0.52940895084E+03  0.00000000000E+00 0.  1.
          2   -1    0    0  501    0  0.00000000000E+00 -0.00000000000E+00 -0.53338516728E+03  0.53338516728E+03  0.00000000000E+00 0. -1.
         24    2    1    2    0    0 -0.16543335070E+02 -0.48668415957E+02 -0.10441097031E+03  0.13961458537E+03  0.77125126124E+02 0.  0.
        254    2    1    2    0    0  0.16543335070E+02  0.48668415957E+02  0.10043475387E+03  0.92317953275E+03  0.91625925002E+03 0.  0.
         23    2    4    4    0    0 -0.23421761592E+03 -0.33987007389E+03  0.15390073499E+03  0.44900301314E+03  0.86883317392E+02 0.  0.
         23    2    4    4    0    0  0.25076095099E+03  0.38853848985E+03 -0.53465981126E+02  0.47417651961E+03  0.90230526859E+02 0.  0.
          2    1    3    3  502    0  0.32126994124E+01 -0.64831178607E+02 -0.87688534503E+02  0.10909941448E+03  0.00000000000E+00 0. -1.
         -3    1    3    3    0  502 -0.19756034482E+02  0.16162762650E+02 -0.16722435808E+02  0.30515170888E+02  0.00000000000E+00 0.  1.
         11    1    5    5    0    0 -0.14664118150E+03 -0.27881707449E+03  0.11677017798E+03  0.33597302214E+03  0.00000000000E+00 0. -1.
        -11    1    5    5    0    0 -0.87576434416E+02 -0.61052999402E+02  0.37130557015E+02  0.11302999100E+03  0.00000000000E+00 0.  1.
          3    1    6    6  503    0  0.21190308611E+03  0.25258747374E+03 -0.34082226794E+02  0.33145881792E+03  0.00000000000E+00 0. -1.
         -3    1    6    6    0  503  0.38857864879E+02  0.13595101611E+03 -0.19383754331E+02  0.14271770169E+03  0.00000000000E+00 0.  1.
<mgrwt>
<rscale>  0 0.10627867E+04</rscale>
<asrwt>0</asrwt>
<pdfrwt beam="1">  1        2 0.82059257E-01 0.10627867E+04</pdfrwt>
<pdfrwt beam="2">  1       -1 0.81447531E-01 0.10627867E+04</pdfrwt>
<totfact> 0.97546603E+01</totfact>
</mgrwt>
</event>
<event>
12    6  0.1542110E-007  0.2026128E+04  0.7818608E-02  0.8594501E-01
         -1   -1    0    0    0  501 -0.00000000000E+00  0.00000000000E+00  0.39977807119E+03  0.39977807119E+03  0.00000000000E+00 0.  1.
          2   -1    0    0  501    0  0.00000000000E+00 -0.00000000000E+00 -0.25671720529E+04  0.25671720529E+04  0.00000000000E+00 0. -1.
         24    2    1    2    0    0  0.28047155581E+03 -0.14641771139E+03  0.21050878706E+03  0.38880644418E+03  0.82183099113E+02 0.  0.
        254    2    1    2    0    0 -0.28047155581E+03  0.14641771139E+03 -0.23779027688E+04  0.25781436799E+04  0.94461675654E+03 0.  0.
         23    2    4    4    0    0  0.71898428100E+02 -0.34633315776E+03 -0.11383637841E+04  0.11955230857E+04  0.91034627850E+02 0.  0.
         23    2    4    4    0    0 -0.35236998391E+03  0.49275086915E+03 -0.12395389847E+04  0.13826205942E+04  0.90635469370E+02 0.  0.
          4    1    3    3  502    0  0.99152643536E+02 -0.16555617300E+02  0.40523432559E+02  0.10838580982E+03  0.00000000000E+00 0. -1.
         -3    1    3    3    0  502  0.18131891228E+03 -0.12986209409E+03  0.16998535450E+03  0.28042063436E+03  0.00000000000E+00 0.  1.
         11    1    5    5    0    0 -0.55922996956E+01 -0.70455022325E+02 -0.34059209296E+03  0.34784789459E+03  0.00000000000E+00 0. -1.
        -11    1    5    5    0    0  0.77490727795E+02 -0.27587813544E+03 -0.79777169112E+03  0.84767519113E+03  0.00000000000E+00 0.  1.
          2    1    6    6  503    0 -0.28296780238E+03  0.39677372592E+03 -0.90727700409E+03  0.10298794730E+04  0.00000000000E+00 0.  1.
         -2    1    6    6    0  503 -0.69402181536E+02  0.95977143229E+02 -0.33226198063E+03  0.35274112122E+03  0.00000000000E+00 0. -1.
<mgrwt>
<rscale>  0 0.20261284E+04</rscale>
<asrwt>0</asrwt>
<pdfrwt beam="1">  1        2 0.39494953E+00 0.20261284E+04</pdfrwt>
<pdfrwt beam="2">  1       -1 0.61504321E-01 0.20261284E+04</pdfrwt>
<totfact> 0.90067302E+00</totfact>
</mgrwt>
</event>
<event>
12    6  0.1542110E-007  0.1193972E+04  0.7818608E-02  0.9118149E-01
          2   -1    0    0  501    0  0.00000000000E+00  0.00000000000E+00  0.11160090891E+04  0.11160090891E+04  0.00000000000E+00 0. -1.
         -1   -1    0    0    0  501 -0.00000000000E+00 -0.00000000000E+00 -0.31934531398E+03  0.31934531398E+03  0.00000000000E+00 0.  1.
         24    2    1    2    0    0 -0.13785945070E+03  0.47530355504E+02  0.42277083994E+03  0.45432646416E+03  0.80081146927E+02 0.  0.
        254    2    1    2    0    0  0.13785945070E+03 -0.47530355504E+02  0.37389293518E+03  0.98102793891E+03  0.89518463297E+03 0.  0.
         23    2    4    4    0    0 -0.21435518522E+03 -0.28837254515E+03  0.39866318497E+03  0.54464294034E+03  0.92718537441E+02 0.  0.
         23    2    4    4    0    0  0.35221463592E+03  0.24084218965E+03 -0.24770249794E+02  0.43638499857E+03  0.88080597340E+02 0.  0.
          4    1    3    3  502    0 -0.13819903893E+03  0.46238181674E+02  0.32082007899E+03  0.35236694920E+03  0.00000000000E+00 0. -1.
         -3    1    3    3    0  502  0.33958822437E+00  0.12921738298E+01  0.10195076095E+03  0.10195951497E+03  0.00000000000E+00 0.  1.
         11    1    5    5    0    0 -0.13941798384E+03 -0.15509808766E+03  0.16748615541E+03  0.26747785566E+03  0.00000000000E+00 0.  1.
        -11    1    5    5    0    0 -0.74937201383E+02 -0.13327445749E+03  0.23117702957E+03  0.27716508468E+03  0.00000000000E+00 0. -1.
          4    1    6    6  503    0  0.14595007936E+03  0.14831840490E+03 -0.30128309167E+02  0.21025577259E+03  0.00000000000E+00 0. -1.
         -4    1    6    6    0  503  0.20626455656E+03  0.92523784750E+02  0.53580593726E+01  0.22612922597E+03  0.00000000000E+00 0.  1.
<mgrwt>
<rscale>  0 0.11939720E+04</rscale>
<asrwt>0</asrwt>
<pdfrwt beam="1">  1        2 0.17169370E+00 0.11939720E+04</pdfrwt>
<pdfrwt beam="2">  1       -1 0.49130049E-01 0.11939720E+04</pdfrwt>
<totfact> 0.99453034E+01</totfact>
</mgrwt>
</event>
<event>
12    6  0.1542110E-007  0.1674033E+04  0.7818608E-02  0.8776314E-01
          2   -1    0    0  501    0  0.00000000000E+00  0.00000000000E+00  0.47643202939E+03  0.47643202939E+03  0.00000000000E+00 0. -1.
         -1   -1    0    0    0  501 -0.00000000000E+00 -0.00000000000E+00 -0.14705073539E+04  0.14705073539E+04  0.00000000000E+00 0.  1.
         24    2    1    2    0    0 -0.25789680427E+03  0.53025578199E+03 -0.47201276485E+03  0.75970889840E+03  0.81728845210E+02 0.  0.
        254    2    1    2    0    0  0.25789680427E+03 -0.53025578199E+03 -0.52206255966E+03  0.11872304849E+04  0.88841710479E+03 0.  0.
         23    2    4    4    0    0 -0.10891381901E+02 -0.69455498234E+03 -0.20729985935E+03  0.73066906779E+03  0.91535835848E+02 0.  0.
         23    2    4    4    0    0  0.26878818617E+03  0.16429920035E+03 -0.31476270031E+03  0.45656141710E+03  0.10065512319E+03 0.  0.
          4    1    3    3  502    0 -0.75762971864E+02  0.19577481729E+03 -0.21343020013E+03  0.29936642650E+03  0.00000000000E+00 0. -1.
         -3    1    3    3    0  502 -0.18213383240E+03  0.33448096470E+03 -0.25858256473E+03  0.46034247190E+03  0.00000000000E+00 0.  1.
         11    1    5    5    0    0  0.33763882532E+02 -0.44477983116E+03 -0.14937003711E+03  0.47040461940E+03  0.00000000000E+00 0. -1.
        -11    1    5    5    0    0 -0.44655264434E+02 -0.24977515118E+03 -0.57929822243E+02  0.26026444839E+03  0.00000000000E+00 0.  1.
          3    1    6    6  503    0  0.21322495687E+03  0.75992539774E+02 -0.21307349999E+03  0.31086985175E+03  0.00000000000E+00 0. -1.
         -3    1    6    6    0  503  0.55563229299E+02  0.88306660579E+02 -0.10168920032E+03  0.14569156535E+03  0.00000000000E+00 0.  1.
<mgrwt>
<rscale>  0 0.16740332E+04</rscale>
<asrwt>0</asrwt>
<pdfrwt beam="1">  1        2 0.73297236E-01 0.16740332E+04</pdfrwt>
<pdfrwt beam="2">  1       -1 0.22623190E+00 0.16740332E+04</pdfrwt>
<totfact> 0.70977688E+00</totfact>
</mgrwt>
</event>
<event>
12    6  0.1542110E-007  0.1897790E+04  0.7818608E-02  0.8655957E-01
         -1   -1    0    0    0  501 -0.00000000000E+00  0.00000000000E+00  0.70075914321E+03  0.70075914321E+03  0.00000000000E+00 0.  1.
          2   -1    0    0  501    0  0.00000000000E+00 -0.00000000000E+00 -0.12848943771E+04  0.12848943771E+04  0.00000000000E+00 0. -1.
         24    2    1    2    0    0 -0.61897655054E+03  0.34346091639E+03 -0.42530531013E+03  0.82963066344E+03  0.79404405897E+02 0.  0.
        254    2    1    2    0    0  0.61897655054E+03 -0.34346091639E+03 -0.15882992373E+03  0.11560228568E+04  0.90003584910E+03 0.  0.
         23    2    4    4    0    0  0.30318752677E+03  0.17604405431E+03  0.22828684354E+03  0.42945254218E+03  0.96955750761E+02 0.  0.
         23    2    4    4    0    0  0.31578902377E+03 -0.51950497071E+03 -0.38711676726E+03  0.72657031466E+03  0.91852645727E+02 0.  0.
          4    1    3    3  502    0 -0.20900378735E+03  0.12123775961E+03 -0.10243198666E+03  0.26243759138E+03  0.00000000000E+00 0. -1.
         -3    1    3    3    0  502 -0.40997276320E+03  0.22222315678E+03 -0.32287332347E+03  0.56719307205E+03  0.00000000000E+00 0.  1.
         11    1    5    5    0    0  0.37406695546E+02  0.62691486206E+02  0.29530038182E+02  0.78749644250E+02  0.00000000000E+00 0. -1.
        -11    1    5    5    0    0  0.26578083122E+03  0.11335256811E+03  0.19875680535E+03  0.35070289793E+03  0.00000000000E+00 0.  1.
          1    1    6    6  503    0  0.28626900500E+03 -0.40512916536E+03 -0.32573700412E+03  0.59345107608E+03  0.00000000000E+00 0.  1.
         -1    1    6    6    0  503  0.29520018779E+02 -0.11437580535E+03 -0.61379763144E+02  0.13311923858E+03  0.00000000000E+00 0. -1.
<mgrwt>
<rscale>  0 0.18977897E+04</rscale>
<asrwt>0</asrwt>
<pdfrwt beam="1">  1        2 0.19767606E+00 0.18977897E+04</pdfrwt>
<pdfrwt beam="2">  1       -1 0.10780910E+00 0.18977897E+04</pdfrwt>
<totfact> 0.14419162E+01</totfact>
</mgrwt>
</event>
<event>
12    6  0.1542110E-007  0.1802372E+04  0.7818608E-02  0.8705039E-01
         -1   -1    0    0    0  501 -0.00000000000E+00  0.00000000000E+00  0.63475388676E+03  0.63475388676E+03  0.00000000000E+00 0.  1.
          2   -1    0    0  501    0  0.00000000000E+00 -0.00000000000E+00 -0.12794511082E+04  0.12794511082E+04  0.00000000000E+00 0. -1.
         24    2    1    2    0    0  0.23551428628E+03 -0.16864597167E+03  0.40537705320E+03  0.50430458739E+03  0.78000761501E+02 0.  0.
        254    2    1    2    0    0 -0.23551428628E+03  0.16864597167E+03 -0.10500742746E+04  0.14099004075E+04  0.89512833391E+03 0.  0.
         23    2    4    4    0    0 -0.44898024008E+03  0.29572603131E+02 -0.17018083612E+03  0.48953999814E+03  0.90719887347E+02 0.  0.
         23    2    4    4    0    0  0.21346595380E+03  0.13907336854E+03 -0.87989343850E+03  0.92036040940E+03  0.89116243222E+02 0.  0.
          2    1    3    3  502    0  0.17444222301E+03 -0.14805696498E+03  0.26679505372E+03  0.35146913768E+03  0.00000000000E+00 0. -1.
         -1    1    3    3    0  502  0.61072063272E+02 -0.20589006685E+02  0.13858199948E+03  0.15283544971E+03  0.00000000000E+00 0.  1.
         11    1    5    5    0    0 -0.37576630412E+03  0.32790368250E+02 -0.17557847824E+03  0.41605687782E+03  0.00000000000E+00 0. -1.
        -11    1    5    5    0    0 -0.73213935964E+02 -0.32177651192E+01  0.53976421249E+01  0.73483120322E+02  0.00000000000E+00 0.  1.
          4    1    6    6  503    0  0.18915432875E+03  0.14615673684E+03 -0.83782365074E+03  0.87125749440E+03  0.00000000000E+00 0. -1.
         -4    1    6    6    0  503  0.24311625051E+02 -0.70833683098E+01 -0.42069787765E+02  0.49102915003E+02  0.00000000000E+00 0.  1.
<mgrwt>
<rscale>  0 0.18023724E+04</rscale>
<asrwt>0</asrwt>
<pdfrwt beam="1">  1        2 0.19683863E+00 0.18023724E+04</pdfrwt>
<pdfrwt beam="2">  1       -1 0.97654445E-01 0.18023724E+04</pdfrwt>
<totfact> 0.18401582E+01</totfact>
</mgrwt>
</event>
<event>
12    6  0.1542110E-007  0.1444836E+04  0.7818608E-02  0.8921988E-01
          2   -1    0    0  501    0  0.00000000000E+00  0.00000000000E+00  0.68267049123E+03  0.68267049123E+03  0.00000000000E+00 0. -1.
         -1   -1    0    0    0  501 -0.00000000000E+00 -0.00000000000E+00 -0.76448000221E+03  0.76448000221E+03  0.00000000000E+00 0.  1.
         24    2    1    2    0    0  0.31558229077E+02 -0.33065294511E+03 -0.29628281021E+03  0.45188960190E+03  0.78060340440E+02 0.  0.
        254    2    1    2    0    0 -0.31558229077E+02  0.33065294511E+03  0.21447329923E+03  0.99526089155E+03  0.91335543696E+03 0.  0.
         23    2    4    4    0    0 -0.38134270247E+02  0.62035319981E+03  0.27496040855E+03  0.68607892156E+03  0.93854916072E+02 0.  0.
         23    2    4    4    0    0  0.65760411697E+01 -0.28970025470E+03 -0.60487109318E+02  0.30918196998E+03  0.89248631806E+02 0.  0.
          2    1    3    3  502    0 -0.27953152910E+00  0.28921470436E+01  0.18069715457E+01  0.34216660510E+01  0.00000000000E+00 0. -1.
         -1    1    3    3    0  502  0.31837760606E+02 -0.33354509215E+03 -0.29808978175E+03  0.44846793585E+03  0.00000000000E+00 0.  1.
         11    1    5    5    0    0 -0.57631662733E+02  0.36695734800E+03  0.13029207659E+03  0.39364340338E+03  0.00000000000E+00 0. -1.
        -11    1    5    5    0    0  0.19497392486E+02  0.25339585181E+03  0.14466833196E+03  0.29243551819E+03  0.00000000000E+00 0.  1.
          1    1    6    6  503    0  0.43922073798E+02 -0.21764314930E+03 -0.42859491470E+02  0.22612966416E+03  0.00000000000E+00 0. -1.
         -1    1    6    6    0  503 -0.37346032629E+02 -0.72057105391E+02 -0.17627617848E+02  0.83052305816E+02  0.00000000000E+00 0.  1.
<mgrwt>
<rscale>  0 0.14448362E+04</rscale>
<asrwt>0</asrwt>
<pdfrwt beam="1">  1        2 0.10502623E+00 0.14448362E+04</pdfrwt>
<pdfrwt beam="2">  1       -1 0.11761231E+00 0.14448362E+04</pdfrwt>
<totfact> 0.30483383E+01</totfact>
</mgrwt>
</event>
<event>
12    6  0.1542110E-007  0.2364840E+04  0.7818608E-02  0.8452786E-01
          2   -1    0    0  501    0  0.00000000000E+00  0.00000000000E+00  0.26557740808E+04  0.26557740808E+04  0.00000000000E+00 0. -1.
         -1   -1    0    0    0  501 -0.00000000000E+00 -0.00000000000E+00 -0.52644412363E+03  0.52644412363E+03  0.00000000000E+00 0.  1.
         24    2    1    2    0    0  0.46765226048E+03  0.80309385587E+03  0.38102219806E+03  0.10075894158E+04  0.80000858347E+02 0.  0.
        254    2    1    2    0    0 -0.46765226048E+03 -0.80309385587E+03  0.17483077591E+04  0.21746287886E+04  0.89931750216E+03 0.  0.
         23    2    4    4    0    0 -0.99849645713E+02 -0.14147849825E+03 -0.64882541771E+02  0.20763897650E+03  0.94435603045E+02 0.  0.
         23    2    4    4    0    0 -0.36780261477E+03 -0.66161535762E+03  0.18131903008E+04  0.19669898121E+04  0.91521630908E+02 0.  0.
          2    1    3    3  502    0  0.31486951295E+03  0.46804560889E+03  0.21554576603E+03  0.60387869597E+03  0.00000000000E+00 0. -1.
         -1    1    3    3    0  502  0.15278274753E+03  0.33504824697E+03  0.16547643203E+03  0.40371071982E+03  0.00000000000E+00 0.  1.
         11    1    5    5    0    0 -0.72030863184E+01 -0.91301246092E+02 -0.24520582657E+02  0.94810658496E+02  0.00000000000E+00 0. -1.
        -11    1    5    5    0    0 -0.92646559394E+02 -0.50177252153E+02 -0.40361959115E+02  0.11282831801E+03  0.00000000000E+00 0.  1.
          4    1    6    6  503    0 -0.11580829672E+03 -0.13251181338E+03  0.39065084715E+03  0.42846123122E+03  0.00000000000E+00 0. -1.
         -4    1    6    6    0  503 -0.25199431804E+03 -0.52910354425E+03  0.14225394537E+04  0.15385285809E+04  0.00000000000E+00 0.  1.
<mgrwt>
<rscale>  0 0.23648397E+04</rscale>
<asrwt>0</asrwt>
<pdfrwt beam="1">  1        2 0.40858062E+00 0.23648397E+04</pdfrwt>
<pdfrwt beam="2">  1       -1 0.80991405E-01 0.23648397E+04</pdfrwt>
<totfact> 0.43976309E+00</totfact>
</mgrwt>
</event>
<event>
12    6  0.1542110E-007  0.3960077E+04  0.7818608E-02  0.8012649E-01
          2   -1    0    0  501    0  0.00000000000E+00  0.00000000000E+00  0.38901663499E+04  0.38901663499E+04  0.00000000000E+00 0. -1.
         -1   -1    0    0    0  501 -0.00000000000E+00 -0.00000000000E+00 -0.10078112530E+04  0.10078112530E+04  0.00000000000E+00 0.  1.
         24    2    1    2    0    0  0.82368800797E+03  0.13376619905E+04  0.98427797792E+02  0.15761005939E+04  0.81262016775E+02 0.  0.
        254    2    1    2    0    0 -0.82368800797E+03 -0.13376619905E+04  0.27839272991E+04  0.33218770091E+04  0.90377769475E+03 0.  0.
         23    2    4    4    0    0 -0.74187094482E+03 -0.98978530271E+03  0.26561552278E+04  0.29314869998E+04  0.91695100073E+02 0.  0.
         23    2    4    4    0    0 -0.81817063153E+02 -0.34787668779E+03  0.12777207124E+03  0.39039000927E+03  0.91468220823E+02 0.  0.
          2    1    3    3  502    0  0.18766004091E+03  0.24743099415E+03  0.75171820823E+01  0.31063627581E+03  0.00000000000E+00 0. -1.
         -1    1    3    3    0  502  0.63602796706E+03  0.10902309964E+04  0.90910615709E+02  0.12654643181E+04  0.00000000000E+00 0.  1.
         11    1    5    5    0    0 -0.45309055983E+03 -0.67615910691E+03  0.17265886048E+04  0.19088191123E+04  0.00000000000E+00 0.  1.
        -11    1    5    5    0    0 -0.28878038499E+03 -0.31362619580E+03  0.92956662303E+03  0.10226678875E+04  0.00000000000E+00 0. -1.
          1    1    6    6  503    0 -0.59865983041E+02 -0.30585330228E+03  0.13964834127E+03  0.34151403729E+03  0.00000000000E+00 0. -1.
         -1    1    6    6    0  503 -0.21951080112E+02 -0.42023385504E+02 -0.11876270038E+02  0.48875971983E+02  0.00000000000E+00 0.  1.
<mgrwt>
<rscale>  0 0.39600775E+04</rscale>
<asrwt>0</asrwt>
<pdfrwt beam="1">  1        2 0.59848712E+00 0.39600775E+04</pdfrwt>
<pdfrwt beam="2">  1       -1 0.15504789E+00 0.39600775E+04</pdfrwt>
<totfact> 0.11941221E-01</totfact>
</mgrwt>
</event>
<event>
12    6  0.1542110E-007  0.2036690E+04  0.7818608E-02  0.8589657E-01
         -1   -1    0    0    0  501 -0.00000000000E+00  0.00000000000E+00  0.37152996883E+03  0.37152996883E+03  0.00000000000E+00 0.  1.
          2   -1    0    0  501    0  0.00000000000E+00 -0.00000000000E+00 -0.27912318302E+04  0.27912318302E+04  0.00000000000E+00 0. -1.
         24    2    1    2    0    0  0.46939606534E+03 -0.20910291038E+03 -0.19663394358E+04  0.20339113056E+04  0.79042577212E+02 0.  0.
        254    2    1    2    0    0 -0.46939606534E+03  0.20910291038E+03 -0.45336242558E+03  0.11288504934E+04  0.89705588137E+03 0.  0.
         23    2    4    4    0    0 -0.16132368076E+03 -0.32409930761E+03 -0.31989469178E+03  0.49194760655E+03  0.92812405406E+02 0.  0.
         23    2    4    4    0    0 -0.30807238458E+03  0.53320221799E+03 -0.13346773380E+03  0.63690288687E+03  0.92835617801E+02 0.  0.
          4    1    3    3  502    0  0.45075885644E+03 -0.18801431139E+03 -0.19016303222E+04  0.19633468390E+04  0.00000000000E+00 0. -1.
         -3    1    3    3    0  502  0.18637208900E+02 -0.21088598990E+02 -0.64709113573E+02  0.70564466571E+02  0.00000000000E+00 0.  1.
         11    1    5    5    0    0 -0.11702702831E+03 -0.16295260561E+03 -0.13035933468E+03  0.23925390941E+03  0.00000000000E+00 0. -1.
        -11    1    5    5    0    0 -0.44296652448E+02 -0.16114670200E+03 -0.18953535711E+03  0.25269369715E+03  0.00000000000E+00 0.  1.
          3    1    6    6  503    0 -0.87365864868E+02  0.83845035816E+02 -0.11556173936E+02  0.12164016414E+03  0.00000000000E+00 0. -1.
         -3    1    6    6    0  503 -0.22070651972E+03  0.44935718217E+03 -0.12191155986E+03  0.51526272274E+03  0.00000000000E+00 0.  1.
<mgrwt>
<rscale>  0 0.20366897E+04</rscale>
<asrwt>0</asrwt>
<pdfrwt beam="1">  1        2 0.42942029E+00 0.20366897E+04</pdfrwt>
<pdfrwt beam="2">  1       -1 0.57158456E-01 0.20366897E+04</pdfrwt>
<totfact> 0.76589500E+00</totfact>
</mgrwt>
</event>
<event>
12    6  0.1542110E-007  0.1820322E+04  0.7818608E-02  0.8695567E-01
          2   -1    0    0  501    0  0.00000000000E+00  0.00000000000E+00  0.16406373413E+04  0.16406373413E+04  0.00000000000E+00 0. -1.
         -1   -1    0    0    0  501 -0.00000000000E+00 -0.00000000000E+00 -0.50492134425E+03  0.50492134425E+03  0.00000000000E+00 0.  1.
         24    2    1    2    0    0 -0.39092974298E+03 -0.69597649975E+02 -0.22934408871E+03  0.46313724507E+03  0.65019227259E+02 0.  0.
        254    2    1    2    0    0  0.39092974298E+03  0.69597649975E+02  0.13650600858E+04  0.16824214405E+04  0.89971271462E+03 0.  0.
         23    2    4    4    0    0 -0.21705744323E+03 -0.11761500284E+02  0.69013469999E+02  0.24567987556E+03  0.91342627862E+02 0.  0.
         23    2    4    4    0    0  0.60798718621E+03  0.81359150259E+02  0.12960466158E+04  0.14367415650E+04  0.90673944550E+02 0.  0.
          4    1    3    3  502    0 -0.77196602866E+02  0.10195414956E+02 -0.56123793494E+02  0.95985114347E+02  0.00000000000E+00 0. -1.
         -3    1    3    3    0  502 -0.31373314012E+03 -0.79793064931E+02 -0.17322029521E+03  0.36715213072E+03  0.00000000000E+00 0.  1.
         11    1    5    5    0    0 -0.77400001942E+02  0.38326968578E+02  0.14302158693E+02  0.87545808377E+02  0.00000000000E+00 0. -1.
        -11    1    5    5    0    0 -0.13965744129E+03 -0.50088468862E+02  0.54711311305E+02  0.15813406718E+03  0.00000000000E+00 0.  1.
          2    1    6    6  503    0 -0.96174810575E+00  0.64028443708E+01  0.15549358803E+02  0.16843513133E+02  0.00000000000E+00 0. -1.
         -2    1    6    6    0  503  0.60894893432E+03  0.74956305888E+02  0.12804972570E+04  0.14198980518E+04  0.00000000000E+00 0.  1.
<mgrwt>
<rscale>  0 0.18203217E+04</rscale>
<asrwt>0</asrwt>
<pdfrwt beam="1">  1        2 0.25240574E+00 0.18203217E+04</pdfrwt>
<pdfrwt beam="2">  1       -1 0.77680207E-01 0.18203217E+04</pdfrwt>
<totfact> 0.18868811E+01</totfact>
</mgrwt>
</event>
<event>
12    6  0.1542110E-007  0.1241940E+04  0.7818608E-02  0.9076919E-01
         -3   -1    0    0    0  501 -0.00000000000E+00  0.00000000000E+00  0.27561901248E+03  0.27561901248E+03  0.00000000000E+00 0.  1.
          4   -1    0    0  501    0  0.00000000000E+00 -0.00000000000E+00 -0.13990453903E+04  0.13990453903E+04  0.00000000000E+00 0. -1.
         24    2    1    2    0    0  0.14823227344E+03  0.15723500976E+03 -0.51481990641E+03  0.56335092113E+03  0.75027122533E+02 0.  0.
        254    2    1    2    0    0 -0.14823227344E+03 -0.15723500976E+03 -0.60860647136E+03  0.11113134816E+04  0.90438938640E+03 0.  0.
         23    2    4    4    0    0 -0.29992106082E+03  0.29742992837E+03 -0.20721216533E+03  0.47944218804E+03  0.92253591769E+02 0.  0.
         23    2    4    4    0    0  0.15168878738E+03 -0.45466493813E+03 -0.40139430603E+03  0.63187129357E+03  0.91729213160E+02 0.  0.
          2    1    3    3  502    0  0.14227790947E+03  0.15210609528E+03 -0.51496673882E+03  0.55549078285E+03  0.00000000000E+00 0. -1.
         -1    1    3    3    0  502  0.59543639718E+01  0.51289144755E+01  0.14683240365E+00  0.78601382787E+01  0.00000000000E+00 0.  1.
         11    1    5    5    0    0 -0.30240160050E+03  0.27270092062E+03 -0.19101432313E+03  0.44977660203E+03  0.00000000000E+00 0. -1.
        -11    1    5    5    0    0  0.24805396746E+01  0.24729007755E+02 -0.16197842194E+02  0.29665586011E+02  0.00000000000E+00 0.  1.
          2    1    6    6  503    0  0.52658509254E+02 -0.21969416959E+03 -0.24250289770E+03  0.33143038808E+03  0.00000000000E+00 0.  1.
         -2    1    6    6    0  503  0.99030278124E+02 -0.23497076854E+03 -0.15889140833E+03  0.30044090549E+03  0.00000000000E+00 0. -1.
<mgrwt>
<rscale>  0 0.12419396E+04</rscale>
<asrwt>0</asrwt>
<pdfrwt beam="1">  1        4 0.21523775E+00 0.12419396E+04</pdfrwt>
<pdfrwt beam="2">  1       -3 0.42402925E-01 0.12419396E+04</pdfrwt>
<totfact> 0.13053209E+00</totfact>
</mgrwt>
</event>
<event>
12    6  0.1542110E-007  0.1347016E+04  0.7818608E-02  0.8993090E-01
         -3   -1    0    0    0  501 -0.00000000000E+00  0.00000000000E+00  0.40906587014E+03  0.40906587014E+03  0.00000000000E+00 0.  1.
          2   -1    0    0  501    0  0.00000000000E+00 -0.00000000000E+00 -0.11088996780E+04  0.11088996780E+04  0.00000000000E+00 0. -1.
         24    2    1    2    0    0 -0.12115531660E+03 -0.32126282958E+03 -0.32884317685E+03  0.48417610751E+03  0.91652887096E+02 0.  0.
        254    2    1    2    0    0  0.12115531660E+03  0.32126282958E+03 -0.37099063101E+03  0.10337894406E+04  0.90177499569E+03 0.  0.
         23    2    4    4    0    0  0.35396427915E+03 -0.11083250269E+03  0.43349552877E+02  0.38492692412E+03  0.93354156903E+02 0.  0.
         23    2    4    4    0    0 -0.23280896256E+03  0.43209533227E+03 -0.41434018389E+03  0.64886251651E+03  0.91860699570E+02 0.  0.
          4    1    3    3  502    0 -0.57051764334E+02 -0.12712006213E+03 -0.19554302555E+03  0.24010724447E+03  0.00000000000E+00 0. -1.
         -3    1    3    3    0  502 -0.64103552262E+02 -0.19414276745E+03 -0.13330015131E+03  0.24406886303E+03  0.00000000000E+00 0.  1.
         11    1    5    5    0    0 -0.42956447319E+01 -0.35605397126E+01 -0.54279448945E+01  0.77841243878E+01  0.00000000000E+00 0.  1.
        -11    1    5    5    0    0  0.35825992389E+03 -0.10727196298E+03  0.48777497771E+02  0.37714279974E+03  0.00000000000E+00 0. -1.
          2    1    6    6  503    0 -0.15730881006E+03  0.22010572856E+03 -0.26553391185E+03  0.37907895195E+03  0.00000000000E+00 0. -1.
         -2    1    6    6    0  503 -0.75500152500E+02  0.21198960371E+03 -0.14880627204E+03  0.26978356456E+03  0.00000000000E+00 0.  1.
<mgrwt>
<rscale>  0 0.13470160E+04</rscale>
<asrwt>0</asrwt>
<pdfrwt beam="1">  1        2 0.17059995E+00 0.13470160E+04</pdfrwt>
<pdfrwt beam="2">  1       -3 0.62933212E-01 0.13470160E+04</pdfrwt>
<totfact> 0.32848633E+01</totfact>
</mgrwt>
</event>
<event>
12    6  0.1542110E-007  0.2744828E+04  0.7818608E-02  0.8320605E-01
         -1   -1    0    0    0  501 -0.00000000000E+00  0.00000000000E+00  0.51311210993E+03  0.51311210993E+03  0.00000000000E+00 0.  1.
          2   -1    0    0  501    0  0.00000000000E+00 -0.00000000000E+00 -0.36707781570E+04  0.36707781570E+04  0.00000000000E+00 0. -1.
         24    2    1    2    0    0 -0.74234016601E+03  0.29055736009E+03 -0.28209231144E+04  0.29324759126E+04  0.79468603026E+02 0.  0.
        254    2    1    2    0    0  0.74234016601E+03 -0.29055736009E+03 -0.33674293265E+03  0.12514143543E+04  0.90396326364E+03 0.  0.
         23    2    4    4    0    0  0.30383664803E+03 -0.56945122513E+03 -0.56803636908E+02  0.65373767382E+03  0.86918850132E+02 0.  0.
         23    2    4    4    0    0  0.43850351797E+03  0.27889386504E+03 -0.27993929574E+03  0.59767668053E+03  0.93724500091E+02 0.  0.
          2    1    3    3  502    0 -0.49452199642E+03  0.23305489336E+03 -0.19113660477E+04  0.19880107536E+04  0.00000000000E+00 0. -1.
         -1    1    3    3    0  502 -0.24781816958E+03  0.57502466731E+02 -0.90955706678E+03  0.94446515901E+03  0.00000000000E+00 0.  1.
         11    1    5    5    0    0  0.16435742244E+03 -0.25064662252E+03  0.77070496353E+01  0.29982743421E+03  0.00000000000E+00 0.  1.
        -11    1    5    5    0    0  0.13947922559E+03 -0.31880460261E+03 -0.64510686544E+02  0.35391023960E+03  0.00000000000E+00 0. -1.
          4    1    6    6  503    0  0.28980837394E+02  0.39372174589E+02 -0.45095023016E+01  0.49095750111E+02  0.00000000000E+00 0. -1.
         -4    1    6    6    0  503  0.40952268058E+03  0.23952169045E+03 -0.27542979344E+03  0.54858093042E+03  0.00000000000E+00 0.  1.
<mgrwt>
<rscale>  0 0.27448284E+04</rscale>
<asrwt>0</asrwt>
<pdfrwt beam="1">  1        2 0.56473510E+00 0.27448284E+04</pdfrwt>
<pdfrwt beam="2">  1       -1 0.78940324E-01 0.27448284E+04</pdfrwt>
<totfact> 0.97825838E-01</totfact>
</mgrwt>
</event>
<event>
12    6  0.1542110E-007  0.1140024E+04  0.7818608E-02  0.9167037E-01
         -1   -1    0    0    0  501 -0.00000000000E+00  0.00000000000E+00  0.14352136486E+03  0.14352136486E+03  0.00000000000E+00 0.  1.
          2   -1    0    0  501    0  0.00000000000E+00 -0.00000000000E+00 -0.22638680807E+04  0.22638680807E+04  0.00000000000E+00 0. -1.
         24    2    1    2    0    0 -0.13061625653E+03 -0.16499606486E+03 -0.51912787100E+03  0.56560730800E+03  0.78317127899E+02 0.  0.
        254    2    1    2    0    0  0.13061625653E+03  0.16499606486E+03 -0.16012188448E+04  0.18417821375E+04  0.88542382239E+03 0.  0.
         23    2    4    4    0    0 -0.20310979192E+03  0.40640702229E+03 -0.61625826864E+03  0.77057153515E+03  0.87097541709E+02 0.  0.
         23    2    4    4    0    0  0.33372604844E+03 -0.24141095743E+03 -0.98496057619E+03  0.10712106024E+04  0.87706854173E+02 0.  0.
          4    1    3    3  502    0  0.63511375534E+00  0.72460303871E+01 -0.26582751896E+02  0.27559953269E+02  0.00000000000E+00 0. -1.
         -3    1    3    3    0  502 -0.13125137028E+03 -0.17224209525E+03 -0.49254511911E+03  0.53804735473E+03  0.00000000000E+00 0.  1.
         11    1    5    5    0    0 -0.19883963065E+03  0.32545073464E+03 -0.50055543141E+03  0.62929414371E+03  0.00000000000E+00 0. -1.
        -11    1    5    5    0    0 -0.42701612610E+01  0.80956287652E+02 -0.11570283723E+03  0.14127739144E+03  0.00000000000E+00 0.  1.
          3    1    6    6  503    0  0.10003337030E+03 -0.78950070773E+02 -0.41521491210E+03  0.43433076345E+03  0.00000000000E+00 0. -1.
         -3    1    6    6    0  503  0.23369267815E+03 -0.16246088665E+03 -0.56974566409E+03  0.63687983895E+03  0.00000000000E+00 0.  1.
<mgrwt>
<rscale>  0 0.11400236E+04</rscale>
<asrwt>0</asrwt>
<pdfrwt beam="1">  1        2 0.34828742E+00 0.11400236E+04</pdfrwt>
<pdfrwt beam="2">  1       -1 0.22080208E-01 0.11400236E+04</pdfrwt>
<totfact> 0.93250133E+01</totfact>
</mgrwt>
</event>
<event>
12    6  0.1674534E-007  0.2337672E+04  0.7818608E-02  0.8463214E-01
          2   -1    0    0  501    0  0.00000000000E+00  0.00000000000E+00  0.12248122604E+04  0.12248122604E+04  0.00000000000E+00 0. -1.
         -1   -1    0    0    0  501 -0.00000000000E+00 -0.00000000000E+00 -0.11154174891E+04  0.11154174891E+04  0.00000000000E+00 0.  1.
         24    2    1    2    0    0 -0.43178944144E+02 -0.54225826280E+03  0.88010055471E+03  0.10377435449E+04  0.80163793336E+02 0.  0.
        254    2    1    2    0    0  0.43178944144E+02  0.54225826280E+03 -0.77070578339E+03  0.13024862046E+04  0.89809490805E+03 0.  0.
         23    2    4    4    0    0  0.27148846454E+03  0.64867253192E+03 -0.32499582400E+03  0.78092331060E+03  0.98675687876E+02 0.  0.
         23    2    4    4    0    0 -0.22830952040E+03 -0.10641426912E+03 -0.44570995939E+03  0.52156289401E+03  0.99605475390E+02 0.  0.
          2    1    3    3  502    0 -0.41246573007E+02 -0.54039793642E+03  0.88145126929E+03  0.10347403296E+04  0.00000000000E+00 0. -1.
         -3    1    3    3    0  502 -0.19323711363E+01 -0.18603263784E+01 -0.13507145820E+01  0.30032153310E+01  0.00000000000E+00 0.  1.
         11    1    5    5    0    0  0.24187301279E+03  0.62954992598E+03 -0.30285824252E+03  0.73929613734E+03  0.00000000000E+00 0. -1.
        -11    1    5    5    0    0  0.29615451749E+02  0.19122605939E+02 -0.22137581484E+02  0.41627173266E+02  0.00000000000E+00 0.  1.
          1    1    6    6  503    0 -0.21689047927E+03 -0.11424278584E+03 -0.36503363060E+03  0.43970722712E+03  0.00000000000E+00 0. -1.
         -1    1    6    6    0  503 -0.11419041130E+02  0.78285167138E+01 -0.80676328793E+02  0.81855666888E+02  0.00000000000E+00 0.  1.
<mgrwt>
<rscale>  0 0.23376715E+04</rscale>
<asrwt>0</asrwt>
<pdfrwt beam="1">  1        2 0.18843265E+00 0.23376715E+04</pdfrwt>
<pdfrwt beam="2">  1       -1 0.17160269E+00 0.23376715E+04</pdfrwt>
<totfact> 0.45165385E+00</totfact>
</mgrwt>
</event>
<event>
12    6  0.1542110E-007  0.1400514E+04  0.7818608E-02  0.8953447E-01
         -1   -1    0    0    0  501 -0.00000000000E+00  0.00000000000E+00  0.28190088851E+03  0.28190088851E+03  0.00000000000E+00 0.  1.
          2   -1    0    0  501    0  0.00000000000E+00 -0.00000000000E+00 -0.17394757751E+04  0.17394757751E+04  0.00000000000E+00 0. -1.
         24    2    1    2    0    0 -0.37572958009E+03 -0.98195558668E+02 -0.26178972299E+03  0.47662013650E+03  0.88418382504E+02 0.  0.
        254    2    1    2    0    0  0.37572958009E+03  0.98195558668E+02 -0.11957851636E+04  0.15447565271E+04  0.89752742880E+03 0.  0.
         23    2    4    4    0    0  0.11757778470E+03  0.33690933932E+03 -0.11128981232E+04  0.11721229539E+04  0.89429011055E+02 0.  0.
         23    2    4    4    0    0  0.25815179539E+03 -0.23871378065E+03 -0.82887040356E+02  0.37263357319E+03  0.91427019385E+02 0.  0.
          2    1    3    3  502    0 -0.10860044706E+03 -0.57966324067E+02 -0.48047838995E+02  0.13214668614E+03  0.00000000000E+00 0. -1.
         -1    1    3    3    0  502 -0.26712913303E+03 -0.40229234601E+02 -0.21374188399E+03  0.34447345036E+03  0.00000000000E+00 0.  1.
         11    1    5    5    0    0  0.28968641267E+02  0.11674382598E+03 -0.25403916231E+03  0.28107685616E+03  0.00000000000E+00 0.  1.
        -11    1    5    5    0    0  0.88609143433E+02  0.22016551334E+03 -0.85885896089E+03  0.89104609772E+03  0.00000000000E+00 0. -1.
          1    1    6    6  503    0  0.15403010255E+03 -0.11457577643E+03 -0.30196564977E+01  0.19199478994E+03  0.00000000000E+00 0. -1.
         -1    1    6    6    0  503  0.10412169283E+03 -0.12413800422E+03 -0.79867383859E+02  0.18063878325E+03  0.00000000000E+00 0.  1.
<mgrwt>
<rscale>  0 0.14005139E+04</rscale>
<asrwt>0</asrwt>
<pdfrwt beam="1">  1        2 0.26761166E+00 0.14005139E+04</pdfrwt>
<pdfrwt beam="2">  1       -1 0.43369368E-01 0.14005139E+04</pdfrwt>
<totfact> 0.54234009E+01</totfact>
</mgrwt>
</event>
<event>
12    6  0.1542110E-007  0.1827979E+04  0.7818608E-02  0.8691560E-01
         -1   -1    0    0    0  501 -0.00000000000E+00  0.00000000000E+00  0.72025026017E+03  0.72025026017E+03  0.00000000000E+00 0.  1.
          2   -1    0    0  501    0  0.00000000000E+00 -0.00000000000E+00 -0.11598427314E+04  0.11598427314E+04  0.00000000000E+00 0. -1.
         24    2    1    2    0    0  0.15011558488E+03 -0.66617283810E+03 -0.28568220173E+03  0.74445573374E+03  0.79240646581E+02 0.  0.
        254    2    1    2    0    0 -0.15011558488E+03  0.66617283810E+03 -0.15391026950E+03  0.11356372578E+04  0.89423859862E+03 0.  0.
         23    2    4    4    0    0 -0.48165519371E+03  0.37519808734E+03  0.89034176259E+02  0.62356026678E+03  0.90194187077E+02 0.  0.
         23    2    4    4    0    0  0.33153960883E+03  0.29097475076E+03 -0.24294444576E+03  0.51207699105E+03  0.92822536224E+02 0.  0.
          2    1    3    3  502    0  0.43432625553E+01 -0.13864276732E+03 -0.77542203515E+02  0.15891341726E+03  0.00000000000E+00 0. -1.
         -1    1    3    3    0  502  0.14577232232E+03 -0.52753007078E+03 -0.20813999822E+03  0.58554231648E+03  0.00000000000E+00 0.  1.
         11    1    5    5    0    0 -0.12273434432E+03  0.54901514953E+02  0.66449901250E+00  0.13445570712E+03  0.00000000000E+00 0.  1.
        -11    1    5    5    0    0 -0.35892084940E+03  0.32029657239E+03  0.88369677246E+02  0.48910455965E+03  0.00000000000E+00 0. -1.
          2    1    6    6  503    0  0.31329893477E+03  0.23439482424E+03 -0.21356697228E+03  0.44576676391E+03  0.00000000000E+00 0. -1.
         -2    1    6    6    0  503  0.18240674065E+02  0.56579926517E+02 -0.29377473480E+02  0.66310227138E+02  0.00000000000E+00 0.  1.
<mgrwt>
<rscale>  0 0.18279792E+04</rscale>
<asrwt>0</asrwt>
<pdfrwt beam="1">  1        2 0.17843734E+00 0.18279792E+04</pdfrwt>
<pdfrwt beam="2">  1       -1 0.11080773E+00 0.18279792E+04</pdfrwt>
<totfact> 0.16136024E+01</totfact>
</mgrwt>
</event>
<event>
12    6  0.1542110E-007  0.3127281E+04  0.7818608E-02  0.8208291E-01
         -1   -1    0    0    0  501 -0.00000000000E+00  0.00000000000E+00  0.13017837562E+04  0.13017837562E+04  0.00000000000E+00 0.  1.
          2   -1    0    0  501    0  0.00000000000E+00 -0.00000000000E+00 -0.18781700382E+04  0.18781700382E+04  0.00000000000E+00 0. -1.
         24    2    1    2    0    0  0.34660204265E+03  0.19579052804E+02 -0.16946945584E+04  0.17317964919E+04  0.81321138774E+02 0.  0.
        254    2    1    2    0    0 -0.34660204265E+03 -0.19579052804E+02  0.11183082764E+04  0.14481573025E+04  0.85207385610E+03 0.  0.
         23    2    4    4    0    0 -0.52648367865E+03  0.21849508278E+03  0.89364486893E+03  0.10638242649E+04  0.90530380736E+02 0.  0.
         23    2    4    4    0    0  0.17988163599E+03 -0.23807413559E+03  0.22466340750E+03  0.38433303751E+03  0.90562354499E+02 0.  0.
          4    1    3    3  502    0  0.34971646059E+03  0.24610669531E+02 -0.16624854754E+04  0.16990483348E+04  0.00000000000E+00 0. -1.
         -3    1    3    3    0  502 -0.31144179416E+01 -0.50316167272E+01 -0.32209083013E+02  0.32748157116E+02  0.00000000000E+00 0.  1.
         11    1    5    5    0    0 -0.22466234044E+03  0.12253349424E+03  0.33382322003E+03  0.42062520924E+03  0.00000000000E+00 0. -1.
        -11    1    5    5    0    0 -0.30182133820E+03  0.95961588547E+02  0.55982164890E+03  0.64319905570E+03  0.00000000000E+00 0.  1.
          1    1    6    6  503    0  0.10492140737E+02 -0.49965819805E+02  0.73516441087E+02  0.89506062790E+02  0.00000000000E+00 0. -1.
         -1    1    6    6    0  503  0.16938949525E+03 -0.18810831578E+03  0.15114696641E+03  0.29482697472E+03  0.00000000000E+00 0.  1.
<mgrwt>
<rscale>  0 0.31272808E+04</rscale>
<asrwt>0</asrwt>
<pdfrwt beam="1">  1        2 0.28894924E+00 0.31272808E+04</pdfrwt>
<pdfrwt beam="2">  1       -1 0.20027442E+00 0.31272808E+04</pdfrwt>
<totfact> 0.11277584E+00</totfact>
</mgrwt>
</event>
<event>
12    6  0.1542110E-007  0.2039893E+04  0.7818608E-02  0.8588193E-01
          2   -1    0    0  501    0  0.00000000000E+00  0.00000000000E+00  0.22436810373E+04  0.22436810373E+04  0.00000000000E+00 0. -1.
         -1   -1    0    0    0  501 -0.00000000000E+00 -0.00000000000E+00 -0.46365342662E+03  0.46365342662E+03  0.00000000000E+00 0.  1.
         24    2    1    2    0    0  0.24608401974E+03 -0.74688253076E+03  0.10619640165E+04  0.13237193128E+04  0.77938355745E+02 0.  0.
        254    2    1    2    0    0 -0.24608401974E+03  0.74688253076E+03  0.71806359418E+03  0.13836151511E+04  0.88339385411E+03 0.  0.
         23    2    4    4    0    0 -0.54120103471E+03  0.50756316117E+03  0.64215928623E+03  0.98551405242E+03  0.91380939330E+02 0.  0.
         23    2    4    4    0    0  0.29511701497E+03  0.23931936958E+03  0.75904307946E+02  0.39810109865E+03  0.91406824695E+02 0.  0.
          4    1    3    3  502    0  0.21853206055E+03 -0.56802967615E+03  0.79549331010E+03  0.10016104936E+04  0.00000000000E+00 0. -1.
         -3    1    3    3    0  502  0.27551959186E+02 -0.17885285461E+03  0.26647070639E+03  0.32210881922E+03  0.00000000000E+00 0.  1.
         11    1    5    5    0    0 -0.19389846735E+03  0.24358681868E+03  0.26828979284E+03  0.41098730736E+03  0.00000000000E+00 0. -1.
        -11    1    5    5    0    0 -0.34730256736E+03  0.26397634249E+03  0.37386949339E+03  0.57452674506E+03  0.00000000000E+00 0.  1.
          3    1    6    6  503    0  0.35087206579E+02 -0.31683514819E+01  0.79393864943E+01  0.36113492971E+02  0.00000000000E+00 0. -1.
         -3    1    6    6    0  503  0.26002980839E+03  0.24248772107E+03  0.67964921452E+02  0.36198760568E+03  0.00000000000E+00 0.  1.
<mgrwt>
<rscale>  0 0.20398925E+04</rscale>
<asrwt>0</asrwt>
<pdfrwt beam="1">  1        2 0.34518169E+00 0.20398925E+04</pdfrwt>
<pdfrwt beam="2">  1       -1 0.71331298E-01 0.20398925E+04</pdfrwt>
<totfact> 0.10208241E+01</totfact>
</mgrwt>
</event>
<event>
12    6  0.1542110E-007  0.1329459E+04  0.7818608E-02  0.9006524E-01
         -1   -1    0    0    0  501 -0.00000000000E+00  0.00000000000E+00  0.17044575509E+03  0.17044575509E+03  0.00000000000E+00 0.  1.
          2   -1    0    0  501    0  0.00000000000E+00 -0.00000000000E+00 -0.25924111052E+04  0.25924111052E+04  0.00000000000E+00 0. -1.
         24    2    1    2    0    0  0.31813276010E+03 -0.14911430892E+03 -0.76114916274E+03  0.84200786396E+03  0.78648997835E+02 0.  0.
        254    2    1    2    0    0 -0.31813276010E+03  0.14911430892E+03 -0.16608161873E+04  0.19208489963E+04  0.89883643022E+03 0.  0.
         23    2    4    4    0    0  0.99380254351E+02 -0.26646934402E+02 -0.13618936791E+04  0.13687380784E+04  0.90016886290E+02 0.  0.
         23    2    4    4    0    0 -0.41751301445E+03  0.17576124332E+03 -0.29892250819E+03  0.55211091793E+03  0.10130482668E+03 0.  0.
          2    1    3    3  502    0  0.77411732631E+02 -0.16884049877E+02 -0.11241387359E+03  0.13753009294E+03  0.00000000000E+00 0. -1.
         -1    1    3    3    0  502  0.24072102746E+03 -0.13223025904E+03 -0.64873528915E+03  0.70447777101E+03  0.00000000000E+00 0.  1.
         11    1    5    5    0    0  0.14603916342E+02  0.29661261359E+02 -0.24572552803E+03  0.24793971026E+03  0.00000000000E+00 0.  1.
        -11    1    5    5    0    0  0.84776338010E+02 -0.56308195761E+02 -0.11161681511E+04  0.11207983681E+04  0.00000000000E+00 0. -1.
          4    1    6    6  503    0 -0.23651196857E+03  0.14839337711E+03 -0.15575123601E+03  0.31971386139E+03  0.00000000000E+00 0. -1.
         -4    1    6    6    0  503 -0.18100104588E+03  0.27367866205E+02 -0.14317127218E+03  0.23239705654E+03  0.00000000000E+00 0.  1.
<mgrwt>
<rscale>  0 0.13294592E+04</rscale>
<asrwt>0</asrwt>
<pdfrwt beam="1">  1        2 0.39883243E+00 0.13294592E+04</pdfrwt>
<pdfrwt beam="2">  1       -1 0.26222427E-01 0.13294592E+04</pdfrwt>
<totfact> 0.44430230E+01</totfact>
</mgrwt>
</event>
<event>
12    6  0.1542110E-007  0.1402492E+04  0.7818608E-02  0.8952017E-01
         -3   -1    0    0    0  501 -0.00000000000E+00  0.00000000000E+00  0.21544905403E+03  0.21544905403E+03  0.00000000000E+00 0.  1.
          2   -1    0    0  501    0  0.00000000000E+00 -0.00000000000E+00 -0.22824241910E+04  0.22824241910E+04  0.00000000000E+00 0. -1.
         24    2    1    2    0    0  0.13495037250E+02  0.12901305714E+03 -0.13453324750E+04  0.13538827702E+04  0.79073398327E+02 0.  0.
        254    2    1    2    0    0 -0.13495037250E+02 -0.12901305714E+03 -0.72164266199E+03  0.11439904748E+04  0.87813415257E+03 0.  0.
         23    2    4    4    0    0 -0.74056599295E+02 -0.27845717088E+03 -0.86058925035E+03  0.91241719766E+03  0.94172760664E+02 0.  0.
         23    2    4    4    0    0  0.60561562045E+02  0.14944411374E+03  0.13894658837E+03  0.23157327714E+03  0.91207359026E+02 0.  0.
          4    1    3    3  502    0 -0.38578892485E+00  0.11185435877E+03 -0.12809115481E+04  0.12857861177E+04  0.00000000000E+00 0. -1.
         -3    1    3    3    0  502  0.13880826174E+02  0.17158698372E+02 -0.64420926926E+02  0.68096652569E+02  0.00000000000E+00 0.  1.
         11    1    5    5    0    0  0.20383364839E+02 -0.25292268784E+02 -0.10869961726E+03  0.11344949191E+03  0.00000000000E+00 0. -1.
        -11    1    5    5    0    0 -0.94439964134E+02 -0.25316490209E+03 -0.75188963309E+03  0.79896770575E+03  0.00000000000E+00 0.  1.
          4    1    6    6  503    0  0.14968910195E+02  0.24307224121E+02 -0.11383290724E+02  0.30732535278E+02  0.00000000000E+00 0. -1.
         -4    1    6    6    0  503  0.45592651850E+02  0.12513688961E+03  0.15032987909E+03  0.20084074187E+03  0.00000000000E+00 0.  1.
<mgrwt>
<rscale>  0 0.14024923E+04</rscale>
<asrwt>0</asrwt>
<pdfrwt beam="1">  1        2 0.35114219E+00 0.14024923E+04</pdfrwt>
<pdfrwt beam="2">  1       -3 0.33146008E-01 0.14024923E+04</pdfrwt>
<totfact> 0.26232271E+01</totfact>
</mgrwt>
</event>
<event>
12    6  0.1542110E-007  0.1394823E+04  0.7818608E-02  0.8957574E-01
          2   -1    0    0  501    0  0.00000000000E+00  0.00000000000E+00  0.15195818180E+04  0.15195818180E+04  0.00000000000E+00 0. -1.
         -1   -1    0    0    0  501 -0.00000000000E+00 -0.00000000000E+00 -0.32007678484E+03  0.32007678484E+03  0.00000000000E+00 0.  1.
         24    2    1    2    0    0 -0.10098624877E+03 -0.14995652863E+03  0.82971496499E+03  0.85298449088E+03  0.80439018104E+02 0.  0.
        254    2    1    2    0    0  0.10098624877E+03  0.14995652863E+03  0.36979006813E+03  0.98667411193E+03  0.89671395982E+03 0.  0.
         23    2    4    4    0    0  0.60408127456E+02 -0.15047810016E+03  0.57823657698E+03  0.60751802230E+03  0.91803093415E+02 0.  0.
         23    2    4    4    0    0  0.40578121314E+02  0.30043462880E+03 -0.20844650886E+03  0.37915608963E+03  0.91661568515E+02 0.  0.
          2    1    3    3  502    0 -0.64296663088E+02 -0.13699323657E+03  0.54490722334E+03  0.56553080358E+03  0.00000000000E+00 0. -1.
         -1    1    3    3    0  502 -0.36689585681E+02 -0.12963292065E+02  0.28480774166E+03  0.28745368730E+03  0.00000000000E+00 0.  1.
         11    1    5    5    0    0  0.67394183493E+01 -0.12414632432E+03  0.43198221662E+03  0.44951792520E+03  0.00000000000E+00 0.  1.
        -11    1    5    5    0    0  0.53668709106E+02 -0.26331775843E+02  0.14625436036E+03  0.15800009709E+03  0.00000000000E+00 0. -1.
          4    1    6    6  503    0  0.67718174270E+02  0.23821825808E+03 -0.14969165343E+03  0.28938085755E+03  0.00000000000E+00 0.  1.
         -4    1    6    6    0  503 -0.27140052957E+02  0.62216370712E+02 -0.58754855427E+02  0.89775232081E+02  0.00000000000E+00 0. -1.
<mgrwt>
<rscale>  0 0.13948231E+04</rscale>
<asrwt>0</asrwt>
<pdfrwt beam="1">  1        2 0.23378181E+00 0.13948231E+04</pdfrwt>
<pdfrwt beam="2">  1       -1 0.49242583E-01 0.13948231E+04</pdfrwt>
<totfact> 0.56724807E+01</totfact>
</mgrwt>
</event>
<event>
12    6  0.1542110E-007  0.2066932E+04  0.7818608E-02  0.8575952E-01
         -1   -1    0    0    0  501 -0.00000000000E+00  0.00000000000E+00  0.80381667743E+03  0.80381667743E+03  0.00000000000E+00 0.  1.
          2   -1    0    0  501    0  0.00000000000E+00 -0.00000000000E+00 -0.13287256367E+04  0.13287256367E+04  0.00000000000E+00 0. -1.
         24    2    1    2    0    0  0.60098328104E+03  0.55810242481E+03 -0.40847633494E+03  0.91967501810E+03  0.79309533100E+02 0.  0.
        254    2    1    2    0    0 -0.60098328104E+03 -0.55810242481E+03 -0.11643262432E+03  0.12128672960E+04  0.88590704990E+03 0.  0.
         23    2    4    4    0    0 -0.72906740933E+03 -0.35914509694E+03 -0.32897585327E+03  0.88147347136E+03  0.90806831702E+02 0.  0.
         23    2    4    4    0    0  0.12808412829E+03 -0.19895732787E+03  0.21254322895E+03  0.33139382465E+03  0.93046658226E+02 0.  0.
          2    1    3    3  502    0  0.30099292138E+03  0.24274783273E+03 -0.22459936100E+03  0.44717795337E+03  0.00000000000E+00 0. -1.
         -1    1    3    3    0  502  0.29999035965E+03  0.31535459208E+03 -0.18387697395E+03  0.47249706473E+03  0.00000000000E+00 0.  1.
         11    1    5    5    0    0 -0.51261735776E+03 -0.29756677557E+03 -0.24121039735E+03  0.63992577475E+03  0.00000000000E+00 0.  1.
        -11    1    5    5    0    0 -0.21645005157E+03 -0.61578321367E+02 -0.87765455922E+02  0.24154769661E+03  0.00000000000E+00 0. -1.
          4    1    6    6  503    0  0.90161800384E+02 -0.12844314343E+03  0.79009355701E+02  0.17569652709E+03  0.00000000000E+00 0. -1.
         -4    1    6    6    0  503  0.37922327907E+02 -0.70514184440E+02  0.13353387325E+03  0.15569729756E+03  0.00000000000E+00 0.  1.
<mgrwt>
<rscale>  0 0.20669319E+04</rscale>
<asrwt>0</asrwt>
<pdfrwt beam="1">  1        2 0.20441932E+00 0.20669319E+04</pdfrwt>
<pdfrwt beam="2">  1       -1 0.12366411E+00 0.20669319E+04</pdfrwt>
<totfact> 0.96299757E+00</totfact>
</mgrwt>
</event>
<event>
12    6  0.1542110E-007  0.2466865E+04  0.7818608E-02  0.8414886E-01
          2   -1    0    0  501    0  0.00000000000E+00  0.00000000000E+00  0.35887611324E+04  0.35887611324E+04  0.00000000000E+00 0. -1.
         -1   -1    0    0    0  501 -0.00000000000E+00 -0.00000000000E+00 -0.42392232114E+03  0.42392232114E+03  0.00000000000E+00 0.  1.
         24    2    1    2    0    0  0.14995357778E+03 -0.10299352725E+04  0.18163814643E+04  0.20949626424E+04  0.79838012019E+02 0.  0.
        254    2    1    2    0    0 -0.14995357778E+03  0.10299352725E+04  0.13484573470E+04  0.19177208111E+04  0.88094446576E+03 0.  0.
         23    2    4    4    0    0 -0.12631355292E+02  0.11352676347E+04  0.99234611401E+03  0.15107280621E+04  0.92500345555E+02 0.  0.
         23    2    4    4    0    0 -0.13732222249E+03 -0.10533236219E+03  0.35611123295E+03  0.40699274906E+03  0.94210340413E+02 0.  0.
          4    1    3    3  502    0  0.11969121725E+03 -0.93149153548E+03  0.16703846689E+04  0.19162952305E+04  0.00000000000E+00 0. -1.
         -3    1    3    3    0  502  0.30262360528E+02 -0.98443737059E+02  0.14599679538E+03  0.17866741195E+03  0.00000000000E+00 0.  1.
         11    1    5    5    0    0  0.71762391968E+01  0.99189405318E+03  0.83133813878E+03  0.12942288871E+04  0.00000000000E+00 0. -1.
        -11    1    5    5    0    0 -0.19807594489E+02  0.14337358154E+03  0.16100797523E+03  0.21649917499E+03  0.00000000000E+00 0.  1.
          3    1    6    6  503    0 -0.14891205048E+03 -0.10938513379E+03  0.33400307417E+03  0.38170402124E+03  0.00000000000E+00 0. -1.
         -3    1    6    6    0  503  0.11589827988E+02  0.40527715994E+01  0.22108158779E+02  0.25288727826E+02  0.00000000000E+00 0.  1.
<mgrwt>
<rscale>  0 0.24668652E+04</rscale>
<asrwt>0</asrwt>
<pdfrwt beam="1">  1        2 0.55211708E+00 0.24668652E+04</pdfrwt>
<pdfrwt beam="2">  1       -1 0.65218821E-01 0.24668652E+04</pdfrwt>
<totfact> 0.17082202E+00</totfact>
</mgrwt>
</event>
<event>
12    6  0.1542110E-007  0.1099282E+04  0.7818608E-02  0.9205892E-01
         -1   -1    0    0    0  501 -0.00000000000E+00  0.00000000000E+00  0.25607413647E+03  0.25607413647E+03  0.00000000000E+00 0.  1.
          2   -1    0    0  501    0  0.00000000000E+00 -0.00000000000E+00 -0.11797564588E+04  0.11797564588E+04  0.00000000000E+00 0. -1.
         24    2    1    2    0    0  0.11251764975E+03 -0.67228717304E+02 -0.23944559437E+02  0.15650315755E+03  0.82097347459E+02 0.  0.
        254    2    1    2    0    0 -0.11251764975E+03  0.67228717304E+02 -0.89973776286E+03  0.12793274377E+04  0.89998373817E+03 0.  0.
         23    2    4    4    0    0 -0.19920271731E+03  0.12994554119E+03 -0.10457986122E+04  0.10765212582E+04  0.92928552257E+02 0.  0.
         23    2    4    4    0    0  0.86685067560E+02 -0.62716823888E+02  0.14606084933E+03  0.20280617949E+03  0.91372171901E+02 0.  0.
          2    1    3    3  502    0  0.25492464617E+02  0.13013696218E+02  0.14444851072E+02  0.32060501618E+02  0.00000000000E+00 0. -1.
         -1    1    3    3    0  502  0.87025185137E+02 -0.80242413522E+02 -0.38389410510E+02  0.12444265593E+03  0.00000000000E+00 0.  1.
         11    1    5    5    0    0 -0.18722568591E+03  0.79625714055E+02 -0.84916404642E+03  0.87319716533E+03  0.00000000000E+00 0.  1.
        -11    1    5    5    0    0 -0.11977031400E+02  0.50319827137E+02 -0.19663456577E+03  0.20332409286E+03  0.00000000000E+00 0. -1.
          4    1    6    6  503    0  0.13754356367E+02 -0.65887963349E+02  0.62522901975E+02  0.91866856399E+02  0.00000000000E+00 0. -1.
         -4    1    6    6    0  503  0.72930711193E+02  0.31711394612E+01  0.83537947354E+02  0.11093932309E+03  0.00000000000E+00 0.  1.
<mgrwt>
<rscale>  0 0.10992818E+04</rscale>
<asrwt>0</asrwt>
<pdfrwt beam="1">  1        2 0.18150100E+00 0.10992818E+04</pdfrwt>
<pdfrwt beam="2">  1       -1 0.39396021E-01 0.10992818E+04</pdfrwt>
<totfact> 0.13795940E+02</totfact>
</mgrwt>
</event>
<event>
12    6  0.1542110E-007  0.1467209E+04  0.7818608E-02  0.8906556E-01
         -1   -1    0    0    0  501 -0.00000000000E+00  0.00000000000E+00  0.25662340815E+03  0.25662340815E+03  0.00000000000E+00 0.  1.
          2   -1    0    0  501    0  0.00000000000E+00 -0.00000000000E+00 -0.20971403943E+04  0.20971403943E+04  0.00000000000E+00 0. -1.
         24    2    1    2    0    0  0.22271763890E+03  0.20954406142E+03 -0.39062341459E+02  0.31843561034E+03  0.79771618141E+02 0.  0.
        254    2    1    2    0    0 -0.22271763890E+03 -0.20954406142E+03 -0.18014546447E+04  0.20353281922E+04  0.89655460090E+03 0.  0.
         23    2    4    4    0    0 -0.34198638515E+03  0.26860727039E+03 -0.91697406875E+03  0.10188762173E+04  0.90347939500E+02 0.  0.
         23    2    4    4    0    0  0.11926874625E+03 -0.47815133181E+03 -0.88448057598E+03  0.10164519748E+04  0.89526520488E+02 0.  0.
          2    1    3    3  502    0  0.23147365201E+02  0.49177930656E+02 -0.30385338830E+02  0.62269881927E+02  0.00000000000E+00 0. -1.
         -1    1    3    3    0  502  0.19957027370E+03  0.16036613076E+03 -0.86770026287E+01  0.25616572841E+03  0.00000000000E+00 0.  1.
         11    1    5    5    0    0 -0.17500050469E+03  0.81134557104E+02 -0.41346367912E+03  0.45624577472E+03  0.00000000000E+00 0.  1.
        -11    1    5    5    0    0 -0.16698588045E+03  0.18747271329E+03 -0.50351038963E+03  0.56263044262E+03  0.00000000000E+00 0. -1.
          4    1    6    6  503    0  0.45538133119E+01 -0.19859730534E+03 -0.35736119474E+03  0.40886263024E+03  0.00000000000E+00 0. -1.
         -4    1    6    6    0  503  0.11471493294E+03 -0.27955402647E+03 -0.52711938124E+03  0.60758934457E+03  0.00000000000E+00 0.  1.
<mgrwt>
<rscale>  0 0.14672087E+04</rscale>
<asrwt>0</asrwt>
<pdfrwt beam="1">  1        2 0.32263698E+00 0.14672087E+04</pdfrwt>
<pdfrwt beam="2">  1       -1 0.39480525E-01 0.14672087E+04</pdfrwt>
<totfact> 0.40621454E+01</totfact>
</mgrwt>
</event>
<event>
12    6  0.1542110E-007  0.1238874E+04  0.7818608E-02  0.9079495E-01
          2   -1    0    0  501    0  0.00000000000E+00  0.00000000000E+00  0.12292313352E+04  0.12292313352E+04  0.00000000000E+00 0. -1.
         -1   -1    0    0    0  501 -0.00000000000E+00 -0.00000000000E+00 -0.31214809464E+03  0.31214809464E+03  0.00000000000E+00 0.  1.
         24    2    1    2    0    0  0.38349210947E+02 -0.24241668695E+03  0.33753885846E+03  0.42493506083E+03  0.80005080231E+02 0.  0.
        254    2    1    2    0    0 -0.38349210947E+02  0.24241668695E+03  0.57954438213E+03  0.11164443690E+04  0.92213872395E+03 0.  0.
         23    2    4    4    0    0 -0.30780699102E+03  0.32072293821E+03  0.66845470419E+03  0.80836040237E+03  0.94902590878E+02 0.  0.
         23    2    4    4    0    0  0.26945778007E+03 -0.78306251264E+02 -0.88910322063E+02  0.30808396666E+03  0.90946802678E+02 0.  0.
          2    1    3    3  502    0  0.45958456734E+02 -0.19864000719E+03  0.31470296005E+03  0.37497731301E+03  0.00000000000E+00 0. -1.
         -1    1    3    3    0  502 -0.76092457875E+01 -0.43776679754E+02  0.22835898406E+02  0.49957747825E+02  0.00000000000E+00 0.  1.
         11    1    5    5    0    0 -0.13173600701E+03  0.75120177440E+02  0.20246757336E+03  0.25296350500E+03  0.00000000000E+00 0.  1.
        -11    1    5    5    0    0 -0.17607098401E+03  0.24560276077E+03  0.46598713083E+03  0.55539689737E+03  0.00000000000E+00 0. -1.
          1    1    6    6  503    0  0.21064610613E+03 -0.32801702768E+02 -0.95164537509E+02  0.23346096662E+03  0.00000000000E+00 0. -1.
         -1    1    6    6    0  503  0.58811673937E+02 -0.45504548496E+02  0.62542154463E+01  0.74623000046E+02  0.00000000000E+00 0.  1.
<mgrwt>
<rscale>  0 0.12388740E+04</rscale>
<asrwt>0</asrwt>
<pdfrwt beam="1">  1        2 0.18911251E+00 0.12388740E+04</pdfrwt>
<pdfrwt beam="2">  1       -1 0.48022784E-01 0.12388740E+04</pdfrwt>
<totfact> 0.88443751E+01</totfact>
</mgrwt>
</event>
<event>
12    6  0.1542110E-007  0.2182169E+04  0.7818608E-02  0.8525887E-01
         -1   -1    0    0    0  501 -0.00000000000E+00  0.00000000000E+00  0.24649341947E+04  0.24649341947E+04  0.00000000000E+00 0.  1.
          2   -1    0    0  501    0  0.00000000000E+00 -0.00000000000E+00 -0.48296017291E+03  0.48296017291E+03  0.00000000000E+00 0. -1.
         24    2    1    2    0    0 -0.92498215490E+02  0.12614756235E+03  0.20360650510E+04  0.20435664380E+04  0.78318370384E+02 0.  0.
        254    2    1    2    0    0  0.92498215490E+02 -0.12614756235E+03 -0.54091029264E+02  0.90432792959E+03  0.88905232548E+03 0.  0.
         23    2    4    4    0    0 -0.21874313736E+03 -0.18860091194E+03  0.29648427874E+03  0.42350854867E+03  0.89653215930E+02 0.  0.
         23    2    4    4    0    0  0.31124135285E+03  0.62453349591E+02 -0.35057530801E+03  0.48081938093E+03  0.86675428419E+02 0.  0.
          4    1    3    3  502    0 -0.92593416559E+02  0.13211994034E+03  0.17455587382E+04  0.17529987244E+04  0.00000000000E+00 0. -1.
         -3    1    3    3    0  502  0.95201069161E-01 -0.59723779940E+01  0.29050631283E+03  0.29056771355E+03  0.00000000000E+00 0.  1.
         11    1    5    5    0    0 -0.17135336388E+03 -0.11330342074E+03  0.24852952682E+03  0.32243846880E+03  0.00000000000E+00 0. -1.
        -11    1    5    5    0    0 -0.47389773482E+02 -0.75297491202E+02  0.47954751926E+02  0.10107007987E+03  0.00000000000E+00 0.  1.
          4    1    6    6  503    0  0.30071232733E+03  0.48181362434E+02 -0.34872335835E+03  0.46298739524E+03  0.00000000000E+00 0. -1.
         -4    1    6    6    0  503  0.10529025520E+02  0.14271987157E+02 -0.18519496525E+01  0.17831985681E+02  0.00000000000E+00 0.  1.
<mgrwt>
<rscale>  0 0.21821687E+04</rscale>
<asrwt>0</asrwt>
<pdfrwt beam="1">  1        2 0.74301566E-01 0.21821687E+04</pdfrwt>
<pdfrwt beam="2">  1       -1 0.37922064E+00 0.21821687E+04</pdfrwt>
<totfact> 0.66446405E-01</totfact>
</mgrwt>
</event>
<event>
12    6  0.1542110E-007  0.1362650E+04  0.7818608E-02  0.8981307E-01
          2   -1    0    0  501    0  0.00000000000E+00  0.00000000000E+00  0.58101619480E+03  0.58101619480E+03  0.00000000000E+00 0. -1.
         -1   -1    0    0    0  501 -0.00000000000E+00 -0.00000000000E+00 -0.79895157406E+03  0.79895157406E+03  0.00000000000E+00 0.  1.
         24    2    1    2    0    0 -0.29466476742E+03 -0.41332731268E+02 -0.29764886854E+03  0.42862978347E+03  0.81196813404E+02 0.  0.
        254    2    1    2    0    0  0.29466476742E+03  0.41332731268E+02  0.79713489272E+02  0.95133798539E+03  0.90008555274E+03 0.  0.
         23    2    4    4    0    0  0.58569048587E+03  0.16826278969E+03  0.71175285392E+02  0.62007141401E+03  0.89871717371E+02 0.  0.
         23    2    4    4    0    0 -0.29102571845E+03 -0.12693005843E+03  0.85382038801E+01  0.33126657138E+03  0.94113930196E+02 0.  0.
          2    1    3    3  502    0 -0.66427693263E+02 -0.92023947572E+01 -0.12059824288E+03  0.13799006735E+03  0.00000000000E+00 0. -1.
         -1    1    3    3    0  502 -0.22823707415E+03 -0.32130336510E+02 -0.17705062566E+03  0.29063971613E+03  0.00000000000E+00 0.  1.
         11    1    5    5    0    0  0.36044674196E+03  0.14227275858E+03  0.67236034377E+02  0.39329896509E+03  0.00000000000E+00 0. -1.
        -11    1    5    5    0    0  0.22524374391E+03  0.25990031112E+02  0.39392510143E+01  0.22677244892E+03  0.00000000000E+00 0.  1.
          2    1    6    6  503    0 -0.12691399890E+03 -0.84628430101E+02 -0.34534956480E+02  0.15640267746E+03  0.00000000000E+00 0. -1.
         -2    1    6    6    0  503 -0.16411171956E+03 -0.42301628324E+02  0.43073160360E+02  0.17486389392E+03  0.00000000000E+00 0.  1.
<mgrwt>
<rscale>  0 0.13626501E+04</rscale>
<asrwt>0</asrwt>
<pdfrwt beam="1">  1        2 0.89387107E-01 0.13626501E+04</pdfrwt>
<pdfrwt beam="2">  1       -1 0.12291563E+00 0.13626501E+04</pdfrwt>
<totfact> 0.33567736E+01</totfact>
</mgrwt>
</event>
<event>
12    6  0.1542110E-007  0.2697015E+04  0.7818608E-02  0.8335974E-01
          2   -1    0    0  501    0  0.00000000000E+00  0.00000000000E+00  0.21836665281E+04  0.21836665281E+04  0.00000000000E+00 0. -1.
         -1   -1    0    0    0  501 -0.00000000000E+00 -0.00000000000E+00 -0.83276126086E+03  0.83276126086E+03  0.00000000000E+00 0.  1.
         24    2    1    2    0    0 -0.11618441929E+04  0.12998840978E+03  0.31534357064E+03  0.12135244439E+04  0.80131724610E+02 0.  0.
        254    2    1    2    0    0  0.11618441929E+04 -0.12998840978E+03  0.10355616966E+04  0.18029033450E+04  0.90071834048E+03 0.  0.
         23    2    4    4    0    0  0.10584747043E+04  0.18487192958E+03  0.55743026993E+03  0.12139897196E+04  0.92174851685E+02 0.  0.
         23    2    4    4    0    0  0.10336948853E+03 -0.31486033935E+03  0.47813142668E+03  0.58891362548E+03  0.91582272547E+02 0.  0.
          2    1    3    3  502    0 -0.90166374970E+03  0.13020122046E+03  0.26186573540E+03  0.94790481522E+03  0.00000000000E+00 0. -1.
         -1    1    3    3    0  502 -0.26018044317E+03 -0.21281068096E+00  0.53477835242E+02  0.26561962871E+03  0.00000000000E+00 0.  1.
         11    1    5    5    0    0  0.56935974345E+03  0.56447704807E+02  0.31608077770E+03  0.65365428085E+03  0.00000000000E+00 0. -1.
        -11    1    5    5    0    0  0.48911496089E+03  0.12842422477E+03  0.24134949224E+03  0.56033543871E+03  0.00000000000E+00 0.  1.
          1    1    6    6  503    0  0.11546431741E+02 -0.17021991659E+03  0.26932224473E+03  0.31881438424E+03  0.00000000000E+00 0. -1.
         -1    1    6    6    0  503  0.91823056792E+02 -0.14464042276E+03  0.20880918195E+03  0.27009924124E+03  0.00000000000E+00 0.  1.
<mgrwt>
<rscale>  0 0.26970153E+04</rscale>
<asrwt>0</asrwt>
<pdfrwt beam="1">  1        2 0.33594869E+00 0.26970153E+04</pdfrwt>
<pdfrwt beam="2">  1       -1 0.12811712E+00 0.26970153E+04</pdfrwt>
<totfact> 0.27693810E+00</totfact>
</mgrwt>
</event>
<event>
12    6  0.1542110E-007  0.1696958E+04  0.7818608E-02  0.8763101E-01
          2   -1    0    0  501    0  0.00000000000E+00  0.00000000000E+00  0.10581954348E+04  0.10581954348E+04  0.00000000000E+00 0. -1.
         -1   -1    0    0    0  501 -0.00000000000E+00 -0.00000000000E+00 -0.68032502573E+03  0.68032502573E+03  0.00000000000E+00 0.  1.
         24    2    1    2    0    0  0.21993434363E+03  0.12892666783E+03  0.70224881975E+03  0.75140818863E+03  0.80421762745E+02 0.  0.
        254    2    1    2    0    0 -0.21993434363E+03 -0.12892666783E+03 -0.32437841069E+03  0.98711227188E+03  0.89675865359E+03 0.  0.
         23    2    4    4    0    0  0.62506151495E+02 -0.41101440700E+03 -0.38413341086E+03  0.57350851942E+03  0.92269620030E+02 0.  0.
         23    2    4    4    0    0 -0.28244049513E+03  0.28208773916E+03  0.59755000163E+02  0.41360375246E+03  0.90284429060E+02 0.  0.
          4    1    3    3  502    0  0.16474475068E+03  0.12989268895E+03  0.59280072083E+03  0.62882878285E+03  0.00000000000E+00 0. -1.
         -3    1    3    3    0  502  0.55189592947E+02 -0.96602111593E+00  0.10944809891E+03  0.12257940578E+03  0.00000000000E+00 0.  1.
         11    1    5    5    0    0  0.19428854600E+02 -0.51548215966E+02 -0.96506597282E+02  0.11112255522E+03  0.00000000000E+00 0.  1.
        -11    1    5    5    0    0  0.43077296894E+02 -0.35946619103E+03 -0.28762681358E+03  0.46238596420E+03  0.00000000000E+00 0. -1.
          2    1    6    6  503    0 -0.22547881422E+03  0.26575517409E+03  0.63377839864E+02  0.35423616247E+03  0.00000000000E+00 0. -1.
         -2    1    6    6    0  503 -0.56961680904E+02  0.16332565075E+02 -0.36228397002E+01  0.59367589986E+02  0.00000000000E+00 0.  1.
<mgrwt>
<rscale>  0 0.16969583E+04</rscale>
<asrwt>0</asrwt>
<pdfrwt beam="1">  1        2 0.16279930E+00 0.16969583E+04</pdfrwt>
<pdfrwt beam="2">  1       -1 0.10466539E+00 0.16969583E+04</pdfrwt>
<totfact> 0.21545231E+01</totfact>
</mgrwt>
</event>
<event>
12    6  0.1542110E-007  0.1645324E+04  0.7818608E-02  0.8793178E-01
          2   -1    0    0  501    0  0.00000000000E+00  0.00000000000E+00  0.21237165363E+04  0.21237165363E+04  0.00000000000E+00 0. -1.
         -1   -1    0    0    0  501 -0.00000000000E+00 -0.00000000000E+00 -0.31867375499E+03  0.31867375499E+03  0.00000000000E+00 0.  1.
         24    2    1    2    0    0  0.49729030935E+03  0.19076285103E+03  0.34058185743E+03  0.63806425212E+03  0.86266280258E+02 0.  0.
        254    2    1    2    0    0 -0.49729030935E+03 -0.19076285103E+03  0.14644609239E+04  0.18043260392E+04  0.90953754237E+03 0.  0.
         23    2    4    4    0    0 -0.54071441306E+03  0.20740314428E+03  0.11295993614E+04  0.12726277446E+04  0.90545669422E+02 0.  0.
         23    2    4    4    0    0  0.43424103711E+02 -0.39816599530E+03  0.33486156245E+03  0.53169829456E+03  0.10074223464E+03 0.  0.
          4    1    3    3  502    0  0.62628535948E+01  0.77682175410E-01  0.21073086042E+02  0.21984183520E+02  0.00000000000E+00 0. -1.
         -3    1    3    3    0  502  0.49102745576E+03  0.19068516885E+03  0.31950877139E+03  0.61608006860E+03  0.00000000000E+00 0.  1.
         11    1    5    5    0    0 -0.49602926011E+03  0.21436581700E+03  0.10564510046E+04  0.11866281876E+04  0.00000000000E+00 0.  1.
        -11    1    5    5    0    0 -0.44685152952E+02 -0.69626727274E+01  0.73148356843E+02  0.85999557061E+02  0.00000000000E+00 0. -1.
          2    1    6    6  503    0 -0.62616285038E+01 -0.11888293622E+03  0.15643248838E+03  0.19657945960E+03  0.00000000000E+00 0. -1.
         -2    1    6    6    0  503  0.49685732214E+02 -0.27928305908E+03  0.17842907407E+03  0.33511883496E+03  0.00000000000E+00 0.  1.
<mgrwt>
<rscale>  0 0.16453239E+04</rscale>
<asrwt>0</asrwt>
<pdfrwt beam="1">  1        2 0.32672561E+00 0.16453239E+04</pdfrwt>
<pdfrwt beam="2">  1       -1 0.49026733E-01 0.16453239E+04</pdfrwt>
<totfact> 0.25856736E+01</totfact>
</mgrwt>
</event>
<event>
12    6  0.1542110E-007  0.1457984E+04  0.7818608E-02  0.8912884E-01
          2   -1    0    0  501    0  0.00000000000E+00  0.00000000000E+00  0.15936392135E+04  0.15936392135E+04  0.00000000000E+00 0. -1.
         -3   -1    0    0    0  501 -0.00000000000E+00 -0.00000000000E+00 -0.33346893392E+03  0.33346893392E+03  0.00000000000E+00 0.  1.
         24    2    1    2    0    0 -0.72768613508E+02 -0.35227973548E+03  0.74092126330E+03  0.82745765354E+03  0.79533432215E+02 0.  0.
        254    2    1    2    0    0  0.72768613508E+02  0.35227973548E+03  0.51924901631E+03  0.10996504939E+04  0.90011965020E+03 0.  0.
         23    2    4    4    0    0 -0.36982017971E+03  0.11059073333E+02  0.32544375518E+03  0.50097352741E+03  0.90396730933E+02 0.  0.
         23    2    4    4    0    0  0.44258879321E+03  0.34122066215E+03  0.19380526113E+03  0.59867696650E+03  0.92397244647E+02 0.  0.
          2    1    3    3  502    0 -0.72986927539E+02 -0.34121010054E+03  0.73748495347E+03  0.81586486681E+03  0.00000000000E+00 0. -1.
         -1    1    3    3    0  502  0.21831403100E+00 -0.11069634945E+02  0.34363098323E+01  0.11592786727E+02  0.00000000000E+00 0.  1.
         11    1    5    5    0    0 -0.11277391402E+02  0.15330056323E+02  0.40667300311E+01  0.19460947481E+02  0.00000000000E+00 0.  1.
        -11    1    5    5    0    0 -0.35854278830E+03 -0.42709829902E+01  0.32137702514E+03  0.48151257993E+03  0.00000000000E+00 0. -1.
          1    1    6    6  503    0  0.41014239426E+03  0.32988093050E+03  0.20125416967E+03  0.56350816559E+03  0.00000000000E+00 0. -1.
         -1    1    6    6    0  503  0.32446398951E+02  0.11339731645E+02 -0.74489085383E+01  0.35168800905E+02  0.00000000000E+00 0.  1.
<mgrwt>
<rscale>  0 0.14579838E+04</rscale>
<asrwt>0</asrwt>
<pdfrwt beam="1">  1        2 0.24517526E+00 0.14579838E+04</pdfrwt>
<pdfrwt beam="2">  1       -3 0.51302914E-01 0.14579838E+04</pdfrwt>
<totfact> 0.26274692E+01</totfact>
</mgrwt>
</event>
<event>
12    6  0.1542110E-007  0.1880383E+04  0.7818608E-02  0.8664683E-01
          2   -1    0    0  501    0  0.00000000000E+00  0.00000000000E+00  0.60707501456E+03  0.60707501456E+03  0.00000000000E+00 0. -1.
         -1   -1    0    0    0  501 -0.00000000000E+00 -0.00000000000E+00 -0.14560968602E+04  0.14560968602E+04  0.00000000000E+00 0.  1.
         24    2    1    2    0    0 -0.30169466242E+03  0.15676810949E+02  0.39425258002E+03  0.50290342216E+03  0.78811949850E+02 0.  0.
        254    2    1    2    0    0  0.30169466242E+03 -0.15676810949E+02 -0.12432744257E+04  0.15602684526E+04  0.89299547310E+03 0.  0.
         23    2    4    4    0    0  0.46593683293E+03  0.68261817130E+02 -0.24248890854E+03  0.53848118191E+03  0.96975793633E+02 0.  0.
         23    2    4    4    0    0 -0.16424217051E+03 -0.83938628080E+02 -0.10007855171E+04  0.10217872707E+04  0.91958639761E+02 0.  0.
          4    1    3    3  502    0 -0.27004868559E+03 -0.86878965389E+01  0.36112717814E+03  0.45101508947E+03  0.00000000000E+00 0. -1.
         -3    1    3    3    0  502 -0.31645976823E+02  0.24364707488E+02  0.33125401875E+02  0.51888332691E+02  0.00000000000E+00 0.  1.
         11    1    5    5    0    0  0.29343238556E+03 -0.46029754295E+01 -0.14381808362E+03  0.32681400437E+03  0.00000000000E+00 0.  1.
        -11    1    5    5    0    0  0.17250444737E+03  0.72864792560E+02 -0.98670824924E+02  0.21166717754E+03  0.00000000000E+00 0. -1.
          4    1    6    6  503    0  0.96741283803E+01  0.15262261196E+01 -0.23229381474E+02  0.25209567425E+02  0.00000000000E+00 0. -1.
         -4    1    6    6    0  503 -0.17391629889E+03 -0.85464854199E+02 -0.97755613565E+03  0.99657770328E+03  0.00000000000E+00 0.  1.
<mgrwt>
<rscale>  0 0.18803830E+04</rscale>
<asrwt>0</asrwt>
<pdfrwt beam="1">  1        2 0.93396158E-01 0.18803830E+04</pdfrwt>
<pdfrwt beam="2">  1       -1 0.22401490E+00 0.18803830E+04</pdfrwt>
<totfact> 0.54184566E+00</totfact>
</mgrwt>
</event>
<event>
12    6  0.1542110E-007  0.2795662E+04  0.7818608E-02  0.8304616E-01
         -3   -1    0    0    0  501 -0.00000000000E+00  0.00000000000E+00  0.16115191393E+04  0.16115191393E+04  0.00000000000E+00 0.  1.
          2   -1    0    0  501    0  0.00000000000E+00 -0.00000000000E+00 -0.12124777363E+04  0.12124777363E+04  0.00000000000E+00 0. -1.
         24    2    1    2    0    0  0.64653722253E+03  0.23273529975E+03 -0.87409514078E+03  0.11147328991E+04  0.80068853561E+02 0.  0.
        254    2    1    2    0    0 -0.64653722253E+03 -0.23273529975E+03  0.12731365438E+04  0.17092639764E+04  0.91023655288E+03 0.  0.
         23    2    4    4    0    0 -0.42965233625E+03  0.70684064489E+02  0.75348566434E+02  0.45150585985E+03  0.92643229646E+02 0.  0.
         23    2    4    4    0    0 -0.21688488628E+03 -0.30341936424E+03  0.11977879774E+04  0.12577581166E+04  0.90316536121E+02 0.  0.
          2    1    3    3  502    0  0.34667938488E+03  0.12937300787E+03 -0.40627482527E+03  0.54952998527E+03  0.00000000000E+00 0. -1.
         -1    1    3    3    0  502  0.29985783765E+03  0.10336229188E+03 -0.46782031551E+03  0.56520291381E+03  0.00000000000E+00 0.  1.
         11    1    5    5    0    0 -0.33932094426E+03  0.90991699385E+02  0.73422936258E+02  0.35889987481E+03  0.00000000000E+00 0. -1.
        -11    1    5    5    0    0 -0.90331391991E+02 -0.20307634896E+02  0.19256301765E+01  0.92605985042E+02  0.00000000000E+00 0.  1.
          3    1    6    6  503    0 -0.55522691517E+02 -0.13425122280E+03  0.36718433188E+03  0.39488035362E+03  0.00000000000E+00 0. -1.
         -3    1    6    6    0  503 -0.16136219477E+03 -0.16916814143E+03  0.83060364547E+03  0.86287776298E+03  0.00000000000E+00 0.  1.
<mgrwt>
<rscale>  0 0.27956617E+04</rscale>
<asrwt>0</asrwt>
<pdfrwt beam="1">  1        2 0.18653504E+00 0.27956617E+04</pdfrwt>
<pdfrwt beam="2">  1       -3 0.24792602E+00 0.27956617E+04</pdfrwt>
<totfact> 0.76577883E-01</totfact>
</mgrwt>
</event>
<event>
12    6  0.1542110E-007  0.3833508E+04  0.7818608E-02  0.8039002E-01
          2   -1    0    0  501    0  0.00000000000E+00  0.00000000000E+00  0.27021043339E+04  0.27021043339E+04  0.00000000000E+00 0. -1.
         -1   -1    0    0    0  501 -0.00000000000E+00 -0.00000000000E+00 -0.13596612405E+04  0.13596612405E+04  0.00000000000E+00 0.  1.
         24    2    1    2    0    0 -0.44029036110E+03 -0.16060739630E+04 -0.13106755329E+03  0.16724430147E+04  0.80979980536E+02 0.  0.
        254    2    1    2    0    0  0.44029036110E+03  0.16060739630E+04  0.14735106467E+04  0.23893225597E+04  0.87424223847E+03 0.  0.
         23    2    4    4    0    0 -0.10782667860E+03  0.67787037365E+03  0.98008985681E+03  0.12002443045E+04  0.94209483947E+02 0.  0.
         23    2    4    4    0    0  0.54811703971E+03  0.92820358936E+03  0.49342078991E+03  0.11890782552E+04  0.91917510010E+02 0.  0.
          2    1    3    3  502    0 -0.21587402398E+02 -0.32834906584E+02 -0.28402649080E+01  0.39398148908E+02  0.00000000000E+00 0. -1.
         -1    1    3    3    0  502 -0.41870295871E+03 -0.15732390564E+04 -0.12822728838E+03  0.16330448658E+04  0.00000000000E+00 0.  1.
         11    1    5    5    0    0 -0.76169408402E+02  0.63200466624E+03  0.88791143232E+03  0.10925284383E+04  0.00000000000E+00 0.  1.
        -11    1    5    5    0    0 -0.31657270201E+02  0.45865707414E+02  0.92178424496E+02  0.10771586613E+03  0.00000000000E+00 0. -1.
          3    1    6    6  503    0  0.16175315922E+02  0.65057704839E+02  0.42942516909E+02  0.79612847974E+02  0.00000000000E+00 0. -1.
         -3    1    6    6    0  503  0.53194172379E+03  0.86314588452E+03  0.45047827300E+03  0.11094654073E+04  0.00000000000E+00 0.  1.
<mgrwt>
<rscale>  0 0.38335083E+04</rscale>
<asrwt>0</asrwt>
<pdfrwt beam="1">  1        2 0.41570836E+00 0.38335083E+04</pdfrwt>
<pdfrwt beam="2">  1       -1 0.20917865E+00 0.38335083E+04</pdfrwt>
<totfact> 0.31317818E-01</totfact>
</mgrwt>
</event>
<event>
12    6  0.1542110E-007  0.2549841E+04  0.7818608E-02  0.8385442E-01
          2   -1    0    0  501    0  0.00000000000E+00  0.00000000000E+00  0.10083186759E+04  0.10083186759E+04  0.00000000000E+00 0. -1.
         -1   -1    0    0    0  501 -0.00000000000E+00 -0.00000000000E+00 -0.16120122488E+04  0.16120122488E+04  0.00000000000E+00 0.  1.
         24    2    1    2    0    0  0.14556061190E+03 -0.55902225652E+03  0.71198377842E+03  0.92019532718E+03  0.78388547701E+02 0.  0.
        254    2    1    2    0    0 -0.14556061190E+03  0.55902225652E+03 -0.13156773513E+04  0.17001355975E+04  0.90871358629E+03 0.  0.
         23    2    4    4    0    0  0.32062897070E+03  0.92509789800E+00 -0.30556319946E+03  0.45199118075E+03  0.90129717411E+02 0.  0.
         23    2    4    4    0    0 -0.46618958259E+03  0.55809715862E+03 -0.10101141519E+04  0.12481444167E+04  0.93427617709E+02 0.  0.
          4    1    3    3  502    0  0.15425441860E+03 -0.50242196755E+03  0.63625439775E+03  0.82525263877E+03  0.00000000000E+00 0. -1.
         -3    1    3    3    0  502 -0.86938067051E+01 -0.56600288963E+02  0.75729380674E+02  0.94942688412E+02  0.00000000000E+00 0.  1.
         11    1    5    5    0    0  0.19199845600E+03  0.84231117157E+01 -0.12170435877E+03  0.22747814590E+03  0.00000000000E+00 0. -1.
        -11    1    5    5    0    0  0.12863051470E+03 -0.74980138177E+01 -0.18385884068E+03  0.22451303485E+03  0.00000000000E+00 0.  1.
          4    1    6    6  503    0 -0.33207536731E+03  0.45836309693E+03 -0.78376738296E+03  0.96677923478E+03  0.00000000000E+00 0. -1.
         -4    1    6    6    0  503 -0.13411421529E+03  0.99734061684E+02 -0.22634676892E+03  0.28136518193E+03  0.00000000000E+00 0.  1.
<mgrwt>
<rscale>  0 0.25498408E+04</rscale>
<asrwt>0</asrwt>
<pdfrwt beam="1">  1        2 0.15512595E+00 0.25498408E+04</pdfrwt>
<pdfrwt beam="2">  1       -1 0.24800188E+00 0.25498408E+04</pdfrwt>
<totfact> 0.18100954E+00</totfact>
</mgrwt>
</event>
<event>
12    6  0.1542110E-007  0.2589370E+04  0.7818608E-02  0.8371821E-01
          2   -1    0    0  501    0  0.00000000000E+00  0.00000000000E+00  0.18155483347E+04  0.18155483347E+04  0.00000000000E+00 0. -1.
         -1   -1    0    0    0  501 -0.00000000000E+00 -0.00000000000E+00 -0.92325228363E+03  0.92325228363E+03  0.00000000000E+00 0.  1.
         24    2    1    2    0    0 -0.11204070653E+04 -0.21655768562E+02  0.60396153088E+03  0.12755345592E+04  0.80236630305E+02 0.  0.
        254    2    1    2    0    0  0.11204070653E+04  0.21655768562E+02  0.28833452024E+03  0.14632660591E+04  0.89567281975E+03 0.  0.
         23    2    4    4    0    0  0.12213324538E+04  0.15604096179E+03  0.19168366652E+03  0.12495334094E+04  0.92678848007E+02 0.  0.
         23    2    4    4    0    0 -0.10092538851E+03 -0.13438519323E+03  0.96650853718E+02  0.21373264970E+03  0.89971905723E+02 0.  0.
          4    1    3    3  502    0 -0.35171505112E+03 -0.11050383302E+02  0.14819158241E+03  0.38181976541E+03  0.00000000000E+00 0. -1.
         -3    1    3    3    0  502 -0.76869201414E+03 -0.10605385260E+02  0.45576994847E+03  0.89371479384E+03  0.00000000000E+00 0.  1.
         11    1    5    5    0    0  0.11406687390E+04  0.12350765082E+03  0.18656927187E+03  0.11624058694E+04  0.00000000000E+00 0.  1.
        -11    1    5    5    0    0  0.80663714776E+02  0.32533310970E+02  0.51143946571E+01  0.87127540059E+02  0.00000000000E+00 0. -1.
          3    1    6    6  503    0 -0.25210755003E+02 -0.61244993928E+01  0.52213056128E+02  0.58303472374E+02  0.00000000000E+00 0. -1.
         -3    1    6    6    0  503 -0.75714633507E+02 -0.12826069383E+03  0.44437797590E+02  0.15542917733E+03  0.00000000000E+00 0.  1.
<mgrwt>
<rscale>  0 0.25893699E+04</rscale>
<asrwt>0</asrwt>
<pdfrwt beam="1">  1        2 0.27931513E+00 0.25893699E+04</pdfrwt>
<pdfrwt beam="2">  1       -1 0.14203881E+00 0.25893699E+04</pdfrwt>
<totfact> 0.34397162E+00</totfact>
</mgrwt>
</event>
<event>
12    6  0.1542110E-007  0.1324777E+04  0.7818608E-02  0.9010144E-01
          2   -1    0    0  501    0  0.00000000000E+00  0.00000000000E+00  0.23426558091E+04  0.23426558091E+04  0.00000000000E+00 0. -1.
         -1   -1    0    0    0  501 -0.00000000000E+00 -0.00000000000E+00 -0.18729118490E+03  0.18729118490E+03  0.00000000000E+00 0.  1.
         24    2    1    2    0    0  0.10135021658E+03 -0.26607829107E+03  0.19343954098E+03  0.35335281837E+03  0.79811245158E+02 0.  0.
        254    2    1    2    0    0 -0.10135021658E+03  0.26607829107E+03  0.19619250833E+04  0.21765941757E+04  0.89852248155E+03 0.  0.
         23    2    4    4    0    0 -0.39653119834E+03  0.43218407268E+03  0.12179904566E+04  0.13542721080E+04  0.80821570550E+02 0.  0.
         23    2    4    4    0    0  0.29518098176E+03 -0.16610578161E+03  0.74393462663E+03  0.82232206762E+03  0.89732444031E+02 0.  0.
          4    1    3    3  502    0  0.49598260324E+02 -0.15068533611E+03  0.15346073009E+03  0.22071758794E+03  0.00000000000E+00 0. -1.
         -3    1    3    3    0  502  0.51751956260E+02 -0.11539295496E+03  0.39978810895E+02  0.13263523043E+03  0.00000000000E+00 0.  1.
         11    1    5    5    0    0 -0.23069818194E+03  0.30691749650E+03  0.81042706500E+03  0.89677869539E+03  0.00000000000E+00 0. -1.
        -11    1    5    5    0    0 -0.16583301641E+03  0.12526657618E+03  0.40756339162E+03  0.45749341266E+03  0.00000000000E+00 0.  1.
          2    1    6    6  503    0  0.28189020531E+03 -0.16203831342E+03  0.73935011878E+03  0.80768626397E+03  0.00000000000E+00 0. -1.
         -2    1    6    6    0  503  0.13290776451E+02 -0.40674681991E+01  0.45845078512E+01  0.14635803649E+02  0.00000000000E+00 0.  1.
<mgrwt>
<rscale>  0 0.13247774E+04</rscale>
<asrwt>0</asrwt>
<pdfrwt beam="1">  1        2 0.36040856E+00 0.13247774E+04</pdfrwt>
<pdfrwt beam="2">  1       -1 0.28814030E-01 0.13247774E+04</pdfrwt>
<totfact> 0.52487480E+01</totfact>
</mgrwt>
</event>
<event>
12    6  0.1542110E-007  0.1353112E+04  0.7818608E-02  0.8988476E-01
         -1   -1    0    0    0  501 -0.00000000000E+00  0.00000000000E+00  0.16707288590E+04  0.16707288590E+04  0.00000000000E+00 0.  1.
          2   -1    0    0  501    0  0.00000000000E+00 -0.00000000000E+00 -0.27396893010E+03  0.27396893010E+03  0.00000000000E+00 0. -1.
         24    2    1    2    0    0  0.74436425615E+02  0.81414272190E+02  0.92000849323E+03  0.93007843605E+03  0.80381617461E+02 0.  0.
        254    2    1    2    0    0 -0.74436425615E+02 -0.81414272190E+02  0.47675143563E+03  0.10146193530E+04  0.88881462349E+03 0.  0.
         23    2    4    4    0    0 -0.20753817545E+03 -0.23107522646E+03 -0.14408643837E+03  0.35486919800E+03  0.93291968660E+02 0.  0.
         23    2    4    4    0    0  0.13310174983E+03  0.14966095427E+03  0.62083787400E+03  0.65975015500E+03  0.98570402193E+02 0.  0.
          4    1    3    3  502    0  0.45272422295E+02  0.23661189549E+01  0.19551620658E+03  0.20070320818E+03  0.00000000000E+00 0. -1.
         -3    1    3    3    0  502  0.29164003321E+02  0.79048153235E+02  0.72449228665E+03  0.72937522787E+03  0.00000000000E+00 0.  1.
         11    1    5    5    0    0 -0.30563867917E+02  0.30707164269E+01 -0.15990254236E+02  0.34630442561E+02  0.00000000000E+00 0. -1.
        -11    1    5    5    0    0 -0.17697430753E+03 -0.23414594289E+03 -0.12809618413E+03  0.32023875544E+03  0.00000000000E+00 0.  1.
          2    1    6    6  503    0  0.10202042193E+03  0.15635192160E+03  0.56994364414E+03  0.59974148379E+03  0.00000000000E+00 0.  1.
         -2    1    6    6    0  503  0.31081327902E+02 -0.66909673249E+01  0.50894229856E+02  0.60008671211E+02  0.00000000000E+00 0. -1.
<mgrwt>
<rscale>  0 0.13531117E+04</rscale>
<asrwt>0</asrwt>
<pdfrwt beam="1">  1        2 0.42149067E-01 0.13531117E+04</pdfrwt>
<pdfrwt beam="2">  1       -1 0.25703520E+00 0.13531117E+04</pdfrwt>
<totfact> 0.85409222E+00</totfact>
</mgrwt>
</event>
<event>
12    6  0.1542110E-007  0.1048397E+04  0.7818608E-02  0.9257001E-01
          4   -1    0    0  501    0  0.00000000000E+00  0.00000000000E+00  0.42039890533E+03  0.42039890533E+03  0.00000000000E+00 0. -1.
         -1   -1    0    0    0  501 -0.00000000000E+00 -0.00000000000E+00 -0.65362674315E+03  0.65362674315E+03  0.00000000000E+00 0.  1.
         24    2    1    2    0    0  0.71909281538E+02 -0.82741935358E+02 -0.24725366462E+02  0.13964614727E+03  0.82900724138E+02 0.  0.
        254    2    1    2    0    0 -0.71909281538E+02  0.82741935358E+02 -0.20850247136E+03  0.93437950122E+03  0.90419831846E+03 0.  0.
         23    2    4    4    0    0 -0.41446615431E+03 -0.16030871461E+03  0.80764189143E+01  0.45388830478E+03  0.92023299343E+02 0.  0.
         23    2    4    4    0    0  0.34255687277E+03  0.24305064997E+03 -0.21657889027E+03  0.48049119644E+03  0.86870850157E+02 0.  0.
          4    1    3    3  502    0  0.29090983578E+02  0.11997989967E+02  0.41590805419E+01  0.31741692453E+02  0.00000000000E+00 0. -1.
         -1    1    3    3    0  502  0.42818297960E+02 -0.94739925325E+02 -0.28884447003E+02  0.10790445482E+03  0.00000000000E+00 0.  1.
         11    1    5    5    0    0 -0.33288329899E+02 -0.91586983140E+01 -0.24816529130E+02  0.42518875577E+02  0.00000000000E+00 0. -1.
        -11    1    5    5    0    0 -0.38117782441E+03 -0.15115001630E+03  0.32892948044E+02  0.41136942920E+03  0.00000000000E+00 0.  1.
          2    1    6    6  503    0  0.11661607145E+03  0.10270487480E+03 -0.37540069825E+02  0.15986511899E+03  0.00000000000E+00 0.  1.
         -2    1    6    6    0  503  0.22594080132E+03  0.14034577518E+03 -0.17903882045E+03  0.32062607744E+03  0.00000000000E+00 0. -1.
<mgrwt>
<rscale>  0 0.10483968E+04</rscale>
<asrwt>0</asrwt>
<pdfrwt beam="1">  1        4 0.64676755E-01 0.10483968E+04</pdfrwt>
<pdfrwt beam="2">  1       -1 0.10055796E+00 0.10483968E+04</pdfrwt>
<totfact> 0.86857311E+00</totfact>
</mgrwt>
</event>
<event>
12    6  0.1542110E-007  0.2259044E+04  0.7818608E-02  0.8494247E-01
          2   -1    0    0  501    0  0.00000000000E+00  0.00000000000E+00  0.14072386026E+04  0.14072386026E+04  0.00000000000E+00 0. -1.
         -1   -1    0    0    0  501 -0.00000000000E+00 -0.00000000000E+00 -0.90661255404E+03  0.90661255404E+03  0.00000000000E+00 0.  1.
         24    2    1    2    0    0  0.70620127000E+03 -0.37041364360E+03 -0.31341953160E+03  0.86166464377E+03  0.91146335216E+02 0.  0.
        254    2    1    2    0    0 -0.70620127000E+03  0.37041364360E+03  0.81404558017E+03  0.14521865129E+04  0.90013830077E+03 0.  0.
         23    2    4    4    0    0 -0.33788909408E+03  0.63704279250E+03  0.39930091594E+03  0.83059315622E+03  0.10223116116E+03 0.  0.
         23    2    4    4    0    0 -0.36831217592E+03 -0.26662914890E+03  0.41474466423E+03  0.62159335667E+03  0.87293771670E+02 0.  0.
          4    1    3    3  502    0  0.11623441335E+03 -0.53297834107E+02 -0.86896793959E+02  0.15460320426E+03  0.00000000000E+00 0. -1.
         -3    1    3    3    0  502  0.58996685664E+03 -0.31711580949E+03 -0.22652273764E+03  0.70706143950E+03  0.00000000000E+00 0.  1.
         11    1    5    5    0    0 -0.48528429892E+02  0.96514609982E+02  0.20648779089E+02  0.10998386484E+03  0.00000000000E+00 0.  1.
        -11    1    5    5    0    0 -0.28936066418E+03  0.54052818252E+03  0.37865213685E+03  0.72060929138E+03  0.00000000000E+00 0. -1.
          1    1    6    6  503    0 -0.35754867939E+03 -0.27309581829E+03  0.40789636785E+03  0.60729056555E+03  0.00000000000E+00 0. -1.
         -1    1    6    6    0  503 -0.10763496526E+02  0.64666693864E+01  0.68482963783E+01  0.14302791116E+02  0.00000000000E+00 0.  1.
<mgrwt>
<rscale>  0 0.22590442E+04</rscale>
<asrwt>0</asrwt>
<pdfrwt beam="1">  1        2 0.21649825E+00 0.22590442E+04</pdfrwt>
<pdfrwt beam="2">  1       -1 0.13947885E+00 0.22590442E+04</pdfrwt>
<totfact> 0.62883345E+00</totfact>
</mgrwt>
</event>
<event>
12    6  0.1542110E-007  0.1345710E+04  0.7818608E-02  0.8994082E-01
          2   -1    0    0  501    0  0.00000000000E+00  0.00000000000E+00  0.36782590496E+03  0.36782590496E+03  0.00000000000E+00 0. -1.
         -1   -1    0    0    0  501 -0.00000000000E+00 -0.00000000000E+00 -0.12308371575E+04  0.12308371575E+04  0.00000000000E+00 0.  1.
         24    2    1    2    0    0  0.16576632433E+03  0.95622416756E+02 -0.61886889345E+03  0.65262793512E+03  0.79387615814E+02 0.  0.
        254    2    1    2    0    0 -0.16576632433E+03 -0.95622416756E+02 -0.24414235908E+03  0.94603512734E+03  0.89373085982E+03 0.  0.
         23    2    4    4    0    0 -0.35200813799E+03 -0.29210793165E+03  0.11898228558E+03  0.48162782514E+03  0.92584041414E+02 0.  0.
         23    2    4    4    0    0  0.18624181366E+03  0.19648551490E+03 -0.36312464466E+03  0.46440730219E+03  0.10257711271E+03 0.  0.
          4    1    3    3  502    0  0.79154950586E+02  0.18108766142E+02 -0.16207306843E+03  0.18127634463E+03  0.00000000000E+00 0. -1.
         -3    1    3    3    0  502  0.86611373741E+02  0.77513650615E+02 -0.45679582502E+03  0.47135159049E+03  0.00000000000E+00 0.  1.
         11    1    5    5    0    0 -0.10047088693E+03 -0.65938383037E+02  0.72056407064E+02  0.14012278643E+03  0.00000000000E+00 0.  1.
        -11    1    5    5    0    0 -0.25153725105E+03 -0.22616954862E+03  0.46925878519E+02  0.34150503871E+03  0.00000000000E+00 0. -1.
          1    1    6    6  503    0  0.18019309136E+03  0.19488008136E+03 -0.36984218176E+03  0.45522635654E+03  0.00000000000E+00 0. -1.
         -1    1    6    6    0  503  0.60487223020E+01  0.16054335373E+01  0.67175371001E+01  0.91809456495E+01  0.00000000000E+00 0.  1.
<mgrwt>
<rscale>  0 0.13457099E+04</rscale>
<asrwt>0</asrwt>
<pdfrwt beam="1">  1        2 0.56588602E-01 0.13457099E+04</pdfrwt>
<pdfrwt beam="2">  1       -1 0.18935956E+00 0.13457099E+04</pdfrwt>
<totfact> 0.17450318E+01</totfact>
</mgrwt>
</event>
<event>
12    6  0.1542110E-007  0.3736223E+04  0.7818608E-02  0.8059982E-01
         -1   -1    0    0    0  501 -0.00000000000E+00  0.00000000000E+00  0.27715926393E+04  0.27715926393E+04  0.00000000000E+00 0.  1.
          2   -1    0    0  501    0  0.00000000000E+00 -0.00000000000E+00 -0.12591459904E+04  0.12591459904E+04  0.00000000000E+00 0. -1.
         24    2    1    2    0    0  0.52813981094E+03  0.21190237566E+03 -0.10811028763E+04  0.12234881376E+04  0.65616438870E+02 0.  0.
        254    2    1    2    0    0 -0.52813981094E+03 -0.21190237566E+03  0.25935495252E+04  0.28072504921E+04  0.91122001140E+03 0.  0.
         23    2    4    4    0    0 -0.68741008611E+03 -0.16106551964E+03  0.11597430672E+04  0.13607019506E+04  0.89616338615E+02 0.  0.
         23    2    4    4    0    0  0.15927027517E+03 -0.50836856024E+02  0.14338064580E+04  0.14465485416E+04  0.93543133001E+02 0.  0.
          2    1    3    3  502    0  0.41373456886E+03  0.13592731842E+03 -0.82486464529E+03  0.93276696576E+03  0.00000000000E+00 0. -1.
         -1    1    3    3    0  502  0.11440524207E+03  0.75975057246E+02 -0.25623823101E+03  0.29072117186E+03  0.00000000000E+00 0.  1.
         11    1    5    5    0    0 -0.31582834003E+03 -0.11981614005E+03  0.54365602266E+03  0.64005102824E+03  0.00000000000E+00 0. -1.
        -11    1    5    5    0    0 -0.37158174608E+03 -0.41249379591E+02  0.61608704458E+03  0.72065092232E+03  0.00000000000E+00 0.  1.
          1    1    6    6  503    0  0.32153722133E+01  0.37539452882E+01  0.36477506752E+03  0.36480855336E+03  0.00000000000E+00 0. -1.
         -1    1    6    6    0  503  0.15605490296E+03 -0.54590801313E+02  0.10690313904E+04  0.10817399882E+04  0.00000000000E+00 0.  1.
<mgrwt>
<rscale>  0 0.37362226E+04</rscale>
<asrwt>0</asrwt>
<pdfrwt beam="1">  1        2 0.19371477E+00 0.37362226E+04</pdfrwt>
<pdfrwt beam="2">  1       -1 0.42639887E+00 0.37362226E+04</pdfrwt>
<totfact> 0.75489857E-02</totfact>
</mgrwt>
</event>
<event>
12    6  0.1542110E-007  0.3143196E+04  0.7818608E-02  0.8203982E-01
          2   -1    0    0  501    0  0.00000000000E+00  0.00000000000E+00  0.21055670070E+04  0.21055670070E+04  0.00000000000E+00 0. -1.
         -1   -1    0    0    0  501 -0.00000000000E+00 -0.00000000000E+00 -0.11730428381E+04  0.11730428381E+04  0.00000000000E+00 0.  1.
         24    2    1    2    0    0 -0.57361443287E+03 -0.78120696522E+03  0.15232667366E+04  0.18071797615E+04  0.78989237419E+02 0.  0.
        254    2    1    2    0    0  0.57361443287E+03  0.78120696522E+03 -0.59074256769E+03  0.14714300836E+04  0.93638233084E+03 0.  0.
         23    2    4    4    0    0  0.20837884225E+03 -0.19187796129E+03 -0.19297313757E+03  0.35486860911E+03  0.91946745324E+02 0.  0.
         23    2    4    4    0    0  0.36523559061E+03  0.97308492651E+03 -0.39776943012E+03  0.11165614745E+04  0.90541128265E+02 0.  0.
          2    1    3    3  502    0 -0.47740598440E+03 -0.68078593195E+03  0.13418753358E+04  0.15786118509E+04  0.00000000000E+00 0. -1.
         -1    1    3    3    0  502 -0.96208448466E+02 -0.10042103327E+03  0.18139140079E+03  0.22856791061E+03  0.00000000000E+00 0.  1.
         11    1    5    5    0    0  0.18577020405E+03 -0.17152764511E+03 -0.12860536809E+03  0.28367524116E+03  0.00000000000E+00 0. -1.
        -11    1    5    5    0    0  0.22608638208E+02 -0.20350316182E+02 -0.64367769488E+02  0.71193367944E+02  0.00000000000E+00 0.  1.
          2    1    6    6  503    0  0.29371827929E+03  0.74406673438E+03 -0.34351076182E+03  0.87057761072E+03  0.00000000000E+00 0. -1.
         -2    1    6    6    0  503  0.71517311322E+02  0.22901819214E+03 -0.54258668299E+02  0.24598386377E+03  0.00000000000E+00 0.  1.
<mgrwt>
<rscale>  0 0.31431960E+04</rscale>
<asrwt>0</asrwt>
<pdfrwt beam="1">  1        2 0.32393338E+00 0.31431960E+04</pdfrwt>
<pdfrwt beam="2">  1       -1 0.18046813E+00 0.31431960E+04</pdfrwt>
<totfact> 0.11590687E+00</totfact>
</mgrwt>
</event>
<event>
12    6  0.1542110E-007  0.3287445E+04  0.7818608E-02  0.8166097E-01
          2   -1    0    0  501    0  0.00000000000E+00  0.00000000000E+00  0.10773538829E+04  0.10773538829E+04  0.00000000000E+00 0. -1.
         -1   -1    0    0    0  501 -0.00000000000E+00 -0.00000000000E+00 -0.25078331025E+04  0.25078331025E+04  0.00000000000E+00 0.  1.
         24    2    1    2    0    0  0.29909062483E+03 -0.88319649575E+03 -0.19396239735E+04  0.21536305617E+04  0.80574100231E+02 0.  0.
        254    2    1    2    0    0 -0.29909062483E+03  0.88319649575E+03  0.50914475387E+03  0.14315564237E+04  0.95949682745E+03 0.  0.
         23    2    4    4    0    0 -0.54317322623E+03  0.30891505265E+03  0.16616683367E+02  0.63173503188E+03  0.91363958385E+02 0.  0.
         23    2    4    4    0    0  0.24408260141E+03  0.57428144310E+03  0.49252807050E+03  0.79982139182E+03  0.88061719174E+02 0.  0.
          2    1    3    3  502    0  0.16365985345E+02 -0.13587904456E+03 -0.29299203575E+03  0.32338103413E+03  0.00000000000E+00 0. -1.
         -1    1    3    3    0  502  0.28272463948E+03 -0.74731745119E+03 -0.16466319378E+04  0.18302495276E+04  0.00000000000E+00 0.  1.
         11    1    5    5    0    0 -0.35616287988E+03  0.15426635101E+03 -0.43410522815E+01  0.38816098309E+03  0.00000000000E+00 0.  1.
        -11    1    5    5    0    0 -0.18701034635E+03  0.15464870164E+03  0.20957735649E+02  0.24357404879E+03  0.00000000000E+00 0. -1.
          1    1    6    6  503    0 -0.24746626550E+01 -0.14294119514E+01 -0.31118009298E+00  0.28747185659E+01  0.00000000000E+00 0. -1.
         -1    1    6    6    0  503  0.24655726406E+03  0.57571085505E+03  0.49283925060E+03  0.79694667325E+03  0.00000000000E+00 0.  1.
<mgrwt>
<rscale>  0 0.32874450E+04</rscale>
<asrwt>0</asrwt>
<pdfrwt beam="1">  1        2 0.16574675E+00 0.32874450E+04</pdfrwt>
<pdfrwt beam="2">  1       -1 0.38582047E+00 0.32874450E+04</pdfrwt>
<totfact> 0.19139291E-01</totfact>
</mgrwt>
</event>
<event>
12    6  0.1542110E-007  0.2825074E+04  0.7818608E-02  0.8295526E-01
         -1   -1    0    0    0  501 -0.00000000000E+00  0.00000000000E+00  0.11440070042E+04  0.11440070042E+04  0.00000000000E+00 0.  1.
          2   -1    0    0  501    0  0.00000000000E+00 -0.00000000000E+00 -0.17440980502E+04  0.17440980502E+04  0.00000000000E+00 0. -1.
         24    2    1    2    0    0  0.26837170933E+03 -0.64980284449E+03 -0.13451982738E+04  0.15199321568E+04  0.79801343480E+02 0.  0.
        254    2    1    2    0    0 -0.26837170933E+03  0.64980284449E+03  0.74510722778E+03  0.13681728975E+04  0.90688763669E+03 0.  0.
         23    2    4    4    0    0 -0.80095865965E+02  0.31625306997E+03  0.88677452633E+03  0.94945904717E+03  0.93123947970E+02 0.  0.
         23    2    4    4    0    0 -0.18827584336E+03  0.33354977452E+03 -0.14166729856E+03  0.41871385036E+03  0.92457664496E+02 0.  0.
          2    1    3    3  502    0  0.27047533835E+03 -0.63942897101E+03 -0.13029997130E+04  0.14764262832E+04  0.00000000000E+00 0. -1.
         -1    1    3    3    0  502 -0.21036290219E+01 -0.10373873476E+02 -0.42198560838E+02  0.43505873658E+02  0.00000000000E+00 0.  1.
         11    1    5    5    0    0  0.12844657566E+02  0.15347354498E+02  0.25526726488E+02  0.32436711968E+02  0.00000000000E+00 0.  1.
        -11    1    5    5    0    0 -0.92940523531E+02  0.30090571547E+03  0.86124779985E+03  0.91702233520E+03  0.00000000000E+00 0. -1.
          2    1    6    6  503    0 -0.19051615251E+03  0.32720002362E+03 -0.12179441088E+03  0.39773123883E+03  0.00000000000E+00 0. -1.
         -2    1    6    6    0  503  0.22403091446E+01  0.63497509030E+01 -0.19872887684E+02  0.20982611527E+02  0.00000000000E+00 0.  1.
<mgrwt>
<rscale>  0 0.28250737E+04</rscale>
<asrwt>0</asrwt>
<pdfrwt beam="1">  1        2 0.26832278E+00 0.28250737E+04</pdfrwt>
<pdfrwt beam="2">  1       -1 0.17600108E+00 0.28250737E+04</pdfrwt>
<totfact> 0.20376660E+00</totfact>
</mgrwt>
</event>
<event>
12    6  0.1542110E-007  0.1598871E+04  0.7818608E-02  0.8821242E-01
          2   -1    0    0  501    0  0.00000000000E+00  0.00000000000E+00  0.23721604599E+04  0.23721604599E+04  0.00000000000E+00 0. -1.
         -3   -1    0    0    0  501 -0.00000000000E+00 -0.00000000000E+00 -0.26941565242E+03  0.26941565242E+03  0.00000000000E+00 0.  1.
         24    2    1    2    0    0  0.15912765749E+03  0.17471276758E+03  0.15167073801E+04  0.15371263845E+04  0.80685081755E+02 0.  0.
        254    2    1    2    0    0 -0.15912765749E+03 -0.17471276758E+03  0.58603742731E+03  0.11044497278E+04  0.90582734143E+03 0.  0.
         23    2    4    4    0    0  0.32819863955E+03 -0.22038242162E+03  0.12133110245E+03  0.42347102182E+03  0.91234374739E+02 0.  0.
         23    2    4    4    0    0 -0.48732629704E+03  0.45669654043E+02  0.46470632486E+03  0.68097870597E+03  0.90594660671E+02 0.  0.
          2    1    3    3  502    0  0.11311047202E+03  0.12140760063E+03  0.80374656809E+03  0.82069624715E+03  0.00000000000E+00 0. -1.
         -1    1    3    3    0  502  0.46017185471E+02  0.53305166955E+02  0.71296081204E+03  0.71643013734E+03  0.00000000000E+00 0.  1.
         11    1    5    5    0    0  0.29826830411E+02 -0.12551443242E+02  0.38944665026E+02  0.50634627221E+02  0.00000000000E+00 0.  1.
        -11    1    5    5    0    0  0.29837180914E+03 -0.20783097838E+03  0.82386437424E+02  0.37283639460E+03  0.00000000000E+00 0. -1.
          4    1    6    6  503    0 -0.47180305799E+03  0.54646240158E+02  0.46244914689E+03  0.66290538583E+03  0.00000000000E+00 0. -1.
         -4    1    6    6    0  503 -0.15523239044E+02 -0.89765861153E+01  0.22571779607E+01  0.18073320145E+02  0.00000000000E+00 0.  1.
<mgrwt>
<rscale>  0 0.15988710E+04</rscale>
<asrwt>0</asrwt>
<pdfrwt beam="1">  1        2 0.36494775E+00 0.15988710E+04</pdfrwt>
<pdfrwt beam="2">  1       -3 0.41448564E-01 0.15988710E+04</pdfrwt>
<totfact> 0.14803477E+01</totfact>
</mgrwt>
</event>
<event>
12    6  0.1542110E-007  0.3641308E+04  0.7818608E-02  0.8081095E-01
          2   -1    0    0  501    0  0.00000000000E+00  0.00000000000E+00  0.31053414478E+04  0.31053414478E+04  0.00000000000E+00 0. -1.
         -1   -1    0    0    0  501 -0.00000000000E+00 -0.00000000000E+00 -0.10674448289E+04  0.10674448289E+04  0.00000000000E+00 0.  1.
         24    2    1    2    0    0 -0.37275617726E+01  0.12216202028E+04  0.23278632572E+04  0.26302217706E+04  0.82154755408E+02 0.  0.
        254    2    1    2    0    0  0.37275617726E+01 -0.12216202028E+04 -0.28996663821E+03  0.15425645061E+04  0.89613324322E+03 0.  0.
         23    2    4    4    0    0  0.31732690889E+03 -0.54100960211E+03 -0.44229052470E+03  0.77270340193E+03  0.89787985948E+02 0.  0.
         23    2    4    4    0    0 -0.31359934712E+03 -0.68061060070E+03  0.15232388649E+03  0.76986110419E+03  0.88928134195E+02 0.  0.
          4    1    3    3  502    0  0.18149484643E+02  0.88519045140E+03  0.17492422541E+04  0.19605458430E+04  0.00000000000E+00 0. -1.
         -1    1    3    3    0  502 -0.21877046416E+02  0.33642975142E+03  0.57862100310E+03  0.66967592761E+03  0.00000000000E+00 0.  1.
         11    1    5    5    0    0  0.37294465700E+02 -0.21967289957E+02 -0.22413577984E+02  0.48742255569E+02  0.00000000000E+00 0. -1.
        -11    1    5    5    0    0  0.28003244319E+03 -0.51904231216E+03 -0.41987694672E+03  0.72396114636E+03  0.00000000000E+00 0.  1.
          3    1    6    6  503    0 -0.18001288229E+03 -0.39286675127E+03  0.42855533709E+02  0.43426434209E+03  0.00000000000E+00 0. -1.
         -3    1    6    6    0  503 -0.13358646483E+03 -0.28774384944E+03  0.10946835278E+03  0.33559676210E+03  0.00000000000E+00 0.  1.
<mgrwt>
<rscale>  0 0.36413078E+04</rscale>
<asrwt>0</asrwt>
<pdfrwt beam="1">  1        2 0.47774484E+00 0.36413078E+04</pdfrwt>
<pdfrwt beam="2">  1       -1 0.16422228E+00 0.36413078E+04</pdfrwt>
<totfact> 0.37367933E-01</totfact>
</mgrwt>
</event>
<event>
12    6  0.1542110E-007  0.3138732E+04  0.7818608E-02  0.8205188E-01
          2   -1    0    0  501    0  0.00000000000E+00  0.00000000000E+00  0.29029700061E+04  0.29029700061E+04  0.00000000000E+00 0. -1.
         -1   -1    0    0    0  501 -0.00000000000E+00 -0.00000000000E+00 -0.84841042218E+03  0.84841042218E+03  0.00000000000E+00 0.  1.
         24    2    1    2    0    0  0.68783064563E+03 -0.51940125184E+01  0.24391528379E+04  0.25355742950E+04  0.80823662015E+02 0.  0.
        254    2    1    2    0    0 -0.68783064563E+03  0.51940125184E+01 -0.38459325396E+03  0.12158061332E+04  0.92581564458E+03 0.  0.
         23    2    4    4    0    0 -0.51079165747E+03  0.79109327993E+02 -0.67555450923E+03  0.85540521652E+03  0.90431114083E+02 0.  0.
         23    2    4    4    0    0 -0.17703898816E+03 -0.73915315475E+02  0.29096125526E+03  0.36040091671E+03  0.91782849740E+02 0.  0.
          4    1    3    3  502    0  0.26353488972E+03 -0.38495687024E+02  0.99282940401E+03  0.10279313117E+04  0.00000000000E+00 0. -1.
         -3    1    3    3    0  502  0.42429575591E+03  0.33301674505E+02  0.14463234339E+04  0.15076429834E+04  0.00000000000E+00 0.  1.
         11    1    5    5    0    0 -0.39469979331E+03  0.53594493775E+02 -0.45390205402E+03  0.60389350985E+03  0.00000000000E+00 0.  1.
        -11    1    5    5    0    0 -0.11609186416E+03  0.25514834218E+02 -0.22165245521E+03  0.25151170666E+03  0.00000000000E+00 0. -1.
          1    1    6    6  503    0 -0.10643795904E+03 -0.77806091115E+02  0.13269743480E+03  0.18705998006E+03  0.00000000000E+00 0. -1.
         -1    1    6    6    0  503 -0.70601029127E+02  0.38907756395E+01  0.15826382046E+03  0.17334093664E+03  0.00000000000E+00 0.  1.
<mgrwt>
<rscale>  0 0.31387322E+04</rscale>
<asrwt>0</asrwt>
<pdfrwt beam="1">  1        2 0.44661077E+00 0.31387322E+04</pdfrwt>
<pdfrwt beam="2">  1       -1 0.13052468E+00 0.31387322E+04</pdfrwt>
<totfact> 0.96502083E-01</totfact>
</mgrwt>
</event>
<event>
12    6  0.1542110E-007  0.1833125E+04  0.7818608E-02  0.8688880E-01
         -1   -1    0    0    0  501 -0.00000000000E+00  0.00000000000E+00  0.34669038212E+03  0.34669038212E+03  0.00000000000E+00 0.  1.
          2   -1    0    0  501    0  0.00000000000E+00 -0.00000000000E+00 -0.24231624090E+04  0.24231624090E+04  0.00000000000E+00 0. -1.
         24    2    1    2    0    0 -0.57626445619E+03 -0.20968494139E+03 -0.12146598483E+04  0.13628217960E+04  0.76395042166E+02 0.  0.
        254    2    1    2    0    0  0.57626445619E+03  0.20968494139E+03 -0.86181217862E+03  0.14070309951E+04  0.92788333964E+03 0.  0.
         23    2    4    4    0    0  0.58227066865E+03  0.48988604869E+03 -0.79389187973E+03  0.11034981729E+04  0.91741095957E+02 0.  0.
         23    2    4    4    0    0 -0.60062124605E+01 -0.28020110730E+03 -0.67920298882E+02  0.30353282222E+03  0.94711520103E+02 0.  0.
          2    1    3    3  502    0 -0.31754030523E+03 -0.11157187736E+03 -0.74915759823E+03  0.82128998305E+03  0.00000000000E+00 0. -1.
         -1    1    3    3    0  502 -0.25872415096E+03 -0.98113064024E+02 -0.46550225006E+03  0.54153181295E+03  0.00000000000E+00 0.  1.
         11    1    5    5    0    0  0.14086473846E+03  0.11725200675E+03 -0.25077124821E+03  0.31060767306E+03  0.00000000000E+00 0. -1.
        -11    1    5    5    0    0  0.44140593019E+03  0.37263404194E+03 -0.54312063152E+03  0.79289049988E+03  0.00000000000E+00 0.  1.
          2    1    6    6  503    0 -0.35383808456E+02 -0.24326567559E+03 -0.41061804847E+02  0.24923136768E+03  0.00000000000E+00 0. -1.
         -2    1    6    6    0  503  0.29377595996E+02 -0.36935431714E+02 -0.26858494035E+02  0.54301454531E+02  0.00000000000E+00 0.  1.
<mgrwt>
<rscale>  0 0.18331253E+04</rscale>
<asrwt>0</asrwt>
<pdfrwt beam="1">  1        2 0.37279424E+00 0.18331253E+04</pdfrwt>
<pdfrwt beam="2">  1       -1 0.53336979E-01 0.18331253E+04</pdfrwt>
<totfact> 0.14668063E+01</totfact>
</mgrwt>
</event>
<event>
12    6  0.1542110E-007  0.1672577E+04  0.7818608E-02  0.8777161E-01
         -1   -1    0    0    0  501 -0.00000000000E+00  0.00000000000E+00  0.11951273806E+04  0.11951273806E+04  0.00000000000E+00 0.  1.
          2   -1    0    0  501    0  0.00000000000E+00 -0.00000000000E+00 -0.58519142904E+03  0.58519142904E+03  0.00000000000E+00 0. -1.
         24    2    1    2    0    0 -0.79012314577E+01  0.26536863914E+03 -0.33505426770E+03  0.43458192376E+03  0.78212160544E+02 0.  0.
        254    2    1    2    0    0  0.79012314577E+01 -0.26536863914E+03  0.94499021924E+03  0.13457368858E+04  0.92060757513E+03 0.  0.
         23    2    4    4    0    0  0.43755833830E+03 -0.26179579704E+03  0.49742595044E+03  0.71828992175E+03  0.92268611952E+02 0.  0.
         23    2    4    4    0    0 -0.42965710684E+03 -0.35728421000E+01  0.44756426880E+03  0.62744696410E+03  0.93583777404E+02 0.  0.
          2    1    3    3  502    0 -0.18735977380E+02  0.21285887259E+03 -0.21512786562E+03  0.30321598746E+03  0.00000000000E+00 0. -1.
         -1    1    3    3    0  502  0.10834745922E+02  0.52509766549E+02 -0.11992640208E+03  0.13136593629E+03  0.00000000000E+00 0.  1.
         11    1    5    5    0    0  0.34130217262E+02 -0.50646449673E+02  0.79306730514E+02  0.10009741305E+03  0.00000000000E+00 0. -1.
        -11    1    5    5    0    0  0.40342812104E+03 -0.21114934737E+03  0.41811921993E+03  0.61819250870E+03  0.00000000000E+00 0.  1.
          4    1    6    6  503    0 -0.28772347594E+03 -0.37487236374E+02  0.25840457252E+03  0.38853959206E+03  0.00000000000E+00 0.  1.
         -4    1    6    6    0  503 -0.14193363090E+03  0.33914394274E+02  0.18915969627E+03  0.23890737204E+03  0.00000000000E+00 0. -1.
<mgrwt>
<rscale>  0 0.16725768E+04</rscale>
<asrwt>0</asrwt>
<pdfrwt beam="1">  1        2 0.90029451E-01 0.16725768E+04</pdfrwt>
<pdfrwt beam="2">  1       -1 0.18386575E+00 0.16725768E+04</pdfrwt>
<totfact> 0.10873208E+01</totfact>
</mgrwt>
</event>
<event>
12    6  0.1542110E-007  0.3006183E+04  0.7818608E-02  0.8241967E-01
          2   -1    0    0  501    0  0.00000000000E+00  0.00000000000E+00  0.18784578123E+04  0.18784578123E+04  0.00000000000E+00 0. -1.
         -1   -1    0    0    0  501 -0.00000000000E+00 -0.00000000000E+00 -0.12027334925E+04  0.12027334925E+04  0.00000000000E+00 0.  1.
         24    2    1    2    0    0  0.98153737922E+03 -0.47593857029E+03  0.11549401806E+04  0.15906916347E+04  0.80497866686E+02 0.  0.
        254    2    1    2    0    0 -0.98153737922E+03  0.47593857029E+03 -0.47921586074E+03  0.14904996702E+04  0.89554914778E+03 0.  0.
         23    2    4    4    0    0 -0.54076726520E+03 -0.21169901480E+03 -0.24111325948E+03  0.63527985683E+03  0.90549349087E+02 0.  0.
         23    2    4    4    0    0 -0.44077011402E+03  0.68763758509E+03 -0.23810260127E+03  0.85521981334E+03  0.87088108023E+02 0.  0.
          2    1    3    3  502    0  0.67906950684E+03 -0.33320225505E+03  0.74588464751E+03  0.10623102397E+04  0.00000000000E+00 0. -1.
         -1    1    3    3    0  502  0.30246787238E+03 -0.14273631524E+03  0.40905553304E+03  0.52838139503E+03  0.00000000000E+00 0.  1.
         11    1    5    5    0    0 -0.53831046026E+03 -0.20519887019E+03 -0.22635587845E+03  0.61896826386E+03  0.00000000000E+00 0. -1.
        -11    1    5    5    0    0 -0.24568049365E+01 -0.65001446159E+01 -0.14757381028E+02  0.16311592974E+02  0.00000000000E+00 0.  1.
          1    1    6    6  503    0 -0.43156847194E+03  0.66309284576E+03 -0.24478504741E+03  0.82816857433E+03  0.00000000000E+00 0. -1.
         -1    1    6    6    0  503 -0.92016420831E+01  0.24544739324E+02  0.66824461408E+01  0.27051239010E+02  0.00000000000E+00 0.  1.
<mgrwt>
<rscale>  0 0.30061830E+04</rscale>
<asrwt>0</asrwt>
<pdfrwt beam="1">  1        2 0.28899351E+00 0.30061830E+04</pdfrwt>
<pdfrwt beam="2">  1       -1 0.18503592E+00 0.30061830E+04</pdfrwt>
<totfact> 0.14555988E+00</totfact>
</mgrwt>
</event>
<event>
12    6  0.1542110E-007  0.1563923E+04  0.7818608E-02  0.8843023E-01
         -1   -1    0    0    0  501 -0.00000000000E+00  0.00000000000E+00  0.57887981839E+03  0.57887981839E+03  0.00000000000E+00 0.  1.
          2   -1    0    0  501    0  0.00000000000E+00 -0.00000000000E+00 -0.10562875164E+04  0.10562875164E+04  0.00000000000E+00 0. -1.
         24    2    1    2    0    0  0.93708844609E+02  0.28307205182E+03  0.28708910697E+03  0.42129703755E+03  0.78485058633E+02 0.  0.
        254    2    1    2    0    0 -0.93708844609E+02 -0.28307205182E+03 -0.76449680495E+03  0.12138702972E+04  0.89449125184E+03 0.  0.
         23    2    4    4    0    0  0.25297674156E+03 -0.42318520054E+03 -0.63201429118E+03  0.80692347354E+03  0.92738784610E+02 0.  0.
         23    2    4    4    0    0 -0.34668558617E+03  0.14011314872E+03 -0.13248251377E+03  0.40694682368E+03  0.90727673537E+02 0.  0.
          2    1    3    3  502    0  0.88911491221E+02  0.19433134765E+03  0.16351785204E+03  0.26908737222E+03  0.00000000000E+00 0. -1.
         -1    1    3    3    0  502  0.47973533887E+01  0.88740704167E+02  0.12357125493E+03  0.15220966533E+03  0.00000000000E+00 0.  1.
         11    1    5    5    0    0  0.22957564244E+03 -0.41054578108E+03 -0.56719716768E+03  0.73686188732E+03  0.00000000000E+00 0.  1.
        -11    1    5    5    0    0  0.23401099120E+02 -0.12639419452E+02 -0.64817123502E+02  0.70061586217E+02  0.00000000000E+00 0. -1.
          1    1    6    6  503    0 -0.27976200082E+03  0.71124502676E+02 -0.99773614550E+02  0.30541814966E+03  0.00000000000E+00 0. -1.
         -1    1    6    6    0  503 -0.66923585348E+02  0.68988646043E+02 -0.32708899220E+02  0.10152867401E+03  0.00000000000E+00 0.  1.
<mgrwt>
<rscale>  0 0.15639227E+04</rscale>
<asrwt>0</asrwt>
<pdfrwt beam="1">  1        2 0.16250577E+00 0.15639227E+04</pdfrwt>
<pdfrwt beam="2">  1       -1 0.89058434E-01 0.15639227E+04</pdfrwt>
<totfact> 0.31462318E+01</totfact>
</mgrwt>
</event>
<event>
12    6  0.1542110E-007  0.2207595E+04  0.7818608E-02  0.8515273E-01
          2   -1    0    0  501    0  0.00000000000E+00  0.00000000000E+00  0.11889948590E+04  0.11889948590E+04  0.00000000000E+00 0. -1.
         -1   -1    0    0    0  501 -0.00000000000E+00 -0.00000000000E+00 -0.10247051750E+04  0.10247051750E+04  0.00000000000E+00 0.  1.
         24    2    1    2    0    0 -0.53520531414E+03 -0.62443464857E+03 -0.34039893794E+03  0.89378498403E+03  0.81343728113E+02 0.  0.
        254    2    1    2    0    0  0.53520531414E+03  0.62443464857E+03  0.50468862189E+03  0.13199150500E+04  0.90061188948E+03 0.  0.
         23    2    4    4    0    0  0.11448822447E+03  0.43218975486E+03  0.67808694606E+03  0.81774161719E+03  0.94888926174E+02 0.  0.
         23    2    4    4    0    0  0.42071708967E+03  0.19224489371E+03 -0.17339832417E+03  0.50217343279E+03  0.90278508404E+02 0.  0.
          4    1    3    3  502    0 -0.15533403420E+03 -0.15471170078E+03 -0.57088050454E+02  0.22654672375E+03  0.00000000000E+00 0. -1.
         -3    1    3    3    0  502 -0.37987127994E+03 -0.46972294780E+03 -0.28331088749E+03  0.66723826028E+03  0.00000000000E+00 0.  1.
         11    1    5    5    0    0  0.94247470711E+02  0.20790641921E+03  0.39244743311E+03  0.45400732663E+03  0.00000000000E+00 0. -1.
        -11    1    5    5    0    0  0.20240753761E+02  0.22428333565E+03  0.28563951295E+03  0.36373429055E+03  0.00000000000E+00 0.  1.
          3    1    6    6  503    0  0.23863644844E+03  0.15235636564E+03 -0.83190808532E+02  0.29509409905E+03  0.00000000000E+00 0. -1.
         -3    1    6    6    0  503  0.18208064123E+03  0.39888528074E+02 -0.90207515639E+02  0.20707933374E+03  0.00000000000E+00 0.  1.
<mgrwt>
<rscale>  0 0.22075952E+04</rscale>
<asrwt>0</asrwt>
<pdfrwt beam="1">  1        2 0.18292229E+00 0.22075952E+04</pdfrwt>
<pdfrwt beam="2">  1       -1 0.15764695E+00 0.22075952E+04</pdfrwt>
<totfact> 0.60992195E+00</totfact>
</mgrwt>
</event>
<event>
12    6  0.1542110E-007  0.1963517E+04  0.7818608E-02  0.8623870E-01
          2   -1    0    0  501    0  0.00000000000E+00  0.00000000000E+00  0.29036754054E+04  0.29036754054E+04  0.00000000000E+00 0. -1.
         -1   -1    0    0    0  501 -0.00000000000E+00 -0.00000000000E+00 -0.33194127604E+03  0.33194127604E+03  0.00000000000E+00 0.  1.
         24    2    1    2    0    0 -0.67879343926E+03  0.29930882338E+03  0.65619339868E+03  0.99364243070E+03  0.79932463200E+02 0.  0.
        254    2    1    2    0    0  0.67879343926E+03 -0.29930882338E+03  0.19155407307E+04  0.22419742508E+04  0.89822377232E+03 0.  0.
         23    2    4    4    0    0 -0.99804231756E+02 -0.16486515256E+03  0.57307538272E+02  0.22070839562E+03  0.91030976868E+02 0.  0.
         23    2    4    4    0    0  0.77859767102E+03 -0.13444367081E+03  0.18582331924E+04  0.20212658551E+04  0.90529695407E+02 0.  0.
          4    1    3    3  502    0 -0.63479175107E+03  0.26991830557E+03  0.63167541973E+03  0.93532363105E+03  0.00000000000E+00 0. -1.
         -3    1    3    3    0  502 -0.44001688187E+02  0.29390517805E+02  0.24517978954E+02  0.58318799646E+02  0.00000000000E+00 0.  1.
         11    1    5    5    0    0  0.12583110397E+02 -0.19877807807E+02  0.25199360343E+02  0.34474188492E+02  0.00000000000E+00 0.  1.
        -11    1    5    5    0    0 -0.11238734215E+03 -0.14498734476E+03  0.32108177928E+02  0.18623420713E+03  0.00000000000E+00 0. -1.
          2    1    6    6  503    0  0.35331405518E+03 -0.10280011786E+03  0.90783544009E+03  0.97957331124E+03  0.00000000000E+00 0. -1.
         -2    1    6    6    0  503  0.42528361584E+03 -0.31643552952E+02  0.95039775235E+03  0.10416925439E+04  0.00000000000E+00 0.  1.
<mgrwt>
<rscale>  0 0.19635170E+04</rscale>
<asrwt>0</asrwt>
<pdfrwt beam="1">  1        2 0.44671928E+00 0.19635170E+04</pdfrwt>
<pdfrwt beam="2">  1       -1 0.51067891E-01 0.19635170E+04</pdfrwt>
<totfact> 0.81896025E+00</totfact>
</mgrwt>
</event>
<event>
12    6  0.1542110E-007  0.3705299E+04  0.7818608E-02  0.8066789E-01
         -1   -1    0    0    0  501 -0.00000000000E+00  0.00000000000E+00  0.10369558571E+04  0.10369558571E+04  0.00000000000E+00 0.  1.
          2   -1    0    0  501    0  0.00000000000E+00 -0.00000000000E+00 -0.33099859111E+04  0.33099859111E+04  0.00000000000E+00 0. -1.
         24    2    1    2    0    0 -0.91048832201E+02  0.14350338282E+04 -0.22328562257E+04  0.26569910285E+04  0.79639330475E+02 0.  0.
        254    2    1    2    0    0  0.91048832201E+02 -0.14350338282E+04 -0.40173828314E+02  0.16899507398E+04  0.88696538178E+03 0.  0.
         23    2    4    4    0    0 -0.19163028875E+03 -0.18963929111E+03 -0.26675270299E+03  0.39018000616E+03  0.91641717325E+02 0.  0.
         23    2    4    4    0    0  0.28267912095E+03 -0.12453945371E+04  0.22657887468E+03  0.12997707336E+04  0.84563201696E+02 0.  0.
          4    1    3    3  502    0 -0.43810691850E+02  0.10323139520E+04 -0.15499277021E+04  0.18627579966E+04  0.00000000000E+00 0. -1.
         -3    1    3    3    0  502 -0.47238140351E+02  0.40271987620E+03 -0.68292852361E+03  0.79423303190E+03  0.00000000000E+00 0.  1.
         11    1    5    5    0    0 -0.19833685259E+03 -0.16788660515E+03 -0.25680405259E+03  0.36533784462E+03  0.00000000000E+00 0.  1.
        -11    1    5    5    0    0  0.67065638457E+01 -0.21752685955E+02 -0.99486503976E+01  0.24842161533E+02  0.00000000000E+00 0. -1.
          2    1    6    6  503    0  0.50303470466E+02 -0.39442885020E+03  0.78741365513E+02  0.40534523515E+03  0.00000000000E+00 0. -1.
         -2    1    6    6    0  503  0.23237565048E+03 -0.85096568691E+03  0.14783750916E+03  0.89442549849E+03  0.00000000000E+00 0.  1.
<mgrwt>
<rscale>  0 0.37052985E+04</rscale>
<asrwt>0</asrwt>
<pdfrwt beam="1">  1        2 0.50922860E+00 0.37052985E+04</pdfrwt>
<pdfrwt beam="2">  1       -1 0.15953167E+00 0.37052985E+04</pdfrwt>
<totfact> 0.29606714E-01</totfact>
</mgrwt>
</event>
<event>
12    6  0.1542110E-007  0.1291779E+04  0.7818608E-02  0.9036110E-01
         -1   -1    0    0    0  501 -0.00000000000E+00  0.00000000000E+00  0.98861195143E+02  0.98861195143E+02  0.00000000000E+00 0.  1.
          2   -1    0    0  501    0  0.00000000000E+00 -0.00000000000E+00 -0.42197871580E+04  0.42197871580E+04  0.00000000000E+00 0. -1.
         24    2    1    2    0    0  0.21105429817E+03 -0.22617800041E+03 -0.13894938199E+04  0.14258906338E+04  0.82283772955E+02 0.  0.
        254    2    1    2    0    0 -0.21105429817E+03  0.22617800041E+03 -0.27314321429E+04  0.28927577193E+04  0.90090247350E+03 0.  0.
         23    2    4    4    0    0 -0.44005628033E+03 -0.16309428395E+03 -0.11370841903E+04  0.12334472324E+04  0.90456309724E+02 0.  0.
         23    2    4    4    0    0  0.22900198216E+03  0.38927228435E+03 -0.15943479525E+04  0.16593104869E+04  0.85971383853E+02 0.  0.
          2    1    3    3  502    0  0.10576498172E+03 -0.10812681862E+03 -0.86273953129E+03  0.87589790450E+03  0.00000000000E+00 0. -1.
         -1    1    3    3    0  502  0.10528931644E+03 -0.11805118178E+03 -0.52675428866E+03  0.54999272931E+03  0.00000000000E+00 0.  1.
         11    1    5    5    0    0  0.35460273368E+01 -0.66679734790E+01 -0.16658577095E+02  0.18290554148E+02  0.00000000000E+00 0.  1.
        -11    1    5    5    0    0 -0.44360230767E+03 -0.15642631047E+03 -0.11204256133E+04  0.12151566783E+04  0.00000000000E+00 0. -1.
          4    1    6    6  503    0  0.14613471505E+03  0.31340639899E+03 -0.11411125131E+04  0.11923576198E+04  0.00000000000E+00 0. -1.
         -4    1    6    6    0  503  0.82867267115E+02  0.75865885358E+02 -0.45323543941E+03  0.46695286706E+03  0.00000000000E+00 0.  1.
<mgrwt>
<rscale>  0 0.12917789E+04</rscale>
<asrwt>0</asrwt>
<pdfrwt beam="1">  1        2 0.64919786E+00 0.12917789E+04</pdfrwt>
<pdfrwt beam="2">  1       -1 0.15209419E-01 0.12917789E+04</pdfrwt>
<totfact> 0.83613268E+00</totfact>
</mgrwt>
</event>
<event>
12    6  0.1542110E-007  0.2539110E+04  0.7818608E-02  0.8389183E-01
          2   -1    0    0  501    0  0.00000000000E+00  0.00000000000E+00  0.19824748548E+04  0.19824748548E+04  0.00000000000E+00 0. -1.
         -1   -1    0    0    0  501 -0.00000000000E+00 -0.00000000000E+00 -0.81300898736E+03  0.81300898736E+03  0.00000000000E+00 0.  1.
         24    2    1    2    0    0  0.39864617529E+03  0.86710410528E+03 -0.80291470384E+02  0.96102649111E+03  0.79604610016E+02 0.  0.
        254    2    1    2    0    0 -0.39864617529E+03 -0.86710410528E+03  0.12497573378E+04  0.18344573510E+04  0.94474973770E+03 0.  0.
         23    2    4    4    0    0 -0.21510534666E+03 -0.81886084798E+03  0.36771845466E+03  0.92770135881E+03  0.92787664695E+02 0.  0.
         23    2    4    4    0    0 -0.18354082863E+03 -0.48243257296E+02  0.88203888316E+03  0.90675599223E+03  0.90549380958E+02 0.  0.
          2    1    3    3  502    0  0.33192014412E+02  0.33405818473E+02  0.11896585958E+01  0.47107046353E+02  0.00000000000E+00 0. -1.
         -1    1    3    3    0  502  0.36545416088E+03  0.83369828681E+03 -0.81481128979E+02  0.91391944476E+03  0.00000000000E+00 0.  1.
         11    1    5    5    0    0 -0.33415334190E+02 -0.48583886517E+02  0.39220081267E+02  0.70818029926E+02  0.00000000000E+00 0. -1.
        -11    1    5    5    0    0 -0.18169001247E+03 -0.77027696147E+03  0.32849837340E+03  0.85688332889E+03  0.00000000000E+00 0.  1.
          4    1    6    6  503    0  0.86602134043E+00  0.97320296714E+01  0.12662692637E+03  0.12700331050E+03  0.00000000000E+00 0. -1.
         -4    1    6    6    0  503 -0.18440684997E+03 -0.57975286968E+02  0.75541195679E+03  0.77975268174E+03  0.00000000000E+00 0.  1.
<mgrwt>
<rscale>  0 0.25391100E+04</rscale>
<asrwt>0</asrwt>
<pdfrwt beam="1">  1        2 0.30499613E+00 0.25391100E+04</pdfrwt>
<pdfrwt beam="2">  1       -1 0.12507831E+00 0.25391100E+04</pdfrwt>
<totfact> 0.38620099E+00</totfact>
</mgrwt>
</event>
<event>
12    6  0.1542110E-007  0.1533559E+04  0.7818608E-02  0.8862438E-01
         -1   -1    0    0    0  501 -0.00000000000E+00  0.00000000000E+00  0.15079510259E+03  0.15079510259E+03  0.00000000000E+00 0.  1.
          2   -1    0    0  501    0  0.00000000000E+00 -0.00000000000E+00 -0.38990070956E+04  0.38990070956E+04  0.00000000000E+00 0. -1.
         24    2    1    2    0    0 -0.34442861785E+03 -0.18874047867E+03 -0.51300112646E+03  0.65097411804E+03  0.79643615698E+02 0.  0.
        254    2    1    2    0    0  0.34442861785E+03  0.18874047867E+03 -0.32352108666E+04  0.33988280802E+04  0.96498130882E+03 0.  0.
         23    2    4    4    0    0 -0.19856355667E+03  0.16319606147E+03 -0.27476145529E+03  0.38749197650E+03  0.92713181534E+02 0.  0.
         23    2    4    4    0    0  0.54299217452E+03  0.25544417201E+02 -0.29604494113E+04  0.30113361037E+04  0.91604550634E+02 0.  0.
          2    1    3    3  502    0 -0.28156481612E+03 -0.14800537116E+03 -0.45975622352E+03  0.55907076532E+03  0.00000000000E+00 0. -1.
         -1    1    3    3    0  502 -0.62863801731E+02 -0.40735107505E+02 -0.53244902941E+02  0.91903352717E+02  0.00000000000E+00 0.  1.
         11    1    5    5    0    0 -0.19937083246E+03  0.13767744220E+03 -0.22084420068E+03  0.32783527556E+03  0.00000000000E+00 0. -1.
        -11    1    5    5    0    0  0.80727579259E+00  0.25518619263E+02 -0.53917254610E+02  0.59656700948E+02  0.00000000000E+00 0.  1.
          3    1    6    6  503    0  0.28951437174E+03  0.12291993316E+02 -0.18249840217E+04  0.18478464071E+04  0.00000000000E+00 0. -1.
         -3    1    6    6    0  503  0.25347780278E+03  0.13252423885E+02 -0.11354653896E+04  0.11634896966E+04  0.00000000000E+00 0.  1.
<mgrwt>
<rscale>  0 0.15335595E+04</rscale>
<asrwt>0</asrwt>
<pdfrwt beam="1">  1        2 0.59984723E+00 0.15335595E+04</pdfrwt>
<pdfrwt beam="2">  1       -1 0.23199247E-01 0.15335595E+04</pdfrwt>
<totfact> 0.73420931E+00</totfact>
</mgrwt>
</event>
<event>
12    6  0.1542110E-007  0.2646529E+04  0.7818608E-02  0.8352566E-01
          2   -1    0    0  501    0  0.00000000000E+00  0.00000000000E+00  0.30808564162E+04  0.30808564162E+04  0.00000000000E+00 0. -1.
         -1   -1    0    0    0  501 -0.00000000000E+00 -0.00000000000E+00 -0.56835806665E+03  0.56835806665E+03  0.00000000000E+00 0.  1.
         24    2    1    2    0    0  0.11451557987E+04 -0.19400823313E+03  0.10898548477E+04  0.15948775807E+04  0.82643272205E+02 0.  0.
        254    2    1    2    0    0 -0.11451557987E+04  0.19400823313E+03  0.14226435019E+04  0.20543369022E+04  0.92052407712E+03 0.  0.
         23    2    4    4    0    0 -0.76679053349E+03 -0.47749464350E+02  0.27906747614E+03  0.82235504298E+03  0.90229855790E+02 0.  0.
         23    2    4    4    0    0 -0.37836526520E+03  0.24175769748E+03  0.11435760257E+04  0.12319818592E+04  0.91684876857E+02 0.  0.
          4    1    3    3  502    0  0.17521825799E+02  0.69789766185E+01  0.14614935741E+02  0.23860361286E+02  0.00000000000E+00 0. -1.
         -3    1    3    3    0  502  0.11276339729E+04 -0.20098720975E+03  0.10752399120E+04  0.15710172194E+04  0.00000000000E+00 0.  1.
         11    1    5    5    0    0 -0.45234002544E+03 -0.52964567492E+02  0.12570380964E+03  0.47245972503E+03  0.00000000000E+00 0. -1.
        -11    1    5    5    0    0 -0.31445050805E+03  0.52151031419E+01  0.15336366650E+03  0.34989531794E+03  0.00000000000E+00 0.  1.
          4    1    6    6  503    0 -0.28034186054E+03  0.20991987506E+03  0.95310028838E+03  0.10154102976E+04  0.00000000000E+00 0.  1.
         -4    1    6    6    0  503 -0.98023404660E+02  0.31837822423E+02  0.19047573736E+03  0.21657156166E+03  0.00000000000E+00 0. -1.
<mgrwt>
<rscale>  0 0.26465295E+04</rscale>
<asrwt>0</asrwt>
<pdfrwt beam="1">  1        2 0.47397790E+00 0.26465295E+04</pdfrwt>
<pdfrwt beam="2">  1       -1 0.87439704E-01 0.26465295E+04</pdfrwt>
<totfact> 0.19955433E+00</totfact>
</mgrwt>
</event>
<event>
12    6  0.1542110E-007  0.1713012E+04  0.7818608E-02  0.8753978E-01
         -1   -1    0    0    0  501 -0.00000000000E+00  0.00000000000E+00  0.18288857248E+03  0.18288857248E+03  0.00000000000E+00 0.  1.
          2   -1    0    0  501    0  0.00000000000E+00 -0.00000000000E+00 -0.40112009336E+04  0.40112009336E+04  0.00000000000E+00 0. -1.
         24    2    1    2    0    0  0.38412035586E+03 -0.17108934875E+03 -0.28514175611E+03  0.51441281142E+03  0.80589741486E+02 0.  0.
        254    2    1    2    0    0 -0.38412035586E+03  0.17108934875E+03 -0.35431706051E+04  0.36796766947E+04  0.89952355609E+03 0.  0.
         23    2    4    4    0    0 -0.28230192051E+03  0.45072762056E+03 -0.11951834036E+04  0.13111863168E+04  0.88861841189E+02 0.  0.
         23    2    4    4    0    0 -0.10181843535E+03 -0.27963827181E+03 -0.23479872014E+04  0.23684903779E+04  0.90212057200E+02 0.  0.
          4    1    3    3  502    0  0.28368521142E+02 -0.25969743114E+02 -0.53106200586E+02  0.65570336966E+02  0.00000000000E+00 0. -1.
         -3    1    3    3    0  502  0.35575183472E+03 -0.14511960564E+03 -0.23203555552E+03  0.44884247445E+03  0.00000000000E+00 0.  1.
         11    1    5    5    0    0 -0.19500256691E+03  0.25096387300E+03 -0.77958022317E+03  0.84187540112E+03  0.00000000000E+00 0. -1.
        -11    1    5    5    0    0 -0.87299353601E+02  0.19976374756E+03 -0.41560318045E+03  0.46931091568E+03  0.00000000000E+00 0.  1.
          1    1    6    6  503    0 -0.74557210796E+02 -0.27199058909E+03 -0.21735316352E+04  0.21917521365E+04  0.00000000000E+00 0. -1.
         -1    1    6    6    0  503 -0.27261224555E+02 -0.76476827231E+01 -0.17445556618E+03  0.17673824144E+03  0.00000000000E+00 0.  1.
<mgrwt>
<rscale>  0 0.17130123E+04</rscale>
<asrwt>0</asrwt>
<pdfrwt beam="1">  1        2 0.61710785E+00 0.17130123E+04</pdfrwt>
<pdfrwt beam="2">  1       -1 0.28136703E-01 0.17130123E+04</pdfrwt>
<totfact> 0.42107612E+00</totfact>
</mgrwt>
</event>
<event>
12    6  0.1542110E-007  0.2703881E+04  0.7818608E-02  0.8333747E-01
          2   -1    0    0  501    0  0.00000000000E+00  0.00000000000E+00  0.97970279419E+03  0.97970279419E+03  0.00000000000E+00 0. -1.
         -1   -1    0    0    0  501 -0.00000000000E+00 -0.00000000000E+00 -0.18656103473E+04  0.18656103473E+04  0.00000000000E+00 0.  1.
         24    2    1    2    0    0  0.21109391154E+03  0.13577599901E+03  0.84164282688E+03  0.88176814313E+03  0.78464315447E+02 0.  0.
        254    2    1    2    0    0 -0.21109391154E+03 -0.13577599901E+03 -0.17275503800E+04  0.19635449984E+04  0.89893430449E+03 0.  0.
         23    2    4    4    0    0  0.18424667643E+03  0.97009540120E+02 -0.65107423855E+02  0.23646201777E+03  0.91200989881E+02 0.  0.
         23    2    4    4    0    0 -0.39534058798E+03 -0.23278553913E+03 -0.16624429561E+04  0.17270829806E+04  0.92821073689E+02 0.  0.
          4    1    3    3  502    0  0.16984006983E+03  0.14087454555E+03  0.68241591882E+03  0.71720483348E+03  0.00000000000E+00 0. -1.
         -1    1    3    3    0  502  0.41253841708E+02 -0.50985465391E+01  0.15922690806E+03  0.16456330965E+03  0.00000000000E+00 0.  1.
         11    1    5    5    0    0  0.43301917807E+02 -0.12391798958E+02 -0.31347442156E+02  0.54875084482E+02  0.00000000000E+00 0.  1.
        -11    1    5    5    0    0  0.14094475863E+03  0.10940133908E+03 -0.33759981699E+02  0.18158693329E+03  0.00000000000E+00 0. -1.
          4    1    6    6  503    0 -0.36031556211E+03 -0.22575574980E+03 -0.15957275180E+04  0.16514052424E+04  0.00000000000E+00 0. -1.
         -4    1    6    6    0  503 -0.35025025867E+02 -0.70297893323E+01 -0.66715438129E+02  0.75677738205E+02  0.00000000000E+00 0.  1.
<mgrwt>
<rscale>  0 0.27038814E+04</rscale>
<asrwt>0</asrwt>
<pdfrwt beam="1">  1        2 0.15072351E+00 0.27038814E+04</pdfrwt>
<pdfrwt beam="2">  1       -1 0.28701697E+00 0.27038814E+04</pdfrwt>
<totfact> 0.10403549E+00</totfact>
</mgrwt>
</event>
<event>
12    6  0.1542110E-007  0.2954134E+04  0.7818608E-02  0.8256951E-01
         -1   -1    0    0    0  501 -0.00000000000E+00  0.00000000000E+00  0.77202495602E+03  0.77202495602E+03  0.00000000000E+00 0.  1.
          2   -1    0    0  501    0  0.00000000000E+00 -0.00000000000E+00 -0.28259789684E+04  0.28259789684E+04  0.00000000000E+00 0. -1.
         24    2    1    2    0    0  0.89648854842E+03 -0.90317697635E+03 -0.42407411135E+03  0.13436592529E+04  0.78491834130E+02 0.  0.
        254    2    1    2    0    0 -0.89648854842E+03  0.90317697635E+03 -0.16298799010E+04  0.22543446715E+04  0.89785357270E+03 0.  0.
         23    2    4    4    0    0 -0.52750748194E+03  0.68646031494E+03 -0.41911459469E+03  0.96668402367E+03  0.96587010769E+02 0.  0.
         23    2    4    4    0    0 -0.36898106649E+03  0.21671666141E+03 -0.12107653063E+04  0.12876606478E+04  0.94890348109E+02 0.  0.
          4    1    3    3  502    0  0.72875713690E+03 -0.73198433933E+03 -0.37604579105E+03  0.10992263073E+04  0.00000000000E+00 0. -1.
         -3    1    3    3    0  502  0.16773141152E+03 -0.17119263702E+03 -0.48028320297E+02  0.24443294567E+03  0.00000000000E+00 0.  1.
         11    1    5    5    0    0 -0.26706414904E+03  0.42583805259E+03 -0.24185135982E+03  0.55781124673E+03  0.00000000000E+00 0.  1.
        -11    1    5    5    0    0 -0.26044333290E+03  0.26062226235E+03 -0.17726323487E+03  0.40887277694E+03  0.00000000000E+00 0. -1.
          1    1    6    6  503    0 -0.64616132497E+02  0.52223934302E+02 -0.35528978619E+03  0.36487452098E+03  0.00000000000E+00 0. -1.
         -1    1    6    6    0  503 -0.30436493399E+03  0.16449272711E+03 -0.85547552013E+03  0.92278612682E+03  0.00000000000E+00 0.  1.
<mgrwt>
<rscale>  0 0.29541336E+04</rscale>
<asrwt>0</asrwt>
<pdfrwt beam="1">  1        2 0.43476600E+00 0.29541336E+04</pdfrwt>
<pdfrwt beam="2">  1       -1 0.11877307E+00 0.29541336E+04</pdfrwt>
<totfact> 0.13817073E+00</totfact>
</mgrwt>
</event>
<event>
12    6  0.1542110E-007  0.1453160E+04  0.7818608E-02  0.8916213E-01
         -3   -1    0    0    0  501 -0.00000000000E+00  0.00000000000E+00  0.26403972488E+03  0.26403972488E+03  0.00000000000E+00 0.  1.
          2   -1    0    0  501    0  0.00000000000E+00 -0.00000000000E+00 -0.19993903319E+04  0.19993903319E+04  0.00000000000E+00 0. -1.
         24    2    1    2    0    0  0.29031458814E+03 -0.32304312906E+03 -0.39895090260E+03  0.59545615845E+03  0.82260504649E+02 0.  0.
        254    2    1    2    0    0 -0.29031458814E+03  0.32304312906E+03 -0.13363997044E+04  0.16679738983E+04  0.89862858413E+03 0.  0.
         23    2    4    4    0    0 -0.60386569206E+03  0.16837969632E+03 -0.90928297449E+03  0.11082300631E+04  0.91503272071E+02 0.  0.
         23    2    4    4    0    0  0.31355110392E+03  0.15466343274E+03 -0.42711672993E+03  0.55974383527E+03  0.93002085648E+02 0.  0.
          2    1    3    3  502    0  0.18562053601E+03 -0.23760422453E+03 -0.31662782596E+03  0.43722297638E+03  0.00000000000E+00 0. -1.
         -1    1    3    3    0  502  0.10469405214E+03 -0.85438904529E+02 -0.82323076647E+02  0.15823318207E+03  0.00000000000E+00 0.  1.
         11    1    5    5    0    0 -0.39635054221E+02  0.51541069982E+01 -0.26708205482E+02  0.48071099240E+02  0.00000000000E+00 0. -1.
        -11    1    5    5    0    0 -0.56423063784E+03  0.16322558932E+03 -0.88257476901E+03  0.10601589638E+04  0.00000000000E+00 0.  1.
          4    1    6    6  503    0  0.49121488689E+02  0.11803625991E+02 -0.11917855219E+03  0.12944409427E+03  0.00000000000E+00 0. -1.
         -4    1    6    6    0  503  0.26442961523E+03  0.14285980675E+03 -0.30793817774E+03  0.43029974100E+03  0.00000000000E+00 0.  1.
<mgrwt>
<rscale>  0 0.14531600E+04</rscale>
<asrwt>0</asrwt>
<pdfrwt beam="1">  1        2 0.30759851E+00 0.14531600E+04</pdfrwt>
<pdfrwt beam="2">  1       -3 0.40621496E-01 0.14531600E+04</pdfrwt>
<totfact> 0.25187248E+01</totfact>
</mgrwt>
</event>
<event>
12    6  0.1542110E-007  0.1951732E+04  0.7818608E-02  0.8629526E-01
          2   -1    0    0  501    0  0.00000000000E+00  0.00000000000E+00  0.11108022443E+04  0.11108022443E+04  0.00000000000E+00 0. -1.
         -1   -1    0    0    0  501 -0.00000000000E+00 -0.00000000000E+00 -0.85732118572E+03  0.85732118572E+03  0.00000000000E+00 0.  1.
         24    2    1    2    0    0 -0.30856930804E+03 -0.16761824719E+03  0.77931275703E+03  0.85849619659E+03  0.79852687027E+02 0.  0.
        254    2    1    2    0    0  0.30856930804E+03  0.16761824719E+03 -0.52583169843E+03  0.11096272334E+04  0.91184578053E+03 0.  0.
         23    2    4    4    0    0 -0.57873576018E+02  0.47095841976E+03 -0.33972322353E+03  0.59066742571E+03  0.91241192743E+02 0.  0.
         23    2    4    4    0    0  0.36644288406E+03 -0.30334017257E+03 -0.18610847491E+03  0.51895980773E+03  0.91582039899E+02 0.  0.
          2    1    3    3  502    0 -0.28441537318E+03 -0.15339377766E+03  0.64654540825E+03  0.72280199256E+03  0.00000000000E+00 0. -1.
         -1    1    3    3    0  502 -0.24153934865E+02 -0.14224469526E+02  0.13276734879E+03  0.13569420403E+03  0.00000000000E+00 0.  1.
         11    1    5    5    0    0 -0.33282515995E+02  0.16007573876E+03 -0.68126601024E+02  0.17712481977E+03  0.00000000000E+00 0. -1.
        -11    1    5    5    0    0 -0.24591060023E+02  0.31088268100E+03 -0.27159662250E+03  0.41354260594E+03  0.00000000000E+00 0.  1.
          2    1    6    6  503    0  0.44984827179E+02 -0.53477460622E+02  0.32021159103E+01  0.69955178630E+02  0.00000000000E+00 0. -1.
         -2    1    6    6    0  503  0.32145805688E+03 -0.24986271195E+03 -0.18931059082E+03  0.44900462910E+03  0.00000000000E+00 0.  1.
<mgrwt>
<rscale>  0 0.19517318E+04</rscale>
<asrwt>0</asrwt>
<pdfrwt beam="1">  1        2 0.17089265E+00 0.19517318E+04</pdfrwt>
<pdfrwt beam="2">  1       -1 0.13189557E+00 0.19517318E+04</pdfrwt>
<totfact> 0.11157018E+01</totfact>
</mgrwt>
</event>
<event>
12    6  0.1542110E-007  0.3653792E+04  0.7818608E-02  0.8078280E-01
         -1   -1    0    0    0  501 -0.00000000000E+00  0.00000000000E+00  0.16300264008E+04  0.16300264008E+04  0.00000000000E+00 0.  1.
          2   -1    0    0  501    0  0.00000000000E+00 -0.00000000000E+00 -0.20475432033E+04  0.20475432033E+04  0.00000000000E+00 0. -1.
         24    2    1    2    0    0  0.58532174900E+03 -0.90831973191E+03 -0.15385737866E+04  0.18817840205E+04  0.79091831519E+02 0.  0.
        254    2    1    2    0    0 -0.58532174900E+03  0.90831973191E+03  0.11210569841E+04  0.17957855836E+04  0.89466799164E+03 0.  0.
         23    2    4    4    0    0  0.75289571285E+02 -0.68603231576E+02 -0.35627388211E+02  0.14134879036E+03  0.91297572907E+02 0.  0.
         23    2    4    4    0    0 -0.66061132028E+03  0.97692296348E+03  0.11566843723E+04  0.16544367932E+04  0.91959623969E+02 0.  0.
          2    1    3    3  502    0  0.55953873740E+03 -0.83343137651E+03 -0.14117787256E+04  0.17322847999E+04  0.00000000000E+00 0. -1.
         -1    1    3    3    0  502  0.25783011596E+02 -0.74888355400E+02 -0.12679506096E+03  0.14949922055E+03  0.00000000000E+00 0.  1.
         11    1    5    5    0    0  0.11529052802E+01 -0.10315806255E+02  0.26471011257E+02  0.28433421994E+02  0.00000000000E+00 0.  1.
        -11    1    5    5    0    0  0.74136666005E+02 -0.58287425321E+02 -0.62098399469E+02  0.11291536837E+03  0.00000000000E+00 0. -1.
          1    1    6    6  503    0 -0.20722079661E+03  0.38152134206E+03  0.44431293638E+03  0.62121894565E+03  0.00000000000E+00 0. -1.
         -1    1    6    6    0  503 -0.45339052367E+03  0.59540162143E+03  0.71237143594E+03  0.10332178475E+04  0.00000000000E+00 0.  1.
<mgrwt>
<rscale>  0 0.36537923E+04</rscale>
<asrwt>0</asrwt>
<pdfrwt beam="1">  1        2 0.31500664E+00 0.36537923E+04</pdfrwt>
<pdfrwt beam="2">  1       -1 0.25077329E+00 0.36537923E+04</pdfrwt>
<totfact> 0.39981765E-01</totfact>
</mgrwt>
</event>
<event>
12    6  0.1542110E-007  0.1985403E+04  0.7818608E-02  0.8613476E-01
         -1   -1    0    0    0  501 -0.00000000000E+00  0.00000000000E+00  0.10394447075E+04  0.10394447075E+04  0.00000000000E+00 0.  1.
          2   -1    0    0  501    0  0.00000000000E+00 -0.00000000000E+00 -0.94806054959E+03  0.94806054959E+03  0.00000000000E+00 0. -1.
         24    2    1    2    0    0  0.60399239904E+03  0.38583926965E+03  0.29694990436E+03  0.78031055132E+03  0.83824523176E+02 0.  0.
        254    2    1    2    0    0 -0.60399239904E+03 -0.38583926965E+03 -0.20556574645E+03  0.12071947058E+04  0.94941193453E+03 0.  0.
         23    2    4    4    0    0 -0.54410688575E+03 -0.21313482379E+02  0.25644317826E+03  0.60927767185E+03  0.94602378883E+02 0.  0.
         23    2    4    4    0    0 -0.59885513292E+02 -0.36452578727E+03 -0.46200892471E+03  0.59791703392E+03  0.87104584557E+02 0.  0.
          4    1    3    3  502    0  0.33895904564E+03  0.21014607966E+03  0.12033772568E+03  0.41657625669E+03  0.00000000000E+00 0. -1.
         -3    1    3    3    0  502  0.26503335340E+03  0.17569318999E+03  0.17661217869E+03  0.36373429462E+03  0.00000000000E+00 0.  1.
         11    1    5    5    0    0 -0.44627726848E+03 -0.29994306957E+02  0.24610765076E+03  0.51052133606E+03  0.00000000000E+00 0.  1.
        -11    1    5    5    0    0 -0.97829617267E+02  0.86808245776E+01  0.10335527505E+02  0.98756335791E+02  0.00000000000E+00 0. -1.
          4    1    6    6  503    0 -0.58959079603E+02 -0.21146655521E+03 -0.21465635091E+03  0.30703684799E+03  0.00000000000E+00 0. -1.
         -4    1    6    6    0  503 -0.92643368862E+00 -0.15305923206E+03 -0.24735257380E+03  0.29088018593E+03  0.00000000000E+00 0.  1.
<mgrwt>
<rscale>  0 0.19854033E+04</rscale>
<asrwt>0</asrwt>
<pdfrwt beam="1">  1        2 0.14585547E+00 0.19854033E+04</pdfrwt>
<pdfrwt beam="2">  1       -1 0.15991457E+00 0.19854033E+04</pdfrwt>
<totfact> 0.84573851E+00</totfact>
</mgrwt>
</event>
<event>
12    6  0.1542110E-007  0.1942696E+04  0.7818608E-02  0.8633891E-01
         -1   -1    0    0    0  501 -0.00000000000E+00  0.00000000000E+00  0.51959186067E+03  0.51959186067E+03  0.00000000000E+00 0.  1.
          2   -1    0    0  501    0  0.00000000000E+00 -0.00000000000E+00 -0.18158801727E+04  0.18158801727E+04  0.00000000000E+00 0. -1.
         24    2    1    2    0    0 -0.23219342673E+03 -0.71377759939E+03 -0.63596929641E+03  0.98704118829E+03  0.80006953402E+02 0.  0.
        254    2    1    2    0    0  0.23219342673E+03  0.71377759939E+03 -0.66031901558E+03  0.13484308450E+04  0.90490457659E+03 0.  0.
         23    2    4    4    0    0 -0.21526395739E+03 -0.17764862974E+02 -0.36837770195E+03  0.43674560765E+03  0.91599305693E+02 0.  0.
         23    2    4    4    0    0  0.44745738412E+03  0.73154246236E+03 -0.29194131363E+03  0.91168523739E+03  0.10279959453E+03 0.  0.
          2    1    3    3  502    0 -0.15266478342E+02 -0.98711691387E+02 -0.57416214548E+02  0.11521147977E+03  0.00000000000E+00 0. -1.
         -1    1    3    3    0  502 -0.21692694839E+03 -0.61506590800E+03 -0.57855308186E+03  0.87182970852E+03  0.00000000000E+00 0.  1.
         11    1    5    5    0    0 -0.89211163270E+02  0.22277415470E+02 -0.21730264820E+03  0.23595625825E+03  0.00000000000E+00 0.  1.
        -11    1    5    5    0    0 -0.12605279412E+03 -0.40042278444E+02 -0.15107505374E+03  0.20078934940E+03  0.00000000000E+00 0. -1.
          4    1    6    6  503    0  0.25770831276E+03  0.40327765084E+03 -0.10968821514E+03  0.49099688662E+03  0.00000000000E+00 0. -1.
         -4    1    6    6    0  503  0.18974907136E+03  0.32826481152E+03 -0.18225309849E+03  0.42068835077E+03  0.00000000000E+00 0.  1.
<mgrwt>
<rscale>  0 0.19426956E+04</rscale>
<asrwt>0</asrwt>
<pdfrwt beam="1">  1        2 0.27936618E+00 0.19426956E+04</pdfrwt>
<pdfrwt beam="2">  1       -1 0.79937211E-01 0.19426956E+04</pdfrwt>
<totfact> 0.14042389E+01</totfact>
</mgrwt>
</event>
<event>
12    6  0.1542110E-007  0.3506985E+04  0.7818608E-02  0.8112137E-01
         -1   -1    0    0    0  501 -0.00000000000E+00  0.00000000000E+00  0.82580603875E+03  0.82580603875E+03  0.00000000000E+00 0.  1.
          2   -1    0    0  501    0  0.00000000000E+00 -0.00000000000E+00 -0.37233140618E+04  0.37233140618E+04  0.00000000000E+00 0. -1.
         24    2    1    2    0    0  0.60391376861E+03 -0.14181068557E+04 -0.20683045828E+04  0.25807432924E+04  0.81321583173E+02 0.  0.
        254    2    1    2    0    0 -0.60391376861E+03  0.14181068557E+04 -0.82920344017E+03  0.19683768081E+04  0.90066087935E+03 0.  0.
         23    2    4    4    0    0 -0.61691250698E+03  0.10752173596E+04 -0.98005366783E+03  0.15828484296E+04  0.90722365231E+02 0.  0.
         23    2    4    4    0    0  0.12998738371E+02  0.34288949600E+03  0.15085022766E+03  0.38552837850E+03  0.90189610135E+02 0.  0.
          2    1    3    3  502    0  0.37632565324E+03 -0.91641207282E+03 -0.12668983649E+04  0.16082485976E+04  0.00000000000E+00 0. -1.
         -1    1    3    3    0  502  0.22758811536E+03 -0.50169478283E+03 -0.80140621790E+03  0.97249469482E+03  0.00000000000E+00 0.  1.
         11    1    5    5    0    0 -0.43336825143E+03  0.82158669775E+03 -0.76001468142E+03  0.12001812610E+04  0.00000000000E+00 0.  1.
        -11    1    5    5    0    0 -0.18354425555E+03  0.25363066190E+03 -0.22003898640E+03  0.38266716862E+03  0.00000000000E+00 0. -1.
          1    1    6    6  503    0 -0.20984518180E+02  0.43894903642E+02 -0.57666218933E+00  0.48656398431E+02  0.00000000000E+00 0. -1.
         -1    1    6    6    0  503  0.33983256551E+02  0.29899459236E+03  0.15142688985E+03  0.33687198007E+03  0.00000000000E+00 0.  1.
<mgrwt>
<rscale>  0 0.35069846E+04</rscale>
<asrwt>0</asrwt>
<pdfrwt beam="1">  1        2 0.57281755E+00 0.35069846E+04</pdfrwt>
<pdfrwt beam="2">  1       -1 0.12704708E+00 0.35069846E+04</pdfrwt>
<totfact> 0.28037413E-01</totfact>
</mgrwt>
</event>
<event>
12    6  0.1542110E-007  0.1874414E+04  0.7818608E-02  0.8667698E-01
          2   -1    0    0  501    0  0.00000000000E+00  0.00000000000E+00  0.19630156447E+04  0.19630156447E+04  0.00000000000E+00 0. -1.
         -1   -1    0    0    0  501 -0.00000000000E+00 -0.00000000000E+00 -0.44745308008E+03  0.44745308008E+03  0.00000000000E+00 0.  1.
         24    2    1    2    0    0  0.50799624824E+03  0.28063445690E+03  0.41869739718E+02  0.58691470733E+03  0.76810884298E+02 0.  0.
        254    2    1    2    0    0 -0.50799624824E+03 -0.28063445690E+03  0.14736928249E+04  0.18235540174E+04  0.90374931577E+03 0.  0.
         23    2    4    4    0    0  0.10170921064E+03  0.11154474504E+03  0.83413651521E+03  0.85258270837E+03  0.91249958591E+02 0.  0.
         23    2    4    4    0    0 -0.60970545888E+03 -0.39217920195E+03  0.63955630967E+03  0.97097130906E+03  0.90596560346E+02 0.  0.
          4    1    3    3  502    0  0.65794002109E+02  0.40037701835E+02 -0.20362157915E+02  0.79664833877E+02  0.00000000000E+00 0. -1.
         -3    1    3    3    0  502  0.44220224613E+03  0.24059675507E+03  0.62231897634E+02  0.50724987345E+03  0.00000000000E+00 0.  1.
         11    1    5    5    0    0  0.82421538437E+01  0.46330766826E+02  0.11164233110E+03  0.12115479004E+03  0.00000000000E+00 0. -1.
        -11    1    5    5    0    0  0.93467056794E+02  0.65213978218E+02  0.72249418410E+03  0.73142791834E+03  0.00000000000E+00 0.  1.
          3    1    6    6  503    0 -0.19586868942E+03 -0.15567313999E+03  0.26778525200E+03  0.36648002838E+03  0.00000000000E+00 0. -1.
         -3    1    6    6    0  503 -0.41383676946E+03 -0.23650606196E+03  0.37177105767E+03  0.60449128068E+03  0.00000000000E+00 0.  1.
<mgrwt>
<rscale>  0 0.18744145E+04</rscale>
<asrwt>0</asrwt>
<pdfrwt beam="1">  1        2 0.30200240E+00 0.18744145E+04</pdfrwt>
<pdfrwt beam="2">  1       -1 0.68838936E-01 0.18744145E+04</pdfrwt>
<totfact> 0.15985671E+01</totfact>
</mgrwt>
</event>
<event>
12    6  0.1542110E-007  0.2825899E+04  0.7818608E-02  0.8295273E-01
          2   -1    0    0  501    0  0.00000000000E+00  0.00000000000E+00  0.12045247248E+04  0.12045247248E+04  0.00000000000E+00 0. -1.
         -1   -1    0    0    0  501 -0.00000000000E+00 -0.00000000000E+00 -0.16574390086E+04  0.16574390086E+04  0.00000000000E+00 0.  1.
         24    2    1    2    0    0 -0.16804162274E+03  0.11983447839E+04  0.19235385125E+03  0.12278016000E+04  0.78921206554E+02 0.  0.
        254    2    1    2    0    0  0.16804162274E+03 -0.11983447839E+04 -0.64526813503E+03  0.16341621335E+04  0.88873320200E+03 0.  0.
         23    2    4    4    0    0  0.38647434997E+03 -0.15774734479E+03 -0.25576612002E+03  0.49813191103E+03  0.92045883488E+02 0.  0.
         23    2    4    4    0    0 -0.21843272723E+03 -0.10405974391E+04 -0.38950201501E+03  0.11360302224E+04  0.91087650202E+02 0.  0.
          2    1    3    3  502    0 -0.17361336153E+03  0.11172206552E+04  0.18977202063E+03  0.11464453810E+04  0.00000000000E+00 0. -1.
         -3    1    3    3    0  502  0.55717387915E+01  0.81124128642E+02  0.25818306172E+01  0.81356219003E+02  0.00000000000E+00 0.  1.
         11    1    5    5    0    0  0.38030522805E+03 -0.14602132049E+03 -0.22673973796E+03  0.46622441086E+03  0.00000000000E+00 0.  1.
        -11    1    5    5    0    0  0.61691219193E+01 -0.11726024303E+02 -0.29026382064E+02  0.31907500168E+02  0.00000000000E+00 0. -1.
          4    1    6    6  503    0 -0.19530705975E+03 -0.90966832220E+03 -0.30786393415E+03  0.98001097237E+03  0.00000000000E+00 0.  1.
         -4    1    6    6    0  503 -0.23125667481E+02 -0.13092911689E+03 -0.81638080857E+02  0.15601925007E+03  0.00000000000E+00 0. -1.
<mgrwt>
<rscale>  0 0.28258990E+04</rscale>
<asrwt>0</asrwt>
<pdfrwt beam="1">  1        2 0.18531150E+00 0.28258990E+04</pdfrwt>
<pdfrwt beam="2">  1       -1 0.25499062E+00 0.28258990E+04</pdfrwt>
<totfact> 0.12044686E+00</totfact>
</mgrwt>
</event>
<event>
12    6  0.1542110E-007  0.1043415E+04  0.7818608E-02  0.9262169E-01
          2   -1    0    0  501    0  0.00000000000E+00  0.00000000000E+00  0.33900756662E+03  0.33900756662E+03  0.00000000000E+00 0. -1.
         -1   -1    0    0    0  501 -0.00000000000E+00 -0.00000000000E+00 -0.80286952183E+03  0.80286952183E+03  0.00000000000E+00 0.  1.
         24    2    1    2    0    0 -0.67201633874E+02  0.24205614069E+02 -0.76062429661E+02  0.14883902291E+03  0.10613948458E+03 0.  0.
        254    2    1    2    0    0  0.67201633874E+02 -0.24205614069E+02 -0.38779952555E+03  0.99303806554E+03  0.91139132992E+03 0.  0.
         23    2    4    4    0    0  0.41282104819E+02 -0.45585013271E+03 -0.14319070794E+03  0.48796971261E+03  0.90040579267E+02 0.  0.
         23    2    4    4    0    0  0.25919529055E+02  0.43164451864E+03 -0.24460881761E+03  0.50506835294E+03  0.90949189286E+02 0.  0.
          4    1    3    3  502    0 -0.39810034457E+01 -0.35354815670E+02 -0.43218042427E+02  0.55978661744E+02  0.00000000000E+00 0. -1.
         -3    1    3    3    0  502 -0.63220630428E+02  0.59560429739E+02 -0.32844387234E+02  0.92860361163E+02  0.00000000000E+00 0.  1.
         11    1    5    5    0    0  0.25361815166E+01 -0.19016834602E+01  0.74629724938E+01  0.81083028503E+01  0.00000000000E+00 0. -1.
        -11    1    5    5    0    0  0.38745923303E+02 -0.45394844925E+03 -0.15065368044E+03  0.47986140976E+03  0.00000000000E+00 0.  1.
          1    1    6    6  503    0 -0.23112154729E+02  0.79606062375E+02 -0.22319303787E+02  0.85845490182E+02  0.00000000000E+00 0. -1.
         -1    1    6    6    0  503  0.49031683784E+02  0.35203845626E+03 -0.22228951382E+03  0.41922286276E+03  0.00000000000E+00 0.  1.
<mgrwt>
<rscale>  0 0.10434152E+04</rscale>
<asrwt>0</asrwt>
<pdfrwt beam="1">  1        2 0.52155010E-01 0.10434152E+04</pdfrwt>
<pdfrwt beam="2">  1       -1 0.12351839E+00 0.10434152E+04</pdfrwt>
<totfact> 0.63014471E+01</totfact>
</mgrwt>
</event>
<event>
12    6  0.1542110E-007  0.1570115E+04  0.7818608E-02  0.8839121E-01
         -1   -1    0    0    0  501 -0.00000000000E+00  0.00000000000E+00  0.19330208395E+03  0.19330208395E+03  0.00000000000E+00 0.  1.
          2   -1    0    0  501    0  0.00000000000E+00 -0.00000000000E+00 -0.31883541585E+04  0.31883541585E+04  0.00000000000E+00 0. -1.
         24    2    1    2    0    0 -0.33856987087E+03 -0.75534302643E+02 -0.16704226735E+03  0.39366754205E+03  0.82073298012E+02 0.  0.
        254    2    1    2    0    0  0.33856987087E+03  0.75534302643E+02 -0.28280098072E+04  0.29879887004E+04  0.90005667365E+03 0.  0.
         23    2    4    4    0    0  0.40435041375E+03 -0.33781487351E+03 -0.15266511236E+04  0.16177512361E+04  0.94006716225E+02 0.  0.
         23    2    4    4    0    0 -0.65780542882E+02  0.41334917615E+03 -0.13013586836E+04  0.13702374644E+04  0.93976933796E+02 0.  0.
          4    1    3    3  502    0 -0.16409990826E+02  0.60102660769E+01 -0.28912455737E+02  0.33783741562E+02  0.00000000000E+00 0. -1.
         -3    1    3    3    0  502 -0.32215988005E+03 -0.81544568720E+02 -0.13812981161E+03  0.35988380049E+03  0.00000000000E+00 0.  1.
         11    1    5    5    0    0  0.30460347996E+03 -0.28863951467E+03 -0.12838943635E+04  0.13507334252E+04  0.00000000000E+00 0. -1.
        -11    1    5    5    0    0  0.99746933790E+02 -0.49175358836E+02 -0.24275676013E+03  0.26701781084E+03  0.00000000000E+00 0.  1.
          4    1    6    6  503    0  0.15563527745E+02  0.76407395805E+02 -0.17126867291E+03  0.18818414346E+03  0.00000000000E+00 0. -1.
         -4    1    6    6    0  503 -0.81344070627E+02  0.33694178035E+03 -0.11300900107E+04  0.11820533209E+04  0.00000000000E+00 0.  1.
<mgrwt>
<rscale>  0 0.15701153E+04</rscale>
<asrwt>0</asrwt>
<pdfrwt beam="1">  1        2 0.49051603E+00 0.15701153E+04</pdfrwt>
<pdfrwt beam="2">  1       -1 0.29738782E-01 0.15701153E+04</pdfrwt>
<totfact> 0.15091122E+01</totfact>
</mgrwt>
</event>
<event>
12    6  0.1542110E-007  0.2316656E+04  0.7818608E-02  0.8471383E-01
          2   -1    0    0  501    0  0.00000000000E+00  0.00000000000E+00  0.84111246712E+03  0.84111246712E+03  0.00000000000E+00 0. -1.
         -1   -1    0    0    0  501 -0.00000000000E+00 -0.00000000000E+00 -0.15951769571E+04  0.15951769571E+04  0.00000000000E+00 0.  1.
         24    2    1    2    0    0  0.56002483246E+03 -0.35193005833E+03  0.44334500878E+03  0.80026080477E+03  0.79874776534E+02 0.  0.
        254    2    1    2    0    0 -0.56002483246E+03  0.35193005833E+03 -0.11974094987E+04  0.16360286194E+04  0.89739487239E+03 0.  0.
         23    2    4    4    0    0 -0.46911013732E+03  0.38398361362E+03 -0.13197148847E+04  0.14552263985E+04  0.92351272605E+02 0.  0.
         23    2    4    4    0    0 -0.90914695138E+02 -0.32053555292E+02  0.12230538592E+03  0.18080222096E+03  0.91858170464E+02 0.  0.
          2    1    3    3  502    0  0.54211205560E+03 -0.35363882051E+03  0.43784982527E+03  0.78144632937E+03  0.00000000000E+00 0. -1.
         -1    1    3    3    0  502  0.17912776856E+02  0.17087621800E+01  0.54951835047E+01  0.18814475402E+02  0.00000000000E+00 0.  1.
         11    1    5    5    0    0 -0.10312155025E+03  0.61970484416E+02 -0.19090629976E+03  0.22565373994E+03  0.00000000000E+00 0.  1.
        -11    1    5    5    0    0 -0.36598858707E+03  0.32201312920E+03 -0.11288085849E+04  0.12295726585E+04  0.00000000000E+00 0. -1.
          3    1    6    6  503    0 -0.10444976474E+03 -0.16276464453E+02  0.11994765558E+03  0.15988157095E+03  0.00000000000E+00 0. -1.
         -3    1    6    6    0  503  0.13535069603E+02 -0.15777090839E+02  0.23577303316E+01  0.20920650009E+02  0.00000000000E+00 0.  1.
<mgrwt>
<rscale>  0 0.23166555E+04</rscale>
<asrwt>0</asrwt>
<pdfrwt beam="1">  1        2 0.12940192E+00 0.23166555E+04</pdfrwt>
<pdfrwt beam="2">  1       -1 0.24541183E+00 0.23166555E+04</pdfrwt>
<totfact> 0.24841251E+00</totfact>
</mgrwt>
</event>
<event>
12    6  0.1542110E-007  0.2568538E+04  0.7818608E-02  0.8378967E-01
          2   -1    0    0  501    0  0.00000000000E+00  0.00000000000E+00  0.12293892403E+04  0.12293892403E+04  0.00000000000E+00 0. -1.
         -1   -1    0    0    0  501 -0.00000000000E+00 -0.00000000000E+00 -0.13415983900E+04  0.13415983900E+04  0.00000000000E+00 0.  1.
         24    2    1    2    0    0 -0.16240879619E+03 -0.52284340660E+03 -0.10336288785E+04  0.11721702950E+04  0.76502922750E+02 0.  0.
        254    2    1    2    0    0  0.16240879619E+03  0.52284340660E+03  0.92141972877E+03  0.13988173353E+04  0.89885136485E+03 0.  0.
         23    2    4    4    0    0 -0.22022960894E+02  0.47345970612E+03  0.10470992981E+04  0.11530506752E+04  0.91977254881E+02 0.  0.
         23    2    4    4    0    0  0.18443175708E+03  0.49383700479E+02 -0.12567956932E+03  0.24576666009E+03  0.90288837495E+02 0.  0.
          2    1    3    3  502    0 -0.50293570675E+02 -0.17447550627E+03 -0.42212827256E+03  0.45952521588E+03  0.00000000000E+00 0. -1.
         -1    1    3    3    0  502 -0.11211522551E+03 -0.34836790033E+03 -0.61150060592E+03  0.71264507914E+03  0.00000000000E+00 0.  1.
         11    1    5    5    0    0 -0.22359950221E+02  0.47780534349E+03  0.10398897365E+04  0.11446259554E+04  0.00000000000E+00 0.  1.
        -11    1    5    5    0    0  0.33698932752E+00 -0.43456373709E+01  0.72095615991E+01  0.84247198421E+01  0.00000000000E+00 0. -1.
          1    1    6    6  503    0  0.38013129399E+02  0.33001162478E+02  0.26110802000E+01  0.50407266058E+02  0.00000000000E+00 0. -1.
         -1    1    6    6    0  503  0.14641862768E+03  0.16382538001E+02 -0.12829064952E+03  0.19535939404E+03  0.00000000000E+00 0.  1.
<mgrwt>
<rscale>  0 0.25685378E+04</rscale>
<asrwt>0</asrwt>
<pdfrwt beam="1">  1        2 0.18913681E+00 0.25685378E+04</pdfrwt>
<pdfrwt beam="2">  1       -1 0.20639975E+00 0.25685378E+04</pdfrwt>
<totfact> 0.25008311E+00</totfact>
</mgrwt>
</event>
<event>
12    6  0.1542110E-007  0.1900319E+04  0.7818608E-02  0.8654698E-01
         -1   -1    0    0    0  501 -0.00000000000E+00  0.00000000000E+00  0.30721127889E+03  0.30721127889E+03  0.00000000000E+00 0.  1.
          2   -1    0    0  501    0  0.00000000000E+00 -0.00000000000E+00 -0.29387045689E+04  0.29387045689E+04  0.00000000000E+00 0. -1.
         24    2    1    2    0    0 -0.36691547959E+03  0.47824215959E+03 -0.17079288885E+04  0.18129312822E+04  0.79725864938E+02 0.  0.
        254    2    1    2    0    0  0.36691547959E+03 -0.47824215959E+03 -0.92356440153E+03  0.14329845656E+04  0.91494864831E+03 0.  0.
         23    2    4    4    0    0 -0.11980686658E+03 -0.56897647991E+03 -0.44468142511E+03  0.73776026876E+03  0.91982195904E+02 0.  0.
         23    2    4    4    0    0  0.48672234618E+03  0.90734320313E+02 -0.47888297643E+03  0.69522429682E+03  0.94215490375E+02 0.  0.
          4    1    3    3  502    0 -0.17470884616E+03  0.16641276559E+03 -0.64472748125E+03  0.68839662591E+03  0.00000000000E+00 0. -1.
         -3    1    3    3    0  502 -0.19220663343E+03  0.31182939400E+03 -0.10632014072E+04  0.11245346563E+04  0.00000000000E+00 0.  1.
         11    1    5    5    0    0 -0.87657141661E+01 -0.22081105474E+02 -0.46490129780E+02  0.52208669115E+02  0.00000000000E+00 0.  1.
        -11    1    5    5    0    0 -0.11104115242E+03 -0.54689537443E+03 -0.39819129532E+03  0.68555159965E+03  0.00000000000E+00 0. -1.
          1    1    6    6  503    0  0.47428300695E+03  0.99232855426E+02 -0.44393735806E+03  0.65716961901E+03  0.00000000000E+00 0. -1.
         -1    1    6    6    0  503  0.12439339224E+02 -0.84985351125E+01 -0.34945618373E+02  0.38054677805E+02  0.00000000000E+00 0.  1.
<mgrwt>
<rscale>  0 0.19003191E+04</rscale>
<asrwt>0</asrwt>
<pdfrwt beam="1">  1        2 0.45210839E+00 0.19003191E+04</pdfrwt>
<pdfrwt beam="2">  1       -1 0.47263274E-01 0.19003191E+04</pdfrwt>
<totfact> 0.90780193E+00</totfact>
</mgrwt>
</event>
<event>
12    6  0.1542110E-007  0.4265193E+04  0.7818608E-02  0.7953086E-01
          2   -1    0    0  501    0  0.00000000000E+00  0.00000000000E+00  0.32820620417E+04  0.32820620417E+04  0.00000000000E+00 0. -1.
         -1   -1    0    0    0  501 -0.00000000000E+00 -0.00000000000E+00 -0.13857044320E+04  0.13857044320E+04  0.00000000000E+00 0.  1.
         24    2    1    2    0    0 -0.11717517904E+04 -0.13376434207E+04  0.19732495744E+04  0.26575458499E+04  0.80894266243E+02 0.  0.
        254    2    1    2    0    0  0.11717517904E+04  0.13376434207E+04 -0.76891964628E+02  0.20102206238E+04  0.93422823927E+03 0.  0.
         23    2    4    4    0    0  0.64388388268E+03  0.11143090315E+03 -0.11955463860E+03  0.67125034061E+03  0.96334872215E+02 0.  0.
         23    2    4    4    0    0  0.52786790774E+03  0.12262125175E+04  0.42662673975E+02  0.13389702832E+04  0.93699783616E+02 0.  0.
          2    1    3    3  502    0 -0.82286922323E+03 -0.89945157608E+03  0.13917061954E+04  0.18501278417E+04  0.00000000000E+00 0. -1.
         -1    1    3    3    0  502 -0.34888256719E+03 -0.43819184460E+03  0.58154337892E+03  0.80741800818E+03  0.00000000000E+00 0.  1.
         11    1    5    5    0    0  0.19425152385E+02  0.19022732390E+02  0.54608146272E+01  0.27731234901E+02  0.00000000000E+00 0.  1.
        -11    1    5    5    0    0  0.62445873029E+03  0.92408170757E+02 -0.12501545323E+03  0.64351910570E+03  0.00000000000E+00 0. -1.
          3    1    6    6  503    0  0.37887696762E+03  0.94944701196E+03  0.61385408609E+02  0.10240925512E+04  0.00000000000E+00 0. -1.
         -3    1    6    6    0  503  0.14899094012E+03  0.27676550558E+03 -0.18722734634E+02  0.31487773200E+03  0.00000000000E+00 0.  1.
<mgrwt>
<rscale>  0 0.42651930E+04</rscale>
<asrwt>0</asrwt>
<pdfrwt beam="1">  1        2 0.50493262E+00 0.42651930E+04</pdfrwt>
<pdfrwt beam="2">  1       -1 0.21318530E+00 0.42651930E+04</pdfrwt>
<totfact> 0.12263337E-01</totfact>
</mgrwt>
</event>
<event>
12    6  0.1542110E-007  0.1635333E+04  0.7818608E-02  0.8799131E-01
         -1   -1    0    0    0  501 -0.00000000000E+00  0.00000000000E+00  0.17337229681E+03  0.17337229681E+03  0.00000000000E+00 0.  1.
          2   -1    0    0  501    0  0.00000000000E+00 -0.00000000000E+00 -0.38563189439E+04  0.38563189439E+04  0.00000000000E+00 0. -1.
         24    2    1    2    0    0 -0.39562909042E+03 -0.10625265741E+03 -0.22238478997E+04  0.22625480120E+04  0.76236614915E+02 0.  0.
        254    2    1    2    0    0  0.39562909042E+03  0.10625265741E+03 -0.14590987475E+04  0.17671432287E+04  0.90885314082E+03 0.  0.
         23    2    4    4    0    0  0.64458840778E+03  0.19894392138E+03 -0.79631772665E+03  0.10473571174E+04  0.88102839023E+02 0.  0.
         23    2    4    4    0    0 -0.24895931736E+03 -0.92691263974E+02 -0.66278102080E+03  0.71978611133E+03  0.90779691651E+02 0.  0.
          4    1    3    3  502    0 -0.39347337788E+03 -0.11117376017E+03 -0.22128500577E+04  0.22503080415E+04  0.00000000000E+00 0. -1.
         -3    1    3    3    0  502 -0.21557125397E+01  0.49211027618E+01 -0.10997841974E+02  0.12239970467E+02  0.00000000000E+00 0.  1.
         11    1    5    5    0    0  0.34806882413E+02  0.30527511902E+02 -0.38632226782E+02  0.60298399584E+02  0.00000000000E+00 0. -1.
        -11    1    5    5    0    0  0.60978152537E+03  0.16841640948E+03 -0.75768549987E+03  0.98705871780E+03  0.00000000000E+00 0.  1.
          1    1    6    6  503    0 -0.41139854264E+02 -0.56318353769E+02 -0.16151348785E+03  0.17592854043E+03  0.00000000000E+00 0. -1.
         -1    1    6    6    0  503 -0.20781946310E+03 -0.36372910205E+02 -0.50126753295E+03  0.54385757090E+03  0.00000000000E+00 0.  1.
<mgrwt>
<rscale>  0 0.16353334E+04</rscale>
<asrwt>0</asrwt>
<pdfrwt beam="1">  1        2 0.59327981E+00 0.16353334E+04</pdfrwt>
<pdfrwt beam="2">  1       -1 0.26672662E-01 0.16353334E+04</pdfrwt>
<totfact> 0.61658427E+00</totfact>
</mgrwt>
</event>
<event>
12    6  0.1542110E-007  0.2475092E+04  0.7818608E-02  0.8411913E-01
          2   -1    0    0  501    0  0.00000000000E+00  0.00000000000E+00  0.15884114281E+04  0.15884114281E+04  0.00000000000E+00 0. -1.
         -1   -1    0    0    0  501 -0.00000000000E+00 -0.00000000000E+00 -0.96418325231E+03  0.96418325231E+03  0.00000000000E+00 0.  1.
         24    2    1    2    0    0  0.60332232941E+03 -0.29157622814E+03  0.11327525500E+04  0.13185233544E+04  0.79755667074E+02 0.  0.
        254    2    1    2    0    0 -0.60332232941E+03  0.29157622814E+03 -0.50852437419E+03  0.12340713261E+04  0.90295097805E+03 0.  0.
         23    2    4    4    0    0 -0.43916320261E+03  0.81942254050E+02  0.17962373950E+03  0.49027882203E+03  0.92356829825E+02 0.  0.
         23    2    4    4    0    0 -0.16415912680E+03  0.20963397409E+03 -0.68814811369E+03  0.74379250406E+03  0.93727481119E+02 0.  0.
          2    1    3    3  502    0  0.39063298597E+03 -0.18642903720E+03  0.65492199170E+03  0.78503040123E+03  0.00000000000E+00 0. -1.
         -1    1    3    3    0  502  0.21268934344E+03 -0.10514719094E+03  0.47783055833E+03  0.53349295314E+03  0.00000000000E+00 0.  1.
         11    1    5    5    0    0 -0.25869159594E+03  0.59979572359E+01  0.12265921041E+03  0.28636095963E+03  0.00000000000E+00 0.  1.
        -11    1    5    5    0    0 -0.18047160667E+03  0.75944296814E+02  0.56964529088E+02  0.20391786241E+03  0.00000000000E+00 0. -1.
          2    1    6    6  503    0 -0.50605773393E+02  0.57127179165E+02 -0.32543687654E+03  0.33426579172E+03  0.00000000000E+00 0. -1.
         -2    1    6    6    0  503 -0.11355335340E+03  0.15250679492E+03 -0.36271123715E+03  0.40952671234E+03  0.00000000000E+00 0.  1.
<mgrwt>
<rscale>  0 0.24750917E+04</rscale>
<asrwt>0</asrwt>
<pdfrwt beam="1">  1        2 0.24437099E+00 0.24750917E+04</pdfrwt>
<pdfrwt beam="2">  1       -1 0.14833589E+00 0.24750917E+04</pdfrwt>
<totfact> 0.41423736E+00</totfact>
</mgrwt>
</event>
<event>
12    6  0.1542110E-007  0.3406186E+04  0.7818608E-02  0.8136390E-01
          2   -1    0    0  501    0  0.00000000000E+00  0.00000000000E+00  0.42944996493E+04  0.42944996493E+04  0.00000000000E+00 0. -1.
         -1   -1    0    0    0  501 -0.00000000000E+00 -0.00000000000E+00 -0.67540498857E+03  0.67540498857E+03  0.00000000000E+00 0.  1.
         24    2    1    2    0    0  0.47808598405E+03 -0.14710008457E+04  0.11935959643E+04  0.19553822357E+04  0.80241294045E+02 0.  0.
        254    2    1    2    0    0 -0.47808598405E+03  0.14710008457E+04  0.24254986964E+04  0.30145224022E+04  0.90105032654E+03 0.  0.
         23    2    4    4    0    0  0.12729235866E+03  0.10895371011E+03  0.73198928222E+03  0.75676283455E+03  0.93847871258E+02 0.  0.
         23    2    4    4    0    0 -0.60537834270E+03  0.13620471356E+04  0.16935094142E+04  0.22577595677E+04  0.88593408618E+02 0.  0.
          2    1    3    3  502    0  0.92216373106E+02 -0.29246106732E+03  0.19732275826E+03  0.36465546245E+03  0.00000000000E+00 0. -1.
         -1    1    3    3    0  502  0.38586961094E+03 -0.11785397784E+04  0.99627320606E+03  0.15907267732E+04  0.00000000000E+00 0.  1.
         11    1    5    5    0    0  0.18477842773E+02 -0.16992423052E+02  0.78854748002E+02  0.82754120123E+02  0.00000000000E+00 0. -1.
        -11    1    5    5    0    0  0.10881451588E+03  0.12594613316E+03  0.65313453422E+03  0.67400871442E+03  0.00000000000E+00 0.  1.
          1    1    6    6  503    0 -0.42130315774E+03  0.95826563192E+03  0.12490744799E+04  0.16297105351E+04  0.00000000000E+00 0. -1.
         -1    1    6    6    0  503 -0.18407518497E+03  0.40378150368E+03  0.44443493428E+03  0.62804903252E+03  0.00000000000E+00 0.  1.
<mgrwt>
<rscale>  0 0.34061864E+04</rscale>
<asrwt>0</asrwt>
<pdfrwt beam="1">  1        2 0.66069224E+00 0.34061864E+04</pdfrwt>
<pdfrwt beam="2">  1       -1 0.10390846E+00 0.34061864E+04</pdfrwt>
<totfact> 0.15677256E-01</totfact>
</mgrwt>
</event>
<event>
12    6  0.1542110E-007  0.2645835E+04  0.7818608E-02  0.8352797E-01
         -1   -1    0    0    0  501 -0.00000000000E+00  0.00000000000E+00  0.69849009181E+03  0.69849009181E+03  0.00000000000E+00 0.  1.
          2   -1    0    0  501    0  0.00000000000E+00 -0.00000000000E+00 -0.25055621308E+04  0.25055621308E+04  0.00000000000E+00 0. -1.
         24    2    1    2    0    0  0.10922450766E+04  0.30706390021E+03 -0.46260384077E+03  0.12278187601E+04  0.79050919883E+02 0.  0.
        254    2    1    2    0    0 -0.10922450766E+04 -0.30706390021E+03 -0.13444681982E+04  0.19762334625E+04  0.90034238819E+03 0.  0.
         23    2    4    4    0    0 -0.82236197263E+03 -0.59433834118E+03 -0.11190735634E+04  0.15133739805E+04  0.91966770426E+02 0.  0.
         23    2    4    4    0    0 -0.26988310401E+03  0.28727444097E+03 -0.22539463479E+03  0.46285948192E+03  0.89848006923E+02 0.  0.
          2    1    3    3  502    0  0.67147283443E+03  0.18074990358E+03 -0.32398454932E+03  0.76714554240E+03  0.00000000000E+00 0. -1.
         -1    1    3    3    0  502  0.42077224221E+03  0.12631399663E+03 -0.13861929145E+03  0.46067321771E+03  0.00000000000E+00 0.  1.
         11    1    5    5    0    0 -0.28724257241E+03 -0.15619021577E+03 -0.37458110573E+03  0.49720688217E+03  0.00000000000E+00 0. -1.
        -11    1    5    5    0    0 -0.53511940022E+03 -0.43814812541E+03 -0.74449245767E+03  0.10161670984E+04  0.00000000000E+00 0.  1.
          3    1    6    6  503    0 -0.83752697005E+02  0.11898471502E+03 -0.40100513784E+02  0.15093020861E+03  0.00000000000E+00 0. -1.
         -3    1    6    6    0  503 -0.18613040700E+03  0.16828972595E+03 -0.18529412101E+03  0.31192927331E+03  0.00000000000E+00 0.  1.
<mgrwt>
<rscale>  0 0.26458347E+04</rscale>
<asrwt>0</asrwt>
<pdfrwt beam="1">  1        2 0.38547110E+00 0.26458347E+04</pdfrwt>
<pdfrwt beam="2">  1       -1 0.10746001E+00 0.26458347E+04</pdfrwt>
<totfact> 0.27914285E+00</totfact>
</mgrwt>
</event>
<event>
12    6  0.1542110E-007  0.1302632E+04  0.7818608E-02  0.9027481E-01
          2   -1    0    0  501    0  0.00000000000E+00  0.00000000000E+00  0.11855509781E+04  0.11855509781E+04  0.00000000000E+00 0. -1.
         -1   -1    0    0    0  501 -0.00000000000E+00 -0.00000000000E+00 -0.35781872269E+03  0.35781872269E+03  0.00000000000E+00 0.  1.
         24    2    1    2    0    0 -0.32148881351E+02 -0.13031150406E+03  0.57688573156E+03  0.59774957223E+03  0.80577696444E+02 0.  0.
        254    2    1    2    0    0  0.32148881351E+02  0.13031150406E+03  0.25084652384E+03  0.94562012855E+03  0.90180863288E+03 0.  0.
         23    2    4    4    0    0  0.48148738019E+02  0.19654218362E+03  0.56735349606E+03  0.60964891875E+03  0.93992998244E+02 0.  0.
         23    2    4    4    0    0 -0.15999856668E+02 -0.66230679563E+02 -0.31650697222E+03  0.33597120981E+03  0.89763533940E+02 0.  0.
          2    1    3    3  502    0 -0.49959623407E+02 -0.10456520663E+03  0.52060721068E+03  0.53334952350E+03  0.00000000000E+00 0. -1.
         -1    1    3    3    0  502  0.17810742056E+02 -0.25746297431E+02  0.56278520881E+02  0.64400048731E+02  0.00000000000E+00 0.  1.
         11    1    5    5    0    0  0.18814319139E+02  0.18495194158E+03  0.52425776085E+03  0.55624401040E+03  0.00000000000E+00 0.  1.
        -11    1    5    5    0    0  0.29334418879E+02  0.11590242044E+02  0.43095735212E+02  0.53404908343E+02  0.00000000000E+00 0. -1.
          2    1    6    6  503    0  0.12481518743E+02  0.19051964607E+02 -0.65246879344E+02  0.69108038097E+02  0.00000000000E+00 0. -1.
         -2    1    6    6    0  503 -0.28481375411E+02 -0.85282644171E+02 -0.25126009288E+03  0.26686317171E+03  0.00000000000E+00 0.  1.
<mgrwt>
<rscale>  0 0.13026317E+04</rscale>
<asrwt>0</asrwt>
<pdfrwt beam="1">  1        2 0.18239246E+00 0.13026317E+04</pdfrwt>
<pdfrwt beam="2">  1       -1 0.55049035E-01 0.13026317E+04</pdfrwt>
<totfact> 0.72000879E+01</totfact>
</mgrwt>
</event>
<event>
12    6  0.1542110E-007  0.1477050E+04  0.7818608E-02  0.8899859E-01
          2   -1    0    0  501    0  0.00000000000E+00  0.00000000000E+00  0.11869985105E+04  0.11869985105E+04  0.00000000000E+00 0. -1.
         -1   -1    0    0    0  501 -0.00000000000E+00 -0.00000000000E+00 -0.45949461817E+03  0.45949461817E+03  0.00000000000E+00 0.  1.
         24    2    1    2    0    0 -0.29516506040E+03 -0.34824359940E+03  0.28445804536E+03  0.54372982545E+03  0.79559575856E+02 0.  0.
        254    2    1    2    0    0  0.29516506040E+03  0.34824359940E+03  0.44304584701E+03  0.11027633033E+04  0.90077814309E+03 0.  0.
         23    2    4    4    0    0 -0.11652844040E+03  0.33459679639E+03 -0.13193361433E+03  0.38885659127E+03  0.90934462148E+02 0.  0.
         23    2    4    4    0    0  0.41169350080E+03  0.13646803008E+02  0.57497946134E+03  0.71390671200E+03  0.96869183138E+02 0.  0.
          2    1    3    3  502    0 -0.17359895587E+03 -0.25284575124E+03  0.16399994185E+03  0.34779814882E+03  0.00000000000E+00 0. -1.
         -1    1    3    3    0  502 -0.12156610453E+03 -0.95397848159E+02  0.12045810351E+03  0.19593167663E+03  0.00000000000E+00 0.  1.
         11    1    5    5    0    0 -0.11059659553E+03  0.29217990605E+03 -0.14451546933E+03  0.34421711944E+03  0.00000000000E+00 0. -1.
        -11    1    5    5    0    0 -0.59318448687E+01  0.42416890342E+02  0.12581854998E+02  0.44639471827E+02  0.00000000000E+00 0.  1.
          3    1    6    6  503    0  0.29018548164E+03  0.53096942500E+02  0.41529166329E+03  0.50940559935E+03  0.00000000000E+00 0. -1.
         -3    1    6    6    0  503  0.12150801916E+03 -0.39450139492E+02  0.15968779805E+03  0.20450111264E+03  0.00000000000E+00 0.  1.
<mgrwt>
<rscale>  0 0.14770503E+04</rscale>
<asrwt>0</asrwt>
<pdfrwt beam="1">  1        2 0.18261515E+00 0.14770503E+04</pdfrwt>
<pdfrwt beam="2">  1       -1 0.70691480E-01 0.14770503E+04</pdfrwt>
<totfact> 0.43033282E+01</totfact>
</mgrwt>
</event>
<event>
12    6  0.1542110E-007  0.2558786E+04  0.7818608E-02  0.8382337E-01
          2   -1    0    0  501    0  0.00000000000E+00  0.00000000000E+00  0.87416754616E+03  0.87416754616E+03  0.00000000000E+00 0. -1.
         -1   -1    0    0    0  501 -0.00000000000E+00 -0.00000000000E+00 -0.18724625179E+04  0.18724625179E+04  0.00000000000E+00 0.  1.
         24    2    1    2    0    0  0.15741942312E+03  0.57963159908E+03 -0.13783511677E+04  0.15056459779E+04  0.79775961595E+02 0.  0.
        254    2    1    2    0    0 -0.15741942312E+03 -0.57963159908E+03  0.38005619591E+03  0.12409840861E+04  0.10172733775E+04 0.  0.
         23    2    4    4    0    0  0.12542357264E+02  0.19523793273E+03  0.38641874466E+03  0.44264953187E+03  0.91345502022E+02 0.  0.
         23    2    4    4    0    0 -0.16996178038E+03 -0.77486953181E+03 -0.63625487480E+01  0.79833455427E+03  0.89374383374E+02 0.  0.
          2    1    3    3  502    0  0.33217230012E+02  0.19887783606E+03 -0.54359546327E+03  0.57978599995E+03  0.00000000000E+00 0. -1.
         -1    1    3    3    0  502  0.12420219311E+03  0.38075376302E+03 -0.83475570439E+03  0.92585997799E+03  0.00000000000E+00 0.  1.
         11    1    5    5    0    0 -0.29645824912E+02  0.12311379536E+03  0.28034442438E+03  0.30761807136E+03  0.00000000000E+00 0.  1.
        -11    1    5    5    0    0  0.42188182176E+02  0.72124137367E+02  0.10607432028E+03  0.13503146051E+03  0.00000000000E+00 0. -1.
          4    1    6    6  503    0 -0.15966747273E+03 -0.58851153589E+03  0.18356278224E+02  0.61006268750E+03  0.00000000000E+00 0. -1.
         -4    1    6    6    0  503 -0.10294307649E+02 -0.18635799591E+03 -0.24718826972E+02  0.18827186677E+03  0.00000000000E+00 0.  1.
<mgrwt>
<rscale>  0 0.25587856E+04</rscale>
<asrwt>0</asrwt>
<pdfrwt beam="1">  1        2 0.13448732E+00 0.25587856E+04</pdfrwt>
<pdfrwt beam="2">  1       -1 0.28807116E+00 0.25587856E+04</pdfrwt>
<totfact> 0.12196059E+00</totfact>
</mgrwt>
</event>
<event>
12    6  0.1542110E-007  0.1665917E+04  0.7818608E-02  0.8781045E-01
         -1   -1    0    0    0  501 -0.00000000000E+00  0.00000000000E+00  0.38333189018E+03  0.38333189018E+03  0.00000000000E+00 0.  1.
          2   -1    0    0  501    0  0.00000000000E+00 -0.00000000000E+00 -0.18099721135E+04  0.18099721135E+04  0.00000000000E+00 0. -1.
         24    2    1    2    0    0 -0.39933110591E+03  0.37995288548E+03 -0.38092982665E+03  0.67496215313E+03  0.81466852177E+02 0.  0.
        254    2    1    2    0    0  0.39933110591E+03 -0.37995288548E+03 -0.10457103967E+04  0.15183418505E+04  0.95290199605E+03 0.  0.
         23    2    4    4    0    0  0.41244629100E+03  0.23215021900E+03 -0.46996575651E+03  0.67305829238E+03  0.90188610722E+02 0.  0.
         23    2    4    4    0    0 -0.13115185093E+02 -0.61210310448E+03 -0.57574464014E+03  0.84528355815E+03  0.90444372065E+02 0.  0.
          2    1    3    3  502    0 -0.39280214060E+03  0.37826861870E+03 -0.36116827663E+03  0.65408194716E+03  0.00000000000E+00 0. -1.
         -1    1    3    3    0  502 -0.65289653104E+01  0.16842667786E+01 -0.19761550015E+02  0.20880205976E+02  0.00000000000E+00 0.  1.
         11    1    5    5    0    0  0.34673154172E+03  0.20731694878E+03 -0.35231982066E+03  0.53603389380E+03  0.00000000000E+00 0.  1.
        -11    1    5    5    0    0  0.65714749283E+02  0.24833270223E+02 -0.11764593585E+03  0.13702439858E+03  0.00000000000E+00 0. -1.
          4    1    6    6  503    0 -0.36889934159E+01 -0.26076405206E+02 -0.42558915090E+01  0.26677709673E+02  0.00000000000E+00 0. -1.
         -4    1    6    6    0  503 -0.94261916767E+01 -0.58602669927E+03 -0.57148874863E+03  0.81860584848E+03  0.00000000000E+00 0.  1.
<mgrwt>
<rscale>  0 0.16659172E+04</rscale>
<asrwt>0</asrwt>
<pdfrwt beam="1">  1        2 0.27845725E+00 0.16659172E+04</pdfrwt>
<pdfrwt beam="2">  1       -1 0.58974136E-01 0.16659172E+04</pdfrwt>
<totfact> 0.26982489E+01</totfact>
</mgrwt>
</event>
<event>
12    6  0.1542110E-007  0.2206217E+04  0.7818608E-02  0.8515845E-01
         -1   -1    0    0    0  501 -0.00000000000E+00  0.00000000000E+00  0.16703696905E+04  0.16703696905E+04  0.00000000000E+00 0.  1.
          2   -1    0    0  501    0  0.00000000000E+00 -0.00000000000E+00 -0.72849069149E+03  0.72849069149E+03  0.00000000000E+00 0. -1.
         24    2    1    2    0    0  0.11844145149E+03  0.23167890290E+03  0.13667516398E+04  0.13935038800E+04  0.78355136031E+02 0.  0.
        254    2    1    2    0    0 -0.11844145149E+03 -0.23167890290E+03 -0.42487264081E+03  0.10053565019E+04  0.87322473829E+03 0.  0.
         23    2    4    4    0    0 -0.19160546432E+03  0.58795117056E+02  0.20662642667E+03  0.30097784021E+03  0.87884357831E+02 0.  0.
         23    2    4    4    0    0  0.73164012827E+02 -0.29047401996E+03 -0.63149906748E+03  0.70437866171E+03  0.87350431013E+02 0.  0.
          2    1    3    3  502    0  0.23484019102E+02  0.27698090525E+02  0.89512564436E+02  0.96598046377E+02  0.00000000000E+00 0. -1.
         -1    1    3    3    0  502  0.94957432391E+02  0.20398081238E+03  0.12772390753E+04  0.12969058337E+04  0.00000000000E+00 0.  1.
         11    1    5    5    0    0 -0.21259173644E+02 -0.16552328237E+02  0.67737029987E+01  0.27781560187E+02  0.00000000000E+00 0.  1.
        -11    1    5    5    0    0 -0.17034629068E+03  0.75347445293E+02  0.19985272367E+03  0.27319628002E+03  0.00000000000E+00 0. -1.
          2    1    6    6  503    0  0.51615132795E+02 -0.27482681858E+03 -0.52762135028E+03  0.59714168454E+03  0.00000000000E+00 0. -1.
         -2    1    6    6    0  503  0.21548880032E+02 -0.15647201380E+02 -0.10387771720E+03  0.10723697717E+03  0.00000000000E+00 0.  1.
<mgrwt>
<rscale>  0 0.22062174E+04</rscale>
<asrwt>0</asrwt>
<pdfrwt beam="1">  1        2 0.11207549E+00 0.22062174E+04</pdfrwt>
<pdfrwt beam="2">  1       -1 0.25697995E+00 0.22062174E+04</pdfrwt>
<totfact> 0.25483950E+00</totfact>
</mgrwt>
</event>
<event>
12    6  0.1542110E-007  0.1333597E+04  0.7818608E-02  0.9003339E-01
          2   -1    0    0  501    0  0.00000000000E+00  0.00000000000E+00  0.19117797318E+04  0.19117797318E+04  0.00000000000E+00 0. -1.
         -1   -1    0    0    0  501 -0.00000000000E+00 -0.00000000000E+00 -0.23256868891E+03  0.23256868891E+03  0.00000000000E+00 0.  1.
         24    2    1    2    0    0 -0.52255585406E+02 -0.48730836846E+02 -0.10048384632E+03  0.15100552321E+03  0.87179837138E+02 0.  0.
        254    2    1    2    0    0  0.52255585406E+02  0.48730836846E+02  0.17796948892E+04  0.19933428975E+04  0.89498417174E+03 0.  0.
         23    2    4    4    0    0  0.13314004648E+03  0.37311448946E+02  0.18462059405E+04  0.18536806774E+04  0.92397310000E+02 0.  0.
         23    2    4    4    0    0 -0.80884461079E+02  0.11419387900E+02 -0.66511051341E+02  0.13966222003E+03  0.91701239306E+02 0.  0.
          2    1    3    3  502    0 -0.12108262808E+01  0.14193460362E+02 -0.57593134475E+02  0.59328657123E+02  0.00000000000E+00 0. -1.
         -1    1    3    3    0  502 -0.51044759125E+02 -0.62924297208E+02 -0.42890711841E+02  0.91676866087E+02  0.00000000000E+00 0.  1.
         11    1    5    5    0    0  0.13490021416E+03  0.54333726074E+02  0.14946990166E+04  0.15017574278E+04  0.00000000000E+00 0.  1.
        -11    1    5    5    0    0 -0.17601676797E+01 -0.17022277128E+02  0.35150692388E+03  0.35192324965E+03  0.00000000000E+00 0. -1.
          4    1    6    6  503    0 -0.37989238064E+02 -0.30461145241E+02  0.18617829641E+01  0.48729147477E+02  0.00000000000E+00 0. -1.
         -4    1    6    6    0  503 -0.42895223015E+02  0.41880533141E+02 -0.68372834305E+02  0.90933072557E+02  0.00000000000E+00 0.  1.
<mgrwt>
<rscale>  0 0.13335968E+04</rscale>
<asrwt>0</asrwt>
<pdfrwt beam="1">  1        2 0.29411995E+00 0.13335968E+04</pdfrwt>
<pdfrwt beam="2">  1       -1 0.35779800E-01 0.13335968E+04</pdfrwt>
<totfact> 0.62174517E+01</totfact>
</mgrwt>
</event>
<event>
12    6  0.1542110E-007  0.1337593E+04  0.7818608E-02  0.9000273E-01
          2   -1    0    0  501    0  0.00000000000E+00  0.00000000000E+00  0.79000578115E+03  0.79000578115E+03  0.00000000000E+00 0. -1.
         -1   -1    0    0    0  501 -0.00000000000E+00 -0.00000000000E+00 -0.56618455296E+03  0.56618455296E+03  0.00000000000E+00 0.  1.
         24    2    1    2    0    0 -0.30992975837E+03  0.12295134742E+03 -0.64978612580E+02  0.34920750718E+03  0.80933145360E+02 0.  0.
        254    2    1    2    0    0  0.30992975837E+03 -0.12295134742E+03  0.28879984077E+03  0.10069828269E+04  0.90522680956E+03 0.  0.
         23    2    4    4    0    0  0.85107581424E+02 -0.29802663993E+03  0.53107596840E+03  0.62153531477E+03  0.90560945101E+02 0.  0.
         23    2    4    4    0    0  0.22482217695E+03  0.17507529251E+03 -0.24227612762E+03  0.38544751216E+03  0.93143401916E+02 0.  0.
          4    1    3    3  502    0 -0.29089867416E+03  0.98281341510E+02 -0.40763386757E+02  0.30974653254E+03  0.00000000000E+00 0. -1.
         -3    1    3    3    0  502 -0.19031084211E+02  0.24670005913E+02 -0.24215225823E+02  0.39460974641E+02  0.00000000000E+00 0.  1.
         11    1    5    5    0    0  0.15459524242E+02 -0.19861560898E+02  0.10631471570E+02  0.27322274408E+02  0.00000000000E+00 0. -1.
        -11    1    5    5    0    0  0.69648057181E+02 -0.27816507904E+03  0.52044449683E+03  0.59421304037E+03  0.00000000000E+00 0.  1.
          2    1    6    6  503    0  0.16565286224E+02  0.23487243403E+02  0.40676239476E+01  0.29027657070E+02  0.00000000000E+00 0. -1.
         -2    1    6    6    0  503  0.20825689072E+03  0.15158804911E+03 -0.24634375157E+03  0.35641985509E+03  0.00000000000E+00 0.  1.
<mgrwt>
<rscale>  0 0.13375935E+04</rscale>
<asrwt>0</asrwt>
<pdfrwt beam="1">  1        2 0.12153935E+00 0.13375935E+04</pdfrwt>
<pdfrwt beam="2">  1       -1 0.87105316E-01 0.13375935E+04</pdfrwt>
<totfact> 0.50769992E+01</totfact>
</mgrwt>
</event>
<event>
12    6  0.1542110E-007  0.1876702E+04  0.7818608E-02  0.8666541E-01
         -1   -1    0    0    0  501 -0.00000000000E+00  0.00000000000E+00  0.14009339571E+04  0.14009339571E+04  0.00000000000E+00 0.  1.
          2   -1    0    0  501    0  0.00000000000E+00 -0.00000000000E+00 -0.62851082728E+03  0.62851082728E+03  0.00000000000E+00 0. -1.
         24    2    1    2    0    0  0.69640329495E+02  0.40065407717E+03  0.93575240207E+03  0.10234107726E+04  0.79772090437E+02 0.  0.
        254    2    1    2    0    0 -0.69640329495E+02 -0.40065407717E+03 -0.16332927221E+03  0.10060340118E+04  0.90556861517E+03 0.  0.
         23    2    4    4    0    0  0.29909521650E+03 -0.50360006273E+03 -0.15329200364E+03  0.61247871466E+03  0.92524406565E+02 0.  0.
         23    2    4    4    0    0 -0.36873554600E+03  0.10294598556E+03 -0.10037268574E+02  0.39355529719E+03  0.90671088882E+02 0.  0.
          4    1    3    3  502    0 -0.16028460643E+02  0.79165597353E+02  0.21132183654E+03  0.22623223014E+03  0.00000000000E+00 0. -1.
         -3    1    3    3    0  502  0.85668790138E+02  0.32148847981E+03  0.72443056553E+03  0.79717854245E+03  0.00000000000E+00 0.  1.
         11    1    5    5    0    0  0.27458994123E+03 -0.41202640482E+03 -0.15100189400E+03  0.51765525795E+03  0.00000000000E+00 0. -1.
        -11    1    5    5    0    0  0.24505275275E+02 -0.91573657907E+02 -0.22901096366E+01  0.94823456702E+02  0.00000000000E+00 0.  1.
          3    1    6    6  503    0 -0.27649515541E+03  0.63449127381E+02  0.30538696344E+02  0.28532082767E+03  0.00000000000E+00 0. -1.
         -3    1    6    6    0  503 -0.92240390593E+02  0.39496858181E+02 -0.40575964918E+02  0.10823446952E+03  0.00000000000E+00 0.  1.
<mgrwt>
<rscale>  0 0.18767015E+04</rscale>
<asrwt>0</asrwt>
<pdfrwt beam="1">  1        2 0.96693974E-01 0.18767015E+04</pdfrwt>
<pdfrwt beam="2">  1       -1 0.21552830E+00 0.18767015E+04</pdfrwt>
<totfact> 0.59220963E+00</totfact>
</mgrwt>
</event>
<event>
12    6  0.1542110E-007  0.2358058E+04  0.7818608E-02  0.8455375E-01
         -1   -1    0    0    0  501 -0.00000000000E+00  0.00000000000E+00  0.55454086268E+03  0.55454086268E+03  0.00000000000E+00 0.  1.
          2   -1    0    0  501    0  0.00000000000E+00 -0.00000000000E+00 -0.25067749600E+04  0.25067749600E+04  0.00000000000E+00 0. -1.
         24    2    1    2    0    0  0.32553960622E+02  0.94359242108E+03 -0.45647007889E+03  0.10516601230E+04  0.78725242609E+02 0.  0.
        254    2    1    2    0    0 -0.32553960622E+02 -0.94359242108E+03 -0.14957640184E+04  0.20096556997E+04  0.95392851677E+03 0.  0.
         23    2    4    4    0    0 -0.18052645105E+03  0.12155777241E+03 -0.44289381603E+03  0.50179844720E+03  0.90998119571E+02 0.  0.
         23    2    4    4    0    0  0.14797249043E+03 -0.10651501935E+04 -0.10528702024E+04  0.15078572525E+04  0.93043206509E+02 0.  0.
          4    1    3    3  502    0  0.45149523988E+02  0.35124816387E+03 -0.14977618771E+03  0.38450833352E+03  0.00000000000E+00 0. -1.
         -3    1    3    3    0  502 -0.12595563367E+02  0.59234425720E+03 -0.30669389118E+03  0.66715178943E+03  0.00000000000E+00 0.  1.
         11    1    5    5    0    0 -0.56378261750E+02  0.61296631730E+02 -0.25782641938E+03  0.27094325604E+03  0.00000000000E+00 0. -1.
        -11    1    5    5    0    0 -0.12414818930E+03  0.60261140678E+02 -0.18506739665E+03  0.23085519116E+03  0.00000000000E+00 0.  1.
          1    1    6    6  503    0  0.16397846153E+02 -0.44585164874E+03 -0.44644931258E+03  0.63116524837E+03  0.00000000000E+00 0. -1.
         -1    1    6    6    0  503  0.13157464428E+03 -0.61929854474E+03 -0.60642088977E+03  0.87669200412E+03  0.00000000000E+00 0.  1.
<mgrwt>
<rscale>  0 0.23580578E+04</rscale>
<asrwt>0</asrwt>
<pdfrwt beam="1">  1        2 0.38565769E+00 0.23580578E+04</pdfrwt>
<pdfrwt beam="2">  1       -1 0.85313978E-01 0.23580578E+04</pdfrwt>
<totfact> 0.48092723E+00</totfact>
</mgrwt>
</event>
<event>
12    6  0.1542110E-007  0.1652225E+04  0.7818608E-02  0.8789091E-01
          2   -1    0    0  501    0  0.00000000000E+00  0.00000000000E+00  0.19607115836E+04  0.19607115836E+04  0.00000000000E+00 0. -1.
         -1   -1    0    0    0  501 -0.00000000000E+00 -0.00000000000E+00 -0.34806838628E+03  0.34806838628E+03  0.00000000000E+00 0.  1.
         24    2    1    2    0    0 -0.12212821328E+03 -0.26954326299E+03  0.12565305167E+04  0.12931965557E+04  0.76938424057E+02 0.  0.
        254    2    1    2    0    0  0.12212821328E+03  0.26954326299E+03  0.35611268059E+03  0.10155834142E+04  0.90389410816E+03 0.  0.
         23    2    4    4    0    0 -0.14116392477E+03  0.22378282815E+03 -0.23153401955E+03  0.36333134614E+03  0.91627818104E+02 0.  0.
         23    2    4    4    0    0  0.26329213805E+03  0.45760434842E+02  0.58764670015E+03  0.65225206803E+03  0.93205947811E+02 0.  0.
          2    1    3    3  502    0 -0.72040520130E+02 -0.22951142985E+03  0.10339948050E+04  0.10616075498E+04  0.00000000000E+00 0. -1.
         -3    1    3    3    0  502 -0.50087693147E+02 -0.40031833133E+02  0.22253571169E+03  0.23158900589E+03  0.00000000000E+00 0.  1.
         11    1    5    5    0    0 -0.62328104614E+02  0.44746324715E+02 -0.10613773831E+03  0.13096658236E+03  0.00000000000E+00 0.  1.
        -11    1    5    5    0    0 -0.78835820158E+02  0.17903650343E+03 -0.12539628124E+03  0.23236476379E+03  0.00000000000E+00 0. -1.
          2    1    6    6  503    0  0.22558728343E+03  0.10557076585E+02  0.52204204822E+03  0.56879607455E+03  0.00000000000E+00 0. -1.
         -2    1    6    6    0  503  0.37704854620E+02  0.35203358257E+02  0.65604651922E+02  0.83455993484E+02  0.00000000000E+00 0.  1.
<mgrwt>
<rscale>  0 0.16522248E+04</rscale>
<asrwt>0</asrwt>
<pdfrwt beam="1">  1        2 0.30164793E+00 0.16522248E+04</pdfrwt>
<pdfrwt beam="2">  1       -1 0.53548984E-01 0.16522248E+04</pdfrwt>
<totfact> 0.26898226E+01</totfact>
</mgrwt>
</event>
<event>
12    6  0.1542110E-007  0.1684248E+04  0.7818608E-02  0.8770400E-01
          2   -1    0    0  501    0  0.00000000000E+00  0.00000000000E+00  0.23358541924E+04  0.23358541924E+04  0.00000000000E+00 0. -1.
         -1   -1    0    0    0  501 -0.00000000000E+00 -0.00000000000E+00 -0.30360309014E+03  0.30360309014E+03  0.00000000000E+00 0.  1.
         24    2    1    2    0    0  0.29321577960E+03 -0.72816549196E+02  0.15084765193E+04  0.15404989485E+04  0.79736175795E+02 0.  0.
        254    2    1    2    0    0 -0.29321577960E+03  0.72816549196E+02  0.52377458295E+03  0.10989583341E+04  0.91765563421E+03 0.  0.
         23    2    4    4    0    0  0.29512435386E+03  0.13611725092E+03  0.32682959190E+03  0.46866681696E+03  0.84880580484E+02 0.  0.
         23    2    4    4    0    0 -0.58834013346E+03 -0.63300701721E+02  0.19694499105E+03  0.63029151709E+03  0.91263221169E+02 0.  0.
          4    1    3    3  502    0  0.69470935712E+02  0.47541074241E+01  0.23132615000E+03  0.24157938678E+03  0.00000000000E+00 0. -1.
         -1    1    3    3    0  502  0.22374484389E+03 -0.77570656620E+02  0.12771503693E+04  0.12989195617E+04  0.00000000000E+00 0.  1.
         11    1    5    5    0    0  0.12061623971E+03  0.24096790588E+02  0.82039260862E+02  0.14784915597E+03  0.00000000000E+00 0. -1.
        -11    1    5    5    0    0  0.17450811416E+03  0.11202046033E+03  0.24479033104E+03  0.32081766100E+03  0.00000000000E+00 0.  1.
          2    1    6    6  503    0 -0.52508375915E+03 -0.73378134886E+02  0.19874344868E+03  0.56621220686E+03  0.00000000000E+00 0. -1.
         -2    1    6    6    0  503 -0.63256374309E+02  0.10077433165E+02 -0.17984576275E+01  0.64079310231E+02  0.00000000000E+00 0.  1.
<mgrwt>
<rscale>  0 0.16842477E+04</rscale>
<asrwt>0</asrwt>
<pdfrwt beam="1">  1        2 0.35936217E+00 0.16842477E+04</pdfrwt>
<pdfrwt beam="2">  1       -1 0.46708169E-01 0.16842477E+04</pdfrwt>
<totfact> 0.21453614E+01</totfact>
</mgrwt>
</event>
<event>
12    6  0.1542110E-007  0.1784102E+04  0.7818608E-02  0.8714800E-01
          2   -1    0    0  501    0  0.00000000000E+00  0.00000000000E+00  0.11114255458E+04  0.11114255458E+04  0.00000000000E+00 0. -1.
         -1   -1    0    0    0  501 -0.00000000000E+00 -0.00000000000E+00 -0.71597664308E+03  0.71597664308E+03  0.00000000000E+00 0.  1.
         24    2    1    2    0    0  0.21456201115E+03 -0.61566632741E+03  0.47721521218E+02  0.65835001879E+03  0.77881450457E+02 0.  0.
        254    2    1    2    0    0 -0.21456201115E+03  0.61566632741E+03  0.34772738154E+03  0.11690521701E+04  0.90591763492E+03 0.  0.
         23    2    4    4    0    0 -0.15570098384E+03  0.80022001266E+03  0.76501480651E+02  0.82374848432E+03  0.90078986654E+02 0.  0.
         23    2    4    4    0    0 -0.58861027304E+02 -0.18455368525E+03  0.27122590089E+03  0.34530368581E+03  0.90257757781E+02 0.  0.
          2    1    3    3  502    0 -0.36728361782E+01 -0.97407031879E+01 -0.61188464417E+01  0.12075235234E+02  0.00000000000E+00 0. -1.
         -1    1    3    3    0  502  0.21823484733E+03 -0.60592562422E+03  0.53840367660E+02  0.64627478356E+03  0.00000000000E+00 0.  1.
         11    1    5    5    0    0 -0.15175108802E+03  0.67564179522E+03  0.38927388145E+02  0.69356727843E+03  0.00000000000E+00 0. -1.
        -11    1    5    5    0    0 -0.39498958273E+01  0.12457821744E+03  0.37574092506E+02  0.13018120589E+03  0.00000000000E+00 0.  1.
          2    1    6    6  503    0  0.11397589234E+02 -0.80593838449E+02  0.66144699518E+02  0.10488275888E+03  0.00000000000E+00 0. -1.
         -2    1    6    6    0  503 -0.70258616538E+02 -0.10395984680E+03  0.20508120138E+03  0.24042092692E+03  0.00000000000E+00 0.  1.
<mgrwt>
<rscale>  0 0.17841017E+04</rscale>
<asrwt>0</asrwt>
<pdfrwt beam="1">  1        2 0.17098855E+00 0.17841017E+04</pdfrwt>
<pdfrwt beam="2">  1       -1 0.11015025E+00 0.17841017E+04</pdfrwt>
<totfact> 0.17582199E+01</totfact>
</mgrwt>
</event>
<event>
12    6  0.1542110E-007  0.1441245E+04  0.7818608E-02  0.8924493E-01
          2   -1    0    0  501    0  0.00000000000E+00  0.00000000000E+00  0.15739646831E+04  0.15739646831E+04  0.00000000000E+00 0. -1.
         -1   -1    0    0    0  501 -0.00000000000E+00 -0.00000000000E+00 -0.32992913669E+03  0.32992913669E+03  0.00000000000E+00 0.  1.
         24    2    1    2    0    0 -0.87985639086E+02  0.67438904548E+02  0.93787208549E+03  0.94734209983E+03  0.74589053026E+02 0.  0.
        254    2    1    2    0    0  0.87985639086E+02 -0.67438904548E+02  0.30616346089E+03  0.95655171993E+03  0.89942517732E+03 0.  0.
         23    2    4    4    0    0 -0.20942742342E+02 -0.33467069032E+03 -0.17390011239E+03  0.38874422411E+03  0.91857243997E+02 0.  0.
         23    2    4    4    0    0  0.10892838143E+03  0.26723178577E+03  0.48006357328E+03  0.56780749582E+03  0.93091880998E+02 0.  0.
          2    1    3    3  502    0 -0.91903019087E+02  0.53533070843E+02  0.61368259500E+03  0.62283086147E+03  0.00000000000E+00 0. -1.
         -1    1    3    3    0  502  0.39173800009E+01  0.13905833705E+02  0.32418949049E+03  0.32451123836E+03  0.00000000000E+00 0.  1.
         11    1    5    5    0    0 -0.23726291309E+01 -0.20405101583E+03 -0.15325652568E+03  0.25520581712E+03  0.00000000000E+00 0. -1.
        -11    1    5    5    0    0 -0.18570113211E+02 -0.13061967449E+03 -0.20643586713E+02  0.13353840699E+03  0.00000000000E+00 0.  1.
          4    1    6    6  503    0  0.62888869174E+02  0.16231022326E+03  0.37013739613E+03  0.40902482865E+03  0.00000000000E+00 0. -1.
         -4    1    6    6    0  503  0.46039512254E+02  0.10492156252E+03  0.10992617715E+03  0.15878266717E+03  0.00000000000E+00 0.  1.
<mgrwt>
<rscale>  0 0.14412450E+04</rscale>
<asrwt>0</asrwt>
<pdfrwt beam="1">  1        2 0.24214841E+00 0.14412450E+04</pdfrwt>
<pdfrwt beam="2">  1       -1 0.50758330E-01 0.14412450E+04</pdfrwt>
<totfact> 0.49728454E+01</totfact>
</mgrwt>
</event>
<event>
12    6  0.1542110E-007  0.1174963E+04  0.7818608E-02  0.9135058E-01
         -1   -1    0    0    0  501 -0.00000000000E+00  0.00000000000E+00  0.15964181420E+03  0.15964181420E+03  0.00000000000E+00 0.  1.
          2   -1    0    0  501    0  0.00000000000E+00 -0.00000000000E+00 -0.21619293989E+04  0.21619293989E+04  0.00000000000E+00 0. -1.
         24    2    1    2    0    0  0.22426325030E+03  0.64696768996E+02 -0.62943414472E+03  0.67681473154E+03  0.86088099895E+02 0.  0.
        254    2    1    2    0    0 -0.22426325030E+03 -0.64696768996E+02 -0.13728534400E+04  0.16447564816E+04  0.87522433614E+03 0.  0.
         23    2    4    4    0    0  0.48811311348E+02  0.19950515870E+03 -0.11910190304E+04  0.12120770789E+04  0.91758715700E+02 0.  0.
         23    2    4    4    0    0 -0.27307456164E+03 -0.26420192770E+03 -0.18183440960E+03  0.43267940268E+03  0.98870309893E+02 0.  0.
          4    1    3    3  502    0  0.58989538634E+02  0.36323500040E+02 -0.29075608085E+03  0.29889506667E+03  0.00000000000E+00 0. -1.
         -3    1    3    3    0  502  0.16527371166E+03  0.28373268956E+02 -0.33867806387E+03  0.37791966488E+03  0.00000000000E+00 0.  1.
         11    1    5    5    0    0  0.40591220306E+02  0.17675070148E+03 -0.79945291653E+03  0.81976424867E+03  0.00000000000E+00 0.  1.
        -11    1    5    5    0    0  0.82200910421E+01  0.22754457217E+02 -0.39156611386E+03  0.39231283020E+03  0.00000000000E+00 0. -1.
          3    1    6    6  503    0 -0.10480785205E+03 -0.14179277143E+03 -0.12758937459E+03  0.21764403137E+03  0.00000000000E+00 0. -1.
         -3    1    6    6    0  503 -0.16826670959E+03 -0.12240915626E+03 -0.54245035011E+02  0.21503537132E+03  0.00000000000E+00 0.  1.
<mgrwt>
<rscale>  0 0.11749627E+04</rscale>
<asrwt>0</asrwt>
<pdfrwt beam="1">  1        2 0.33260453E+00 0.11749627E+04</pdfrwt>
<pdfrwt beam="2">  1       -1 0.24560279E-01 0.11749627E+04</pdfrwt>
<totfact> 0.88445670E+01</totfact>
</mgrwt>
</event>
<event>
12    6  0.1542110E-007  0.1630164E+04  0.7818608E-02  0.8802228E-01
          2   -1    0    0  501    0  0.00000000000E+00  0.00000000000E+00  0.55924044774E+03  0.55924044774E+03  0.00000000000E+00 0. -1.
         -1   -1    0    0    0  501 -0.00000000000E+00 -0.00000000000E+00 -0.11879666677E+04  0.11879666677E+04  0.00000000000E+00 0.  1.
         24    2    1    2    0    0 -0.94721847841E+02  0.43786838289E+03 -0.58813283511E+03  0.74311973924E+03  0.75005105978E+02 0.  0.
        254    2    1    2    0    0  0.94721847841E+02 -0.43786838289E+03 -0.40593384865E+02  0.10040873762E+04  0.89768741050E+03 0.  0.
         23    2    4    4    0    0 -0.15128414499E+03 -0.64566351349E+03 -0.40099124024E+02  0.66937098457E+03  0.81739280983E+02 0.  0.
         23    2    4    4    0    0  0.24600599283E+03  0.20779513061E+03 -0.49426084043E+00  0.33471639164E+03  0.91307468069E+02 0.  0.
          2    1    3    3  502    0 -0.12722521489E+01 -0.14887819094E+01 -0.14070307774E+02  0.14205937419E+02  0.00000000000E+00 0. -1.
         -1    1    3    3    0  502 -0.93449595692E+02  0.43935716479E+03 -0.57406252734E+03  0.72891380182E+03  0.00000000000E+00 0.  1.
         11    1    5    5    0    0 -0.13117853880E+03 -0.60405642226E+03 -0.18628891382E+02  0.61841653108E+03  0.00000000000E+00 0. -1.
        -11    1    5    5    0    0 -0.20105606184E+02 -0.41607091230E+02 -0.21470232642E+02  0.50954453490E+02  0.00000000000E+00 0.  1.
          3    1    6    6  503    0  0.57636271134E+02  0.10354580634E+03  0.11675152807E+02  0.11907973360E+03  0.00000000000E+00 0. -1.
         -3    1    6    6    0  503  0.18836972170E+03  0.10424932427E+03 -0.12169413648E+02  0.21563665804E+03  0.00000000000E+00 0.  1.
<mgrwt>
<rscale>  0 0.16301644E+04</rscale>
<asrwt>0</asrwt>
<pdfrwt beam="1">  1        2 0.86036992E-01 0.16301644E+04</pdfrwt>
<pdfrwt beam="2">  1       -1 0.18276410E+00 0.16301644E+04</pdfrwt>
<totfact> 0.11730452E+01</totfact>
</mgrwt>
</event>
<event>
12    6  0.1542110E-007  0.1519999E+04  0.7818608E-02  0.8871262E-01
         -1   -1    0    0    0  501 -0.00000000000E+00  0.00000000000E+00  0.22273743861E+03  0.22273743861E+03  0.00000000000E+00 0.  1.
          2   -1    0    0  501    0  0.00000000000E+00 -0.00000000000E+00 -0.25931843607E+04  0.25931843607E+04  0.00000000000E+00 0. -1.
         24    2    1    2    0    0  0.24551540186E+03 -0.31301853779E+03 -0.23584818476E+03  0.46925623233E+03  0.79489796691E+02 0.  0.
        254    2    1    2    0    0 -0.24551540186E+03  0.31301853779E+03 -0.21345987373E+04  0.23466655670E+04  0.88998263818E+03 0.  0.
         23    2    4    4    0    0  0.14569654455E+03 -0.63318028000E+02 -0.14811062140E+04  0.14923511812E+04  0.90552609877E+02 0.  0.
         23    2    4    4    0    0 -0.39121194640E+03  0.37633656579E+03 -0.65349252336E+03  0.85431438579E+03  0.90136529356E+02 0.  0.
          4    1    3    3  502    0  0.12682304464E+03 -0.20630313131E+03 -0.17347243942E+03  0.29788882805E+03  0.00000000000E+00 0. -1.
         -1    1    3    3    0  502  0.11869235722E+03 -0.10671540647E+03 -0.62375745339E+02  0.17136740427E+03  0.00000000000E+00 0.  1.
         11    1    5    5    0    0  0.94540354919E+02 -0.84569464687E+02 -0.10852667774E+04  0.10926544976E+04  0.00000000000E+00 0. -1.
        -11    1    5    5    0    0  0.51156189628E+02  0.21251436686E+02 -0.39583943661E+03  0.39969668359E+03  0.00000000000E+00 0.  1.
          1    1    6    6  503    0 -0.20818015615E+03  0.26024115799E+03 -0.40882981077E+03  0.52745260631E+03  0.00000000000E+00 0. -1.
         -1    1    6    6    0  503 -0.18303179025E+03  0.11609540780E+03 -0.24466271258E+03  0.32686177948E+03  0.00000000000E+00 0.  1.
<mgrwt>
<rscale>  0 0.15199990E+04</rscale>
<asrwt>0</asrwt>
<pdfrwt beam="1">  1        2 0.39895144E+00 0.15199990E+04</pdfrwt>
<pdfrwt beam="2">  1       -1 0.34267299E-01 0.15199990E+04</pdfrwt>
<totfact> 0.27287163E+01</totfact>
</mgrwt>
</event>
<event>
12    6  0.1542110E-007  0.1138524E+04  0.7818608E-02  0.9168436E-01
         -1   -1    0    0    0  501 -0.00000000000E+00  0.00000000000E+00  0.14268746142E+03  0.14268746142E+03  0.00000000000E+00 0.  1.
          2   -1    0    0  501    0  0.00000000000E+00 -0.00000000000E+00 -0.22711135589E+04  0.22711135589E+04  0.00000000000E+00 0. -1.
         24    2    1    2    0    0  0.14903027079E+03 -0.11379431287E+03 -0.57698803573E+03  0.61205357911E+03  0.80840726595E+02 0.  0.
        254    2    1    2    0    0 -0.14903027079E+03  0.11379431287E+03 -0.15514380618E+04  0.18017474412E+04  0.89675783531E+03 0.  0.
         23    2    4    4    0    0 -0.20351240164E+02 -0.15233310556E+03 -0.14718118936E+04  0.14822610680E+04  0.85135630789E+02 0.  0.
         23    2    4    4    0    0 -0.12867903062E+03  0.26612741843E+03 -0.79626168223E+02  0.31948637324E+03  0.91373520571E+02 0.  0.
          2    1    3    3  502    0  0.10393417284E+03 -0.29188777485E+02 -0.32374898778E+03  0.34127364988E+03  0.00000000000E+00 0. -1.
         -1    1    3    3    0  502  0.45096097949E+02 -0.84605535384E+02 -0.25323904795E+03  0.27077992924E+03  0.00000000000E+00 0.  1.
         11    1    5    5    0    0  0.26028408186E+02 -0.89527757784E+02 -0.96171980056E+03  0.96622858177E+03  0.00000000000E+00 0. -1.
        -11    1    5    5    0    0 -0.46379648350E+02 -0.62805347774E+02 -0.51009209300E+03  0.51603248622E+03  0.00000000000E+00 0.  1.
          3    1    6    6  503    0 -0.13221022012E+03  0.21690644695E+03 -0.89179200186E+02  0.26922273080E+03  0.00000000000E+00 0. -1.
         -3    1    6    6    0  503  0.35311894926E+01  0.49220971477E+02  0.95530319628E+01  0.50263642448E+02  0.00000000000E+00 0.  1.
<mgrwt>
<rscale>  0 0.11385244E+04</rscale>
<asrwt>0</asrwt>
<pdfrwt beam="1">  1        2 0.34940206E+00 0.11385244E+04</pdfrwt>
<pdfrwt beam="2">  1       -1 0.21951919E-01 0.11385244E+04</pdfrwt>
<totfact> 0.93308941E+01</totfact>
</mgrwt>
</event>
<event>
12    6  0.1542110E-007  0.1391791E+04  0.7818608E-02  0.8959782E-01
          2   -1    0    0  501    0  0.00000000000E+00  0.00000000000E+00  0.19868778662E+04  0.19868778662E+04  0.00000000000E+00 0. -1.
         -1   -1    0    0    0  501 -0.00000000000E+00 -0.00000000000E+00 -0.24373459741E+03  0.24373459741E+03  0.00000000000E+00 0.  1.
         24    2    1    2    0    0 -0.32950101777E+03  0.23621296345E+03  0.48071306643E+03  0.63395143801E+03  0.80261377416E+02 0.  0.
        254    2    1    2    0    0  0.32950101777E+03 -0.23621296345E+03  0.12624302023E+04  0.15966610256E+04  0.88951050023E+03 0.  0.
         23    2    4    4    0    0  0.40041564258E+03  0.14181880661E+03  0.10748174412E+04  0.11596031647E+04  0.94877324856E+02 0.  0.
         23    2    4    4    0    0 -0.70914624806E+02 -0.37803177007E+03  0.18761276110E+03  0.43705786092E+03  0.88792581201E+02 0.  0.
          4    1    3    3  502    0 -0.83944403762E+02  0.23002460154E+02  0.12064807895E+03  0.14876738571E+03  0.00000000000E+00 0. -1.
         -3    1    3    3    0  502 -0.24555661401E+03  0.21321050330E+03  0.36006498748E+03  0.48518405231E+03  0.00000000000E+00 0.  1.
         11    1    5    5    0    0  0.10557578270E+03 -0.42968534528E+00  0.31644298939E+03  0.33359046158E+03  0.00000000000E+00 0. -1.
        -11    1    5    5    0    0  0.29483985988E+03  0.14224849196E+03  0.75837445184E+03  0.82601270308E+03  0.00000000000E+00 0.  1.
          2    1    6    6  503    0 -0.55458722518E+02 -0.31527953601E+03  0.11573750561E+03  0.34039980308E+03  0.00000000000E+00 0.  1.
         -2    1    6    6    0  503 -0.15455902288E+02 -0.62752234054E+02  0.71875255491E+02  0.96658057844E+02  0.00000000000E+00 0. -1.
<mgrwt>
<rscale>  0 0.13917915E+04</rscale>
<asrwt>0</asrwt>
<pdfrwt beam="1">  1        2 0.30567351E+00 0.13917915E+04</pdfrwt>
<pdfrwt beam="2">  1       -1 0.37497632E-01 0.13917915E+04</pdfrwt>
<totfact> 0.51680070E+01</totfact>
</mgrwt>
</event>
<event>
12    6  0.1542110E-007  0.1777100E+04  0.7818608E-02  0.8718573E-01
          2   -1    0    0  501    0  0.00000000000E+00  0.00000000000E+00  0.21852015850E+04  0.21852015850E+04  0.00000000000E+00 0. -1.
         -1   -1    0    0    0  501 -0.00000000000E+00 -0.00000000000E+00 -0.36130351093E+03  0.36130351093E+03  0.00000000000E+00 0.  1.
         24    2    1    2    0    0 -0.58840105496E+02 -0.34460158642E+03  0.14059599401E+04  0.14507221465E+04  0.75226204547E+02 0.  0.
        254    2    1    2    0    0  0.58840105496E+02  0.34460158642E+03  0.41793813400E+03  0.10957829494E+04  0.95071319390E+03 0.  0.
         23    2    4    4    0    0 -0.18221274740E+03 -0.25494334869E+03  0.27669763349E+03  0.42780456864E+03  0.90871184718E+02 0.  0.
         23    2    4    4    0    0  0.24105285289E+03  0.59954493512E+03  0.14124050051E+03  0.66797838080E+03  0.93196733447E+02 0.  0.
          4    1    3    3  502    0 -0.33388152266E+02 -0.18030119465E+03  0.88792349851E+03  0.90665948885E+03  0.00000000000E+00 0. -1.
         -3    1    3    3    0  502 -0.25451953230E+02 -0.16430039177E+03  0.51803644159E+03  0.54406265768E+03  0.00000000000E+00 0.  1.
         11    1    5    5    0    0 -0.13256181147E+03 -0.12705813215E+03  0.19631132557E+03  0.26880204492E+03  0.00000000000E+00 0. -1.
        -11    1    5    5    0    0 -0.49650935929E+02 -0.12788521654E+03  0.80386307920E+02  0.15900252372E+03  0.00000000000E+00 0.  1.
          4    1    6    6  503    0  0.15448833218E+03  0.25996241445E+03  0.68669320867E+02  0.31010091476E+03  0.00000000000E+00 0. -1.
         -4    1    6    6    0  503  0.86564520717E+02  0.33958252066E+03  0.72571179640E+02  0.35787746604E+03  0.00000000000E+00 0.  1.
<mgrwt>
<rscale>  0 0.17770999E+04</rscale>
<asrwt>0</asrwt>
<pdfrwt beam="1">  1        2 0.33618485E+00 0.17770999E+04</pdfrwt>
<pdfrwt beam="2">  1       -1 0.55585157E-01 0.17770999E+04</pdfrwt>
<totfact> 0.18561108E+01</totfact>
</mgrwt>
</event>
<event>
12    6  0.1542110E-007  0.1926129E+04  0.7818608E-02  0.8641958E-01
         -1   -1    0    0    0  501 -0.00000000000E+00  0.00000000000E+00  0.28867408169E+03  0.28867408169E+03  0.00000000000E+00 0.  1.
          2   -1    0    0  501    0  0.00000000000E+00 -0.00000000000E+00 -0.32129432338E+04  0.32129432338E+04  0.00000000000E+00 0. -1.
         24    2    1    2    0    0 -0.27739511397E+03 -0.46681532405E+03 -0.20467471341E+04  0.21190087178E+04  0.78482602819E+02 0.  0.
        254    2    1    2    0    0  0.27739511397E+03  0.46681532405E+03 -0.87752201803E+03  0.13826085978E+04  0.92016142413E+03 0.  0.
         23    2    4    4    0    0 -0.75251583822E+02  0.17878993382E+03  0.14429353186E+03  0.26014364286E+03  0.96049207602E+02 0.  0.
         23    2    4    4    0    0  0.35264669780E+03  0.28802539023E+03 -0.10218155499E+04  0.11224649549E+04  0.92207581594E+02 0.  0.
          4    1    3    3  502    0 -0.23728505046E+03 -0.43872221402E+03 -0.18958565300E+04  0.19603707197E+04  0.00000000000E+00 0. -1.
         -3    1    3    3    0  502 -0.40110063515E+02 -0.28093110026E+02 -0.15089060412E+03  0.15863799809E+03  0.00000000000E+00 0.  1.
         11    1    5    5    0    0 -0.87192467215E+02  0.15488075611E+03  0.89099421970E+02  0.19881972223E+03  0.00000000000E+00 0. -1.
        -11    1    5    5    0    0  0.11940883392E+02  0.23909177708E+02  0.55194109888E+02  0.61323920628E+02  0.00000000000E+00 0.  1.
          3    1    6    6  503    0  0.16736708975E+03  0.78748897052E+02 -0.39625083551E+03  0.43729607380E+03  0.00000000000E+00 0. -1.
         -3    1    6    6    0  503  0.18527960805E+03  0.20927649318E+03 -0.62556471438E+03  0.68516888110E+03  0.00000000000E+00 0.  1.
<mgrwt>
<rscale>  0 0.19261292E+04</rscale>
<asrwt>0</asrwt>
<pdfrwt beam="1">  1        2 0.49429895E+00 0.19261292E+04</pdfrwt>
<pdfrwt beam="2">  1       -1 0.44411398E-01 0.19261292E+04</pdfrwt>
<totfact> 0.68197970E+00</totfact>
</mgrwt>
</event>
<event>
12    6  0.1542110E-007  0.1567127E+04  0.7818608E-02  0.8841001E-01
          2   -1    0    0  501    0  0.00000000000E+00  0.00000000000E+00  0.10466285164E+04  0.10466285164E+04  0.00000000000E+00 0. -1.
         -1   -1    0    0    0  501 -0.00000000000E+00 -0.00000000000E+00 -0.58661889546E+03  0.58661889546E+03  0.00000000000E+00 0.  1.
         24    2    1    2    0    0 -0.41638440291E+03  0.48472047448E-01 -0.12340347366E+03  0.44178115338E+03  0.81032072918E+02 0.  0.
        254    2    1    2    0    0  0.41638440291E+03 -0.48472047448E-01  0.58341309455E+03  0.11914662584E+04  0.95175891525E+03 0.  0.
         23    2    4    4    0    0  0.14344863123E+03  0.30401909954E+03  0.67807637822E+03  0.76216061627E+03  0.89978373002E+02 0.  0.
         23    2    4    4    0    0  0.27293577168E+03 -0.30406757159E+03 -0.94663283674E+02  0.42930564216E+03  0.91603349077E+02 0.  0.
          4    1    3    3  502    0 -0.36019781474E+02  0.62074268463E+01 -0.36317563233E+02  0.51525937203E+02  0.00000000000E+00 0. -1.
         -3    1    3    3    0  502 -0.38036462143E+03 -0.61589547989E+01 -0.87085910423E+02  0.39025521618E+03  0.00000000000E+00 0.  1.
         11    1    5    5    0    0  0.14875981891E+03  0.30593659070E+03  0.65125732930E+03  0.73475355747E+03  0.00000000000E+00 0. -1.
        -11    1    5    5    0    0 -0.53111876794E+01 -0.19174911642E+01  0.26819048923E+02  0.27407058800E+02  0.00000000000E+00 0.  1.
          3    1    6    6  503    0  0.25881907534E+03 -0.24835587413E+03 -0.64699945465E+02  0.36449147715E+03  0.00000000000E+00 0. -1.
         -3    1    6    6    0  503  0.14116696340E+02 -0.55711697453E+02 -0.29963338209E+02  0.64814165005E+02  0.00000000000E+00 0.  1.
<mgrwt>
<rscale>  0 0.15671274E+04</rscale>
<asrwt>0</asrwt>
<pdfrwt beam="1">  1        2 0.16101977E+00 0.15671274E+04</pdfrwt>
<pdfrwt beam="2">  1       -1 0.90249061E-01 0.15671274E+04</pdfrwt>
<totfact> 0.30977620E+01</totfact>
</mgrwt>
</event>
<event>
12    6  0.1542110E-007  0.1946853E+04  0.7818608E-02  0.8631880E-01
          2   -1    0    0  501    0  0.00000000000E+00  0.00000000000E+00  0.14182383915E+04  0.14182383915E+04  0.00000000000E+00 0. -1.
         -1   -1    0    0    0  501 -0.00000000000E+00 -0.00000000000E+00 -0.66812369718E+03  0.66812369718E+03  0.00000000000E+00 0.  1.
         24    2    1    2    0    0  0.53156648417E+03 -0.44415467488E+03  0.65949576895E+03  0.95986311797E+03  0.81032300134E+02 0.  0.
        254    2    1    2    0    0 -0.53156648417E+03  0.44415467488E+03  0.90618925335E+02  0.11264989707E+04  0.88371479505E+03 0.  0.
         23    2    4    4    0    0 -0.76348431396E+03  0.40929034312E+03  0.81688414170E+02  0.87480798373E+03  0.90493805049E+02 0.  0.
         23    2    4    4    0    0  0.23191782979E+03  0.34864331764E+02  0.89305111652E+01  0.25169098695E+03  0.90924130347E+02 0.  0.
          4    1    3    3  502    0  0.17368368147E+03 -0.17629649625E+03  0.19373259441E+03  0.31429093836E+03  0.00000000000E+00 0. -1.
         -3    1    3    3    0  502  0.35788280270E+03 -0.26785817863E+03  0.46576317454E+03  0.64557217961E+03  0.00000000000E+00 0.  1.
         11    1    5    5    0    0 -0.70709274587E+03  0.35695880976E+03  0.91077471653E+02  0.79730474034E+03  0.00000000000E+00 0. -1.
        -11    1    5    5    0    0 -0.56391568090E+02  0.52331533355E+02 -0.93890574830E+01  0.77503243387E+02  0.00000000000E+00 0.  1.
          3    1    6    6  503    0  0.23313476001E+03  0.48026740811E+02  0.11131957723E+02  0.23829037883E+03  0.00000000000E+00 0. -1.
         -3    1    6    6    0  503 -0.12169302248E+01 -0.13162409047E+02 -0.22014465574E+01  0.13400608122E+02  0.00000000000E+00 0.  1.
<mgrwt>
<rscale>  0 0.19468525E+04</rscale>
<asrwt>0</asrwt>
<pdfrwt beam="1">  1        2 0.21819052E+00 0.19468525E+04</pdfrwt>
<pdfrwt beam="2">  1       -1 0.10278826E+00 0.19468525E+04</pdfrwt>
<totfact> 0.13437988E+01</totfact>
</mgrwt>
</event>
<event>
12    6  0.1542110E-007  0.1632664E+04  0.7818608E-02  0.8800729E-01
          2   -1    0    0  501    0  0.00000000000E+00  0.00000000000E+00  0.29251860314E+04  0.29251860314E+04  0.00000000000E+00 0. -1.
         -1   -1    0    0    0  501 -0.00000000000E+00 -0.00000000000E+00 -0.22781376104E+03  0.22781376104E+03  0.00000000000E+00 0.  1.
         24    2    1    2    0    0  0.41990789952E+01  0.34155050234E+03  0.18142214152E+04  0.18477096872E+04  0.77183980864E+02 0.  0.
        254    2    1    2    0    0 -0.41990789952E+01 -0.34155050234E+03  0.88315085508E+03  0.13052901052E+04  0.89841663379E+03 0.  0.
         23    2    4    4    0    0 -0.84372509453E+02  0.28604667765E+03  0.37717892362E+03  0.49007039908E+03  0.94676467453E+02 0.  0.
         23    2    4    4    0    0  0.80173430458E+02 -0.62759717999E+03  0.50597193146E+03  0.81521970607E+03  0.90937200642E+02 0.  0.
          4    1    3    3  502    0 -0.22706189309E+02  0.20405730419E+03  0.92442705736E+03  0.94695318723E+03  0.00000000000E+00 0. -1.
         -1    1    3    3    0  502  0.26905268304E+02  0.13749319815E+03  0.88979435789E+03  0.90075650002E+03  0.00000000000E+00 0.  1.
         11    1    5    5    0    0 -0.40077888632E+02  0.18786721780E+03  0.30486692147E+03  0.36033896333E+03  0.00000000000E+00 0. -1.
        -11    1    5    5    0    0 -0.44294620821E+02  0.98179459842E+02  0.72312002144E+02  0.12973143575E+03  0.00000000000E+00 0.  1.
          3    1    6    6  503    0 -0.11063606921E+02 -0.55459584736E+02  0.23397778071E+02  0.61201511059E+02  0.00000000000E+00 0. -1.
         -3    1    6    6    0  503  0.91237037379E+02 -0.57213759525E+03  0.48257415339E+03  0.75401819501E+03  0.00000000000E+00 0.  1.
<mgrwt>
<rscale>  0 0.16326636E+04</rscale>
<asrwt>0</asrwt>
<pdfrwt beam="1">  1        2 0.45002859E+00 0.16326636E+04</pdfrwt>
<pdfrwt beam="2">  1       -1 0.35048273E-01 0.16326636E+04</pdfrwt>
<totfact> 0.16423130E+01</totfact>
</mgrwt>
</event>
<event>
12    6  0.1542110E-007  0.2603888E+04  0.7818608E-02  0.8366882E-01
          2   -1    0    0  501    0  0.00000000000E+00  0.00000000000E+00  0.20797470211E+04  0.20797470211E+04  0.00000000000E+00 0. -1.
         -1   -1    0    0    0  501 -0.00000000000E+00 -0.00000000000E+00 -0.81503112471E+03  0.81503112471E+03  0.00000000000E+00 0.  1.
         24    2    1    2    0    0  0.69941239992E+03 -0.61612097074E+03  0.12891099614E+04  0.15928821566E+04  0.81769898357E+02 0.  0.
        254    2    1    2    0    0 -0.69941239992E+03  0.61612097074E+03 -0.24394065036E+02  0.13018959893E+04  0.90860075980E+03 0.  0.
         23    2    4    4    0    0 -0.44189187902E+03  0.62703227939E+03  0.34200077863E+03  0.84483233227E+03  0.91319356795E+02 0.  0.
         23    2    4    4    0    0 -0.25752052091E+03 -0.10911308650E+02 -0.36639484366E+03  0.45706365700E+03  0.90698014014E+02 0.  0.
          4    1    3    3  502    0  0.68185685008E+03 -0.57966692466E+03  0.12405370657E+04  0.15296649041E+04  0.00000000000E+00 0. -1.
         -3    1    3    3    0  502  0.17555549840E+02 -0.36454046072E+02  0.48572895790E+02  0.63217252476E+02  0.00000000000E+00 0.  1.
         11    1    5    5    0    0 -0.41292994744E+02  0.49214276856E+02  0.31062339398E+01  0.64318000207E+02  0.00000000000E+00 0. -1.
        -11    1    5    5    0    0 -0.40059888427E+03  0.57781800253E+03  0.33889454469E+03  0.78051433206E+03  0.00000000000E+00 0.  1.
          2    1    6    6  503    0 -0.26177177518E+02  0.56230453402E+01 -0.43887093351E+01  0.27131605764E+02  0.00000000000E+00 0. -1.
         -2    1    6    6    0  503 -0.23134334339E+03 -0.16534353990E+02 -0.36200613433E+03  0.42993205124E+03  0.00000000000E+00 0.  1.
<mgrwt>
<rscale>  0 0.26038883E+04</rscale>
<asrwt>0</asrwt>
<pdfrwt beam="1">  1        2 0.31996108E+00 0.26038883E+04</pdfrwt>
<pdfrwt beam="2">  1       -1 0.12538940E+00 0.26038883E+04</pdfrwt>
<totfact> 0.33688642E+00</totfact>
</mgrwt>
</event>
<event>
12    6  0.1542110E-007  0.1926229E+04  0.7818608E-02  0.8641910E-01
         -1   -1    0    0    0  501 -0.00000000000E+00  0.00000000000E+00  0.45627724036E+03  0.45627724036E+03  0.00000000000E+00 0.  1.
          2   -1    0    0  501    0  0.00000000000E+00 -0.00000000000E+00 -0.20329516778E+04  0.20329516778E+04  0.00000000000E+00 0. -1.
         24    2    1    2    0    0 -0.56785171706E+03  0.23800396179E+03 -0.12082167644E+04  0.13583609345E+04  0.79089949150E+02 0.  0.
        254    2    1    2    0    0  0.56785171706E+03 -0.23800396179E+03 -0.36845767304E+03  0.11308679837E+04  0.87407086748E+03 0.  0.
         23    2    4    4    0    0  0.52740846304E+03 -0.49442437246E+03 -0.43491332581E+03  0.84851345150E+03  0.90610868207E+02 0.  0.
         23    2    4    4    0    0  0.40443254015E+02  0.25642041067E+03  0.66455652770E+02  0.28235453221E+03  0.88998001514E+02 0.  0.
          4    1    3    3  502    0 -0.33146016718E+03  0.15828895812E+03 -0.64262398996E+03  0.74019377812E+03  0.00000000000E+00 0. -1.
         -3    1    3    3    0  502 -0.23639154987E+03  0.79715003666E+02 -0.56559277447E+03  0.61816715635E+03  0.00000000000E+00 0.  1.
         11    1    5    5    0    0  0.43320880270E+03 -0.35418651843E+03 -0.32908164386E+03  0.64916306495E+03  0.00000000000E+00 0. -1.
        -11    1    5    5    0    0  0.94199660341E+02 -0.14023785403E+03 -0.10583168195E+03  0.19935038655E+03  0.00000000000E+00 0.  1.
          4    1    6    6  503    0 -0.25855577241E+02  0.10351519839E+03  0.13857465847E+02  0.10759152630E+03  0.00000000000E+00 0. -1.
         -4    1    6    6    0  503  0.66298831256E+02  0.15290521228E+03  0.52598186922E+02  0.17476300591E+03  0.00000000000E+00 0.  1.
<mgrwt>
<rscale>  0 0.19262290E+04</rscale>
<asrwt>0</asrwt>
<pdfrwt beam="1">  1        2 0.31276179E+00 0.19262290E+04</pdfrwt>
<pdfrwt beam="2">  1       -1 0.70196499E-01 0.19262290E+04</pdfrwt>
<totfact> 0.13981315E+01</totfact>
</mgrwt>
</event>
<event>
12    6  0.1542110E-007  0.2443761E+04  0.7818608E-02  0.8423299E-01
         -1   -1    0    0    0  501 -0.00000000000E+00  0.00000000000E+00  0.79224461256E+03  0.79224461256E+03  0.00000000000E+00 0.  1.
          2   -1    0    0  501    0  0.00000000000E+00 -0.00000000000E+00 -0.18845088446E+04  0.18845088446E+04  0.00000000000E+00 0. -1.
         24    2    1    2    0    0  0.15386177505E+03  0.10372271445E+04 -0.45352599960E+03  0.11452011296E+04  0.79285558129E+02 0.  0.
        254    2    1    2    0    0 -0.15386177505E+03 -0.10372271445E+04 -0.63873823247E+03  0.15315523276E+04  0.91550663974E+03 0.  0.
         23    2    4    4    0    0 -0.51970908160E+02 -0.24617810414E+03 -0.67688344353E+03  0.72789425970E+03  0.91401438355E+02 0.  0.
         23    2    4    4    0    0 -0.10189086689E+03 -0.79104904038E+03  0.38145211052E+02  0.80365806790E+03  0.90944488232E+02 0.  0.
          4    1    3    3  502    0  0.19207513314E+02  0.12497565559E+03 -0.27449304292E+02  0.12938820411E+03  0.00000000000E+00 0. -1.
         -1    1    3    3    0  502  0.13465426174E+03  0.91225148893E+03 -0.42607669531E+03  0.10158129255E+04  0.00000000000E+00 0.  1.
         11    1    5    5    0    0 -0.36091768279E+01  0.72116454264E+01 -0.38982439508E+02  0.39807845673E+02  0.00000000000E+00 0.  1.
        -11    1    5    5    0    0 -0.48361731332E+02 -0.25338974957E+03 -0.63790100402E+03  0.68808641403E+03  0.00000000000E+00 0. -1.
          3    1    6    6  503    0 -0.55362678046E+02 -0.14830713606E+03  0.10040914167E+02  0.15862172828E+03  0.00000000000E+00 0. -1.
         -3    1    6    6    0  503 -0.46528188843E+02 -0.64274190432E+03  0.28104296885E+02  0.64503633962E+03  0.00000000000E+00 0.  1.
<mgrwt>
<rscale>  0 0.24437610E+04</rscale>
<asrwt>0</asrwt>
<pdfrwt beam="1">  1        2 0.28992443E+00 0.24437610E+04</pdfrwt>
<pdfrwt beam="2">  1       -1 0.12188379E+00 0.24437610E+04</pdfrwt>
<totfact> 0.47058748E+00</totfact>
</mgrwt>
</event>
<event>
12    6  0.1542110E-007  0.1925243E+04  0.7818608E-02  0.8642392E-01
          2   -1    0    0  501    0  0.00000000000E+00  0.00000000000E+00  0.17203519506E+04  0.17203519506E+04  0.00000000000E+00 0. -1.
         -1   -1    0    0    0  501 -0.00000000000E+00 -0.00000000000E+00 -0.53863393836E+03  0.53863393836E+03  0.00000000000E+00 0.  1.
         24    2    1    2    0    0 -0.72053714567E+03 -0.19011472934E+03  0.45049697288E+03  0.87426207847E+03  0.77905523986E+02 0.  0.
        254    2    1    2    0    0  0.72053714567E+03  0.19011472934E+03  0.73122103931E+03  0.13847238105E+04  0.90964742307E+03 0.  0.
         23    2    4    4    0    0  0.77486759415E+03  0.96441416766E+02  0.87978495218E+03  0.11799269023E+04  0.92115131583E+02 0.  0.
         23    2    4    4    0    0 -0.54330448475E+02  0.93673312570E+02 -0.14856391287E+03  0.20479690811E+03  0.90244391761E+02 0.  0.
          2    1    3    3  502    0 -0.57835510975E+03 -0.15472211261E+03  0.32428910439E+03  0.68087956962E+03  0.00000000000E+00 0. -1.
         -1    1    3    3    0  502 -0.14218203592E+03 -0.35392616730E+02  0.12620786850E+03  0.19338250885E+03  0.00000000000E+00 0.  1.
         11    1    5    5    0    0  0.78884256711E+01  0.77524666033E+01  0.26259323099E+01  0.11367652286E+02  0.00000000000E+00 0.  1.
        -11    1    5    5    0    0  0.76697916848E+03  0.88688950163E+02  0.87715901987E+03  0.11685592501E+04  0.00000000000E+00 0. -1.
          3    1    6    6  503    0 -0.34535366793E+02  0.58779745920E+01 -0.92135086213E+02  0.98570361956E+02  0.00000000000E+00 0. -1.
         -3    1    6    6    0  503 -0.19795081683E+02  0.87795337978E+02 -0.56428826656E+02  0.10622654615E+03  0.00000000000E+00 0.  1.
<mgrwt>
<rscale>  0 0.19252428E+04</rscale>
<asrwt>0</asrwt>
<pdfrwt beam="1">  1        2 0.26466953E+00 0.19252428E+04</pdfrwt>
<pdfrwt beam="2">  1       -1 0.82866760E-01 0.19252428E+04</pdfrwt>
<totfact> 0.14712159E+01</totfact>
</mgrwt>
</event>
<event>
12    6  0.1542110E-007  0.1861730E+04  0.7818608E-02  0.8674144E-01
         -1   -1    0    0    0  501 -0.00000000000E+00  0.00000000000E+00  0.51544162135E+03  0.51544162135E+03  0.00000000000E+00 0.  1.
          2   -1    0    0  501    0  0.00000000000E+00 -0.00000000000E+00 -0.16811020988E+04  0.16811020988E+04  0.00000000000E+00 0. -1.
         24    2    1    2    0    0 -0.30463664406E+03  0.59931115024E+03 -0.22993415071E+03  0.71529591449E+03  0.82469339193E+02 0.  0.
        254    2    1    2    0    0  0.30463664406E+03 -0.59931115024E+03 -0.93572632671E+03  0.14812478056E+04  0.93087806046E+03 0.  0.
         23    2    4    4    0    0 -0.12559115093E+03 -0.63365845314E+03 -0.77079998925E+03  0.10099541022E+04  0.92620152245E+02 0.  0.
         23    2    4    4    0    0  0.43022779499E+03  0.34347302900E+02 -0.16492633746E+03  0.47129370347E+03  0.92958944396E+02 0.  0.
          2    1    3    3  502    0 -0.19568980323E+03  0.33015294125E+03 -0.96520546217E+02  0.39574193554E+03  0.00000000000E+00 0. -1.
         -3    1    3    3    0  502 -0.10894684083E+03  0.26915820899E+03 -0.13341360449E+03  0.31955397894E+03  0.00000000000E+00 0.  1.
         11    1    5    5    0    0 -0.11188262113E+01 -0.89179026789E+01 -0.37688094342E+02  0.38744976647E+02  0.00000000000E+00 0. -1.
        -11    1    5    5    0    0 -0.12447232471E+03 -0.62474055047E+03 -0.73311189491E+03  0.97120912551E+03  0.00000000000E+00 0.  1.
          1    1    6    6  503    0 -0.14414659492E+01 -0.70993928638E+01 -0.60954654640E+01  0.94675182777E+01  0.00000000000E+00 0. -1.
         -1    1    6    6    0  503  0.43166926094E+03  0.41446695764E+02 -0.15883087200E+03  0.46182618519E+03  0.00000000000E+00 0.  1.
<mgrwt>
<rscale>  0 0.18617304E+04</rscale>
<asrwt>0</asrwt>
<pdfrwt beam="1">  1        2 0.25863109E+00 0.18617304E+04</pdfrwt>
<pdfrwt beam="2">  1       -1 0.79298711E-01 0.18617304E+04</pdfrwt>
<totfact> 0.17088394E+01</totfact>
</mgrwt>
</event>
<event>
12    6  0.1542110E-007  0.2015484E+04  0.7818608E-02  0.8599416E-01
         -1   -1    0    0    0  501 -0.00000000000E+00  0.00000000000E+00  0.30943694119E+03  0.30943694119E+03  0.00000000000E+00 0.  1.
          2   -1    0    0  501    0  0.00000000000E+00 -0.00000000000E+00 -0.32819080464E+04  0.32819080464E+04  0.00000000000E+00 0. -1.
         24    2    1    2    0    0 -0.74994970578E+03  0.25777190949E+03 -0.15312942926E+04  0.17263268113E+04  0.80443336317E+02 0.  0.
        254    2    1    2    0    0  0.74994970578E+03 -0.25777190949E+03 -0.14411768126E+04  0.18650181763E+04  0.87888069388E+03 0.  0.
         23    2    4    4    0    0 -0.18683033034E+03 -0.72212768082E+02 -0.33768454478E+03  0.40297021820E+03  0.90740777863E+02 0.  0.
         23    2    4    4    0    0  0.93678003613E+03 -0.18555914141E+03 -0.11034922678E+04  0.14620479580E+04  0.88882031221E+02 0.  0.
          4    1    3    3  502    0 -0.29889091425E+03  0.13504956838E+03 -0.68648756812E+03  0.76081492213E+03  0.00000000000E+00 0. -1.
         -1    1    3    3    0  502 -0.45105879154E+03  0.12272234111E+03 -0.84480672446E+03  0.96551188916E+03  0.00000000000E+00 0.  1.
         11    1    5    5    0    0 -0.15494316688E+03 -0.17061065201E+02 -0.22980992104E+03  0.27768879112E+03  0.00000000000E+00 0. -1.
        -11    1    5    5    0    0 -0.31887163466E+02 -0.55151702881E+02 -0.10787462374E+03  0.12528142708E+03  0.00000000000E+00 0.  1.
          3    1    6    6  503    0  0.72726955129E+03 -0.17087184408E+03 -0.82084774552E+03  0.11099140546E+04  0.00000000000E+00 0. -1.
         -3    1    6    6    0  503  0.20951048484E+03 -0.14687297331E+02 -0.28264452229E+03  0.35213390342E+03  0.00000000000E+00 0.  1.
<mgrwt>
<rscale>  0 0.20154837E+04</rscale>
<asrwt>0</asrwt>
<pdfrwt beam="1">  1        2 0.50490893E+00 0.20154837E+04</pdfrwt>
<pdfrwt beam="2">  1       -1 0.47605684E-01 0.20154837E+04</pdfrwt>
<totfact> 0.53493253E+00</totfact>
</mgrwt>
</event>
<event>
12    6  0.1542110E-007  0.1710460E+04  0.7818608E-02  0.8755421E-01
         -1   -1    0    0    0  501 -0.00000000000E+00  0.00000000000E+00  0.39970270070E+03  0.39970270070E+03  0.00000000000E+00 0.  1.
          2   -1    0    0  501    0  0.00000000000E+00 -0.00000000000E+00 -0.18299059946E+04  0.18299059946E+04  0.00000000000E+00 0. -1.
         24    2    1    2    0    0 -0.44871076214E+03  0.39158711834E+03 -0.71054275543E+03  0.93058992042E+03  0.80279345912E+02 0.  0.
        254    2    1    2    0    0  0.44871076214E+03 -0.39158711834E+03 -0.71966053846E+03  0.12990187749E+04  0.90269411628E+03 0.  0.
         23    2    4    4    0    0  0.50093152687E+03 -0.18338386408E+03  0.10715849509E+01  0.54143480646E+03  0.92673972232E+02 0.  0.
         23    2    4    4    0    0 -0.52220764733E+02 -0.20820325426E+03 -0.72073212341E+03  0.75758396842E+03  0.91668272270E+02 0.  0.
          4    1    3    3  502    0 -0.33207797903E+03  0.30120474938E+03 -0.58372528037E+03  0.73602668984E+03  0.00000000000E+00 0. -1.
         -3    1    3    3    0  502 -0.11663278311E+03  0.90382368957E+02 -0.12681747506E+03  0.19456323058E+03  0.00000000000E+00 0.  1.
         11    1    5    5    0    0  0.41904419948E+03 -0.16281364748E+03 -0.32131847860E+02  0.45070919734E+03  0.00000000000E+00 0. -1.
        -11    1    5    5    0    0  0.81887327392E+02 -0.20570216599E+02  0.33203432811E+02  0.90725609112E+02  0.00000000000E+00 0.  1.
          2    1    6    6  503    0 -0.67293965550E+02 -0.20687207035E+03 -0.65695934500E+03  0.69204054236E+03  0.00000000000E+00 0. -1.
         -2    1    6    6    0  503  0.15073200818E+02 -0.13311839107E+01 -0.63772778416E+02  0.65543426066E+02  0.00000000000E+00 0.  1.
<mgrwt>
<rscale>  0 0.17104600E+04</rscale>
<asrwt>0</asrwt>
<pdfrwt beam="1">  1        2 0.28152400E+00 0.17104600E+04</pdfrwt>
<pdfrwt beam="2">  1       -1 0.61492724E-01 0.17104600E+04</pdfrwt>
<totfact> 0.24123904E+01</totfact>
</mgrwt>
</event>
<event>
12    6  0.1542110E-007  0.3195150E+04  0.7818608E-02  0.8190099E-01
         -3   -1    0    0    0  501 -0.00000000000E+00  0.00000000000E+00  0.91279588459E+03  0.91279588459E+03  0.00000000000E+00 0.  1.
          2   -1    0    0  501    0  0.00000000000E+00 -0.00000000000E+00 -0.27960753610E+04  0.27960753610E+04  0.00000000000E+00 0. -1.
         24    2    1    2    0    0  0.15105895552E+03  0.16054867461E+03 -0.25560368646E+04  0.25669164741E+04  0.84504715118E+02 0.  0.
        254    2    1    2    0    0 -0.15105895552E+03 -0.16054867461E+03  0.67275738820E+03  0.11419547715E+04  0.89602651285E+03 0.  0.
         23    2    4    4    0    0  0.22622474054E+03  0.45727429712E+02  0.65688353206E+03  0.70231348355E+03  0.92084870769E+02 0.  0.
         23    2    4    4    0    0 -0.37728369606E+03 -0.20627610432E+03  0.15873856145E+02  0.43964128792E+03  0.90220087607E+02 0.  0.
          4    1    3    3  502    0  0.94667169824E+02  0.91990878918E+02 -0.19438820017E+04  0.19483586506E+04  0.00000000000E+00 0. -1.
         -3    1    3    3    0  502  0.56391785698E+02  0.68557795690E+02 -0.61215486295E+03  0.61855782355E+03  0.00000000000E+00 0.  1.
         11    1    5    5    0    0  0.19246495115E+03  0.35940888035E+02  0.62467063473E+03  0.65463570537E+03  0.00000000000E+00 0. -1.
        -11    1    5    5    0    0  0.33759789390E+02  0.97865416775E+01  0.32212897331E+02  0.47677778180E+02  0.00000000000E+00 0.  1.
          2    1    6    6  503    0 -0.25117172620E+03 -0.10959567294E+03  0.46082959220E+02  0.27788862283E+03  0.00000000000E+00 0. -1.
         -2    1    6    6    0  503 -0.12611196986E+03 -0.96680431378E+02 -0.30209103076E+02  0.16175266508E+03  0.00000000000E+00 0.  1.
<mgrwt>
<rscale>  0 0.31951501E+04</rscale>
<asrwt>0</asrwt>
<pdfrwt beam="1">  1        2 0.43016544E+00 0.31951501E+04</pdfrwt>
<pdfrwt beam="2">  1       -3 0.14043014E+00 0.31951501E+04</pdfrwt>
<totfact> 0.47660090E-01</totfact>
</mgrwt>
</event>
<event>
12    6  0.1542110E-007  0.1324808E+04  0.7818608E-02  0.9010120E-01
         -1   -1    0    0    0  501 -0.00000000000E+00  0.00000000000E+00  0.43903793677E+03  0.43903793677E+03  0.00000000000E+00 0.  1.
          2   -1    0    0  501    0  0.00000000000E+00 -0.00000000000E+00 -0.99941006482E+03  0.99941006482E+03  0.00000000000E+00 0. -1.
         24    2    1    2    0    0  0.25686603620E+03 -0.18657677183E+03 -0.30914813252E+03  0.45006148346E+03  0.78687474900E+02 0.  0.
        254    2    1    2    0    0 -0.25686603620E+03  0.18657677183E+03 -0.25122399553E+03  0.98838651813E+03  0.90166699005E+03 0.  0.
         23    2    4    4    0    0 -0.37231038688E+03  0.41614049852E+03  0.66358314100E+02  0.56949613802E+03  0.90191389242E+02 0.  0.
         23    2    4    4    0    0  0.11544435067E+03 -0.22956372668E+03 -0.31758230963E+03  0.41889038010E+03  0.92648391492E+02 0.  0.
          2    1    3    3  502    0  0.14041886595E+02  0.30701377568E+01 -0.34261815424E+02  0.37154707926E+02  0.00000000000E+00 0. -1.
         -1    1    3    3    0  502  0.24282414961E+03 -0.18964690959E+03 -0.27488631710E+03  0.41290677553E+03  0.00000000000E+00 0.  1.
         11    1    5    5    0    0 -0.12579214351E+03  0.11729972003E+03  0.59629165550E+02  0.18203989967E+03  0.00000000000E+00 0. -1.
        -11    1    5    5    0    0 -0.24651824336E+03  0.29884077849E+03  0.67291485505E+01  0.38745623835E+03  0.00000000000E+00 0.  1.
          3    1    6    6  503    0 -0.13496177656E+01 -0.31354483969E+02 -0.66167081745E+01  0.32073446340E+02  0.00000000000E+00 0. -1.
         -3    1    6    6    0  503  0.11679396844E+03 -0.19820924271E+03 -0.31096560145E+03  0.38681693376E+03  0.00000000000E+00 0.  1.
<mgrwt>
<rscale>  0 0.13248078E+04</rscale>
<asrwt>0</asrwt>
<pdfrwt beam="1">  1        2 0.15375539E+00 0.13248078E+04</pdfrwt>
<pdfrwt beam="2">  1       -1 0.67544299E-01 0.13248078E+04</pdfrwt>
<totfact> 0.62480303E+01</totfact>
</mgrwt>
</event>
<event>
12    6  0.1542110E-007  0.1729626E+04  0.7818608E-02  0.8744646E-01
          2   -1    0    0  501    0  0.00000000000E+00  0.00000000000E+00  0.71105917448E+03  0.71105917448E+03  0.00000000000E+00 0. -1.
         -1   -1    0    0    0  501 -0.00000000000E+00 -0.00000000000E+00 -0.10518132018E+04  0.10518132018E+04  0.00000000000E+00 0.  1.
         24    2    1    2    0    0  0.51065913349E+03  0.19931487060E+03 -0.42470122066E+03  0.69803568533E+03  0.79896951813E+02 0.  0.
        254    2    1    2    0    0 -0.51065913349E+03 -0.19931487060E+03  0.83947193382E+02  0.10648366909E+04  0.90902743564E+03 0.  0.
         23    2    4    4    0    0 -0.71233483959E+03  0.86520498301E+01 -0.73759531442E+02  0.72235088792E+03  0.94098645777E+02 0.  0.
         23    2    4    4    0    0  0.20167570611E+03 -0.20796692043E+03  0.15770672482E+03  0.34248580298E+03  0.92205117860E+02 0.  0.
          4    1    3    3  502    0  0.98428358647E+02  0.48746081507E+02 -0.48806619019E+02  0.12019321241E+03  0.00000000000E+00 0. -1.
         -1    1    3    3    0  502  0.41223077484E+03  0.15056878910E+03 -0.37589460164E+03  0.57784247293E+03  0.00000000000E+00 0.  1.
         11    1    5    5    0    0 -0.44824846594E+03 -0.24617983089E+02 -0.11891227149E+02  0.44908143314E+03  0.00000000000E+00 0.  1.
        -11    1    5    5    0    0 -0.26408637366E+03  0.33270032919E+02 -0.61868304293E+02  0.27326945478E+03  0.00000000000E+00 0. -1.
          4    1    6    6  503    0  0.19957427701E+03 -0.18834332941E+03  0.11913706642E+03  0.29916006145E+03  0.00000000000E+00 0. -1.
         -4    1    6    6    0  503  0.21014290997E+01 -0.19623591026E+02  0.38569658408E+02  0.43325741525E+02  0.00000000000E+00 0.  1.
<mgrwt>
<rscale>  0 0.17296259E+04</rscale>
<asrwt>0</asrwt>
<pdfrwt beam="1">  1        2 0.10939372E+00 0.17296259E+04</pdfrwt>
<pdfrwt beam="2">  1       -1 0.16181742E+00 0.17296259E+04</pdfrwt>
<totfact> 0.12327694E+01</totfact>
</mgrwt>
</event>
<event>
12    6  0.1542110E-007  0.1970394E+04  0.7818608E-02  0.8620589E-01
         -1   -1    0    0    0  501 -0.00000000000E+00  0.00000000000E+00  0.81750558127E+03  0.81750558127E+03  0.00000000000E+00 0.  1.
          2   -1    0    0  501    0  0.00000000000E+00 -0.00000000000E+00 -0.11872863558E+04  0.11872863558E+04  0.00000000000E+00 0. -1.
         24    2    1    2    0    0  0.14728381756E+03 -0.35639661890E+03 -0.83092933273E+03  0.91951534897E+03  0.79711028824E+02 0.  0.
        254    2    1    2    0    0 -0.14728381756E+03  0.35639661890E+03  0.46114855823E+03  0.10852765881E+04  0.90357966278E+03 0.  0.
         23    2    4    4    0    0 -0.36702841026E+03  0.53998270839E+02  0.56937179393E+03  0.68533505948E+03  0.88736896732E+02 0.  0.
         23    2    4    4    0    0  0.21974459270E+03  0.30239834806E+03 -0.10822323570E+03  0.39994152859E+03  0.92241588319E+02 0.  0.
          2    1    3    3  502    0  0.13929613334E+03 -0.34689450630E+03 -0.82503935536E+03  0.90577544080E+03  0.00000000000E+00 0. -1.
         -1    1    3    3    0  502  0.79876842187E+01 -0.95021125966E+01 -0.58899773713E+01  0.13739908166E+02  0.00000000000E+00 0.  1.
         11    1    5    5    0    0 -0.31056142492E+03  0.63202975798E+02  0.42592838704E+03  0.53090300968E+03  0.00000000000E+00 0. -1.
        -11    1    5    5    0    0 -0.56466985336E+02 -0.92047049592E+01  0.14344340689E+03  0.15443204980E+03  0.00000000000E+00 0.  1.
          2    1    6    6  503    0  0.13008947807E+03  0.22527933299E+03 -0.10802986982E+03  0.28168156302E+03  0.00000000000E+00 0. -1.
         -2    1    6    6    0  503  0.89655114631E+02  0.77119015074E+02 -0.19336588389E+00  0.11825996557E+03  0.00000000000E+00 0.  1.
<mgrwt>
<rscale>  0 0.19703941E+04</rscale>
<asrwt>0</asrwt>
<pdfrwt beam="1">  1        2 0.18265944E+00 0.19703941E+04</pdfrwt>
<pdfrwt beam="2">  1       -1 0.12577009E+00 0.19703941E+04</pdfrwt>
<totfact> 0.11281702E+01</totfact>
</mgrwt>
</event>
<event>
12    6  0.1542110E-007  0.1420305E+04  0.7818608E-02  0.8939251E-01
         -3   -1    0    0    0  501 -0.00000000000E+00  0.00000000000E+00  0.88607287330E+03  0.88607287330E+03  0.00000000000E+00 0.  1.
          2   -1    0    0  501    0  0.00000000000E+00 -0.00000000000E+00 -0.56915905505E+03  0.56915905505E+03  0.00000000000E+00 0. -1.
         24    2    1    2    0    0 -0.12054350047E+03  0.27876609364E+03 -0.20574616227E+03  0.37528553147E+03  0.79161078623E+02 0.  0.
        254    2    1    2    0    0  0.12054350047E+03 -0.27876609364E+03  0.52265998052E+03  0.10799463969E+04  0.89491312116E+03 0.  0.
         23    2    4    4    0    0  0.28596138638E+03 -0.10342598236E+03 -0.15572521184E+03  0.35400990821E+03  0.92746025134E+02 0.  0.
         23    2    4    4    0    0 -0.16541788591E+03 -0.17534011129E+03  0.67838519237E+03  0.72593648867E+03  0.93113289942E+02 0.  0.
          2    1    3    3  502    0 -0.60103778199E+02  0.21833480119E+03 -0.16738280906E+03  0.28160176550E+03  0.00000000000E+00 0. -1.
         -1    1    3    3    0  502 -0.60439722275E+02  0.60431292457E+02 -0.38363353207E+02  0.93683765968E+02  0.00000000000E+00 0.  1.
         11    1    5    5    0    0  0.28522807862E+02 -0.36139068061E+02 -0.49230442901E+02  0.67403407309E+02  0.00000000000E+00 0.  1.
        -11    1    5    5    0    0  0.25743857852E+03 -0.67286914296E+02 -0.10649476894E+03  0.28660650090E+03  0.00000000000E+00 0. -1.
          1    1    6    6  503    0 -0.13257474583E+03 -0.16731383026E+03  0.48910819706E+03  0.53366357330E+03  0.00000000000E+00 0. -1.
         -1    1    6    6    0  503 -0.32843140074E+02 -0.80262810246E+01  0.18927699530E+03  0.19227291538E+03  0.00000000000E+00 0.  1.
<mgrwt>
<rscale>  0 0.14203048E+04</rscale>
<asrwt>0</asrwt>
<pdfrwt beam="1">  1        2 0.87562932E-01 0.14203048E+04</pdfrwt>
<pdfrwt beam="2">  1       -3 0.13631890E+00 0.14203048E+04</pdfrwt>
<totfact> 0.13308132E+01</totfact>
</mgrwt>
</event>
<event>
12    6  0.1542110E-007  0.1283562E+04  0.7818608E-02  0.9042703E-01
         -1   -1    0    0    0  501 -0.00000000000E+00  0.00000000000E+00  0.34565077636E+03  0.34565077636E+03  0.00000000000E+00 0.  1.
          2   -1    0    0  501    0  0.00000000000E+00 -0.00000000000E+00 -0.11916162111E+04  0.11916162111E+04  0.00000000000E+00 0. -1.
         24    2    1    2    0    0  0.28385895635E+02  0.13014193423E+03 -0.56218387195E+03  0.58343444620E+03  0.81254938391E+02 0.  0.
        254    2    1    2    0    0 -0.28385895635E+02 -0.13014193423E+03 -0.28378156280E+03  0.95383254127E+03  0.90084508063E+03 0.  0.
         23    2    4    4    0    0 -0.35251317455E+03 -0.27317813037E+03  0.50841457626E+02  0.45801328200E+03  0.91101501240E+02 0.  0.
         23    2    4    4    0    0  0.32412727892E+03  0.14303619614E+03 -0.33462302042E+03  0.49581925927E+03  0.91358227422E+02 0.  0.
          2    1    3    3  502    0  0.34387984665E+02  0.11949774811E+03 -0.35978766633E+03  0.38066968639E+03  0.00000000000E+00 0. -1.
         -1    1    3    3    0  502 -0.60020890300E+01  0.10644186122E+02 -0.20239620562E+03  0.20276475981E+03  0.00000000000E+00 0.  1.
         11    1    5    5    0    0 -0.58784633520E+02 -0.71016319225E+02 -0.20329744535E+02  0.94404709879E+02  0.00000000000E+00 0.  1.
        -11    1    5    5    0    0 -0.29372854103E+03 -0.20216181115E+03  0.71171202161E+02  0.36360857212E+03  0.00000000000E+00 0. -1.
          1    1    6    6  503    0  0.26292419010E+03  0.11142822898E+03 -0.21376101140E+03  0.35670597128E+03  0.00000000000E+00 0. -1.
         -1    1    6    6    0  503  0.61203088820E+02  0.31607967167E+02 -0.12086200903E+03  0.13911328799E+03  0.00000000000E+00 0.  1.
<mgrwt>
<rscale>  0 0.12835623E+04</rscale>
<asrwt>0</asrwt>
<pdfrwt beam="1">  1        2 0.18332557E+00 0.12835623E+04</pdfrwt>
<pdfrwt beam="2">  1       -1 0.53177043E-01 0.12835623E+04</pdfrwt>
<totfact> 0.76441556E+01</totfact>
</mgrwt>
</event>
<event>
12    6  0.1542110E-007  0.1816915E+04  0.7818608E-02  0.8697356E-01
         -1   -1    0    0    0  501 -0.00000000000E+00  0.00000000000E+00  0.13001931821E+04  0.13001931821E+04  0.00000000000E+00 0.  1.
          2   -1    0    0  501    0  0.00000000000E+00 -0.00000000000E+00 -0.63474767858E+03  0.63474767858E+03  0.00000000000E+00 0. -1.
         24    2    1    2    0    0 -0.57748473893E+03 -0.34067379218E+03  0.43513021502E+03  0.80302650851E+03  0.77239970025E+02 0.  0.
        254    2    1    2    0    0  0.57748473893E+03  0.34067379218E+03  0.23031528846E+03  0.11319143521E+04  0.88240450593E+03 0.  0.
         23    2    4    4    0    0  0.16603597266E+02 -0.25828700307E+03  0.11816186683E+03  0.29854656889E+03  0.90443195569E+02 0.  0.
         23    2    4    4    0    0  0.56088114166E+03  0.59896079526E+03  0.11215342163E+03  0.83336778324E+03  0.92637912495E+02 0.  0.
          4    1    3    3  502    0 -0.16710472539E+03 -0.60494004945E+02  0.10422697250E+03  0.20602615290E+03  0.00000000000E+00 0. -1.
         -3    1    3    3    0  502 -0.41038001354E+03 -0.28017978724E+03  0.33090324252E+03  0.59700035561E+03  0.00000000000E+00 0.  1.
         11    1    5    5    0    0 -0.22216488547E+02 -0.12708476790E+03  0.93951464210E+02  0.15959632898E+03  0.00000000000E+00 0. -1.
        -11    1    5    5    0    0  0.38820085812E+02 -0.13120223517E+03  0.24210402616E+02  0.13895023991E+03  0.00000000000E+00 0.  1.
          4    1    6    6  503    0  0.22652591812E+03  0.26682138350E+03  0.49627181819E+01  0.35004609817E+03  0.00000000000E+00 0. -1.
         -4    1    6    6    0  503  0.33435522354E+03  0.33213941176E+03  0.10719070345E+03  0.48332168507E+03  0.00000000000E+00 0.  1.
<mgrwt>
<rscale>  0 0.18169145E+04</rscale>
<asrwt>0</asrwt>
<pdfrwt beam="1">  1        2 0.97653489E-01 0.18169145E+04</pdfrwt>
<pdfrwt beam="2">  1       -1 0.20002972E+00 0.18169145E+04</pdfrwt>
<totfact> 0.74984883E+00</totfact>
</mgrwt>
</event>
<event>
12    6  0.1542110E-007  0.1362897E+04  0.7818608E-02  0.8981122E-01
          2   -1    0    0  501    0  0.00000000000E+00  0.00000000000E+00  0.13895841313E+04  0.13895841313E+04  0.00000000000E+00 0. -1.
         -1   -1    0    0    0  501 -0.00000000000E+00 -0.00000000000E+00 -0.33418054076E+03  0.33418054076E+03  0.00000000000E+00 0.  1.
         24    2    1    2    0    0  0.26032916830E+03  0.18473684397E+03  0.33001032740E+02  0.33009633350E+03  0.77301641898E+02 0.  0.
        254    2    1    2    0    0 -0.26032916830E+03 -0.18473684397E+03  0.10224025578E+04  0.13936683385E+04  0.89168686786E+03 0.  0.
         23    2    4    4    0    0 -0.55929249189E+03 -0.25633927482E+03  0.74327972512E+03  0.96860727977E+03  0.84955266716E+02 0.  0.
         23    2    4    4    0    0  0.29896332359E+03  0.71602430853E+02  0.27912283266E+03  0.42506105878E+03  0.90892084478E+02 0.  0.
          4    1    3    3  502    0  0.26305058143E+02  0.53977574218E+02  0.11691456551E+02  0.61173726048E+02  0.00000000000E+00 0. -1.
         -3    1    3    3    0  502  0.23402411016E+03  0.13075926975E+03  0.21309576190E+02  0.26892260745E+03  0.00000000000E+00 0.  1.
         11    1    5    5    0    0 -0.29545912749E+03 -0.92182764273E+02  0.39603501628E+03  0.50263057226E+03  0.00000000000E+00 0.  1.
        -11    1    5    5    0    0 -0.26383336440E+03 -0.16415651055E+03  0.34724470884E+03  0.46597670751E+03  0.00000000000E+00 0. -1.
          4    1    6    6  503    0  0.25449041643E+03  0.37720098305E+02  0.18989028285E+03  0.31976006222E+03  0.00000000000E+00 0.  1.
         -4    1    6    6    0  503  0.44472907162E+02  0.33882332549E+02  0.89232549813E+02  0.10530099656E+03  0.00000000000E+00 0. -1.
<mgrwt>
<rscale>  0 0.13628969E+04</rscale>
<asrwt>0</asrwt>
<pdfrwt beam="1">  1        2 0.21378217E+00 0.13628969E+04</pdfrwt>
<pdfrwt beam="2">  1       -1 0.51412392E-01 0.13628969E+04</pdfrwt>
<totfact> 0.62088130E+01</totfact>
</mgrwt>
</event>
<event>
12    6  0.1542110E-007  0.2576372E+04  0.7818608E-02  0.8376272E-01
          2   -1    0    0  501    0  0.00000000000E+00  0.00000000000E+00  0.93153845092E+03  0.93153845092E+03  0.00000000000E+00 0. -1.
         -1   -1    0    0    0  501 -0.00000000000E+00 -0.00000000000E+00 -0.17813796409E+04  0.17813796409E+04  0.00000000000E+00 0.  1.
         24    2    1    2    0    0 -0.42398233968E+03 -0.28066103668E+03  0.66923242550E+03  0.84410908784E+03  0.78207870206E+02 0.  0.
        254    2    1    2    0    0  0.42398233968E+03  0.28066103668E+03 -0.15190736155E+04  0.18688090040E+04  0.96246080556E+03 0.  0.
         23    2    4    4    0    0  0.31360443549E+03  0.43566048363E+03 -0.15625615129E+04  0.16546399338E+04  0.89927915528E+02 0.  0.
         23    2    4    4    0    0  0.11037790418E+03 -0.15499944695E+03  0.43487897381E+02  0.21416907021E+03  0.88142402573E+02 0.  0.
          4    1    3    3  502    0 -0.30297434910E+03 -0.15948856363E+03  0.42352595739E+03  0.54461389509E+03  0.00000000000E+00 0. -1.
         -3    1    3    3    0  502 -0.12100799058E+03 -0.12117247305E+03  0.24570646811E+03  0.29949519275E+03  0.00000000000E+00 0.  1.
         11    1    5    5    0    0  0.35058286095E+02  0.10771860608E+03 -0.29221310507E+03  0.31340210640E+03  0.00000000000E+00 0. -1.
        -11    1    5    5    0    0  0.27854614940E+03  0.32794187755E+03 -0.12703484078E+04  0.13412378274E+04  0.00000000000E+00 0.  1.
          3    1    6    6  503    0 -0.11111879844E+02 -0.19303007584E+02 -0.98947286066E+01  0.24371820401E+02  0.00000000000E+00 0. -1.
         -3    1    6    6    0  503  0.12148978403E+03 -0.13569643936E+03  0.53382625987E+02  0.18979724981E+03  0.00000000000E+00 0.  1.
<mgrwt>
<rscale>  0 0.25763724E+04</rscale>
<asrwt>0</asrwt>
<pdfrwt beam="1">  1        2 0.14331361E+00 0.25763724E+04</pdfrwt>
<pdfrwt beam="2">  1       -1 0.27405840E+00 0.25763724E+04</pdfrwt>
<totfact> 0.13722980E+00</totfact>
</mgrwt>
</event>
<event>
12    6  0.1542110E-007  0.1139349E+04  0.7818608E-02  0.9167666E-01
          2   -1    0    0  501    0  0.00000000000E+00  0.00000000000E+00  0.32596423106E+03  0.32596423106E+03  0.00000000000E+00 0. -1.
         -1   -1    0    0    0  501 -0.00000000000E+00 -0.00000000000E+00 -0.99559771062E+03  0.99559771062E+03  0.00000000000E+00 0.  1.
         24    2    1    2    0    0 -0.11573218036E+03  0.46851418351E+02  0.52281383502E+02  0.15991537866E+03  0.85150409852E+02 0.  0.
        254    2    1    2    0    0  0.11573218036E+03 -0.46851418351E+02 -0.72191486306E+03  0.11616465630E+04  0.90148359658E+03 0.  0.
         23    2    4    4    0    0  0.46051426497E+03 -0.21120199356E+03 -0.37404725801E+03  0.63714208196E+03  0.96741981870E+02 0.  0.
         23    2    4    4    0    0 -0.34478208461E+03  0.16435057520E+03 -0.34786760505E+03  0.52450448106E+03  0.90594053726E+02 0.  0.
          2    1    3    3  502    0 -0.51246926395E+02 -0.12297810551E+02  0.49597819143E+02  0.72370071666E+02  0.00000000000E+00 0. -1.
         -1    1    3    3    0  502 -0.64485253966E+02  0.59149228902E+02  0.26835643597E+01  0.87545306992E+02  0.00000000000E+00 0.  1.
         11    1    5    5    0    0  0.25860969127E+03 -0.78913025974E+02 -0.15780038923E+03  0.31306101790E+03  0.00000000000E+00 0. -1.
        -11    1    5    5    0    0  0.20190457370E+03 -0.13228896758E+03 -0.21624686878E+03  0.32408106406E+03  0.00000000000E+00 0.  1.
          3    1    6    6  503    0 -0.31530817436E+03  0.12242297343E+03 -0.27782423870E+03  0.43771330440E+03  0.00000000000E+00 0. -1.
         -3    1    6    6    0  503 -0.29473910255E+02  0.41927601777E+02 -0.70043366356E+02  0.86791176665E+02  0.00000000000E+00 0.  1.
<mgrwt>
<rscale>  0 0.11393494E+04</rscale>
<asrwt>0</asrwt>
<pdfrwt beam="1">  1        2 0.50148344E-01 0.11393494E+04</pdfrwt>
<pdfrwt beam="2">  1       -1 0.15316888E+00 0.11393494E+04</pdfrwt>
<totfact> 0.37435357E+01</totfact>
</mgrwt>
</event>
<event>
12    6  0.1542110E-007  0.1744156E+04  0.7818608E-02  0.8736574E-01
          2   -1    0    0  501    0  0.00000000000E+00  0.00000000000E+00  0.87426906800E+03  0.87426906800E+03  0.00000000000E+00 0. -1.
         -1   -1    0    0    0  501 -0.00000000000E+00 -0.00000000000E+00 -0.86989269150E+03  0.86989269150E+03  0.00000000000E+00 0.  1.
         24    2    1    2    0    0 -0.58372044493E+03 -0.83349078861E+02 -0.26401995728E+03  0.64985395435E+03  0.70192573451E+02 0.  0.
        254    2    1    2    0    0  0.58372044493E+03  0.83349078861E+02  0.26839633378E+03  0.10943078052E+04  0.88192763515E+03 0.  0.
         23    2    4    4    0    0 -0.15172622412E+03  0.15772803980E+03 -0.10591984850E+03  0.26055764815E+03  0.93660515031E+02 0.  0.
         23    2    4    4    0    0  0.73544666905E+03 -0.74378960943E+02  0.37431618228E+03  0.83375015700E+03  0.92804564212E+02 0.  0.
          4    1    3    3  502    0 -0.79340995010E+02 -0.33625461621E+02 -0.26664383980E+02  0.90203406429E+02  0.00000000000E+00 0. -1.
         -3    1    3    3    0  502 -0.50437944992E+03 -0.49723617240E+02 -0.23735557330E+03  0.55965054792E+03  0.00000000000E+00 0.  1.
         11    1    5    5    0    0  0.50862974456E+01  0.28240462184E+02  0.46636279755E+01  0.29071352772E+02  0.00000000000E+00 0.  1.
        -11    1    5    5    0    0 -0.15681252156E+03  0.12948757762E+03 -0.11058347648E+03  0.23148629538E+03  0.00000000000E+00 0. -1.
          4    1    6    6  503    0  0.48024426686E+03 -0.40450470205E+02  0.29181399310E+03  0.56340589539E+03  0.00000000000E+00 0. -1.
         -4    1    6    6    0  503  0.25520240219E+03 -0.33928490738E+02  0.82502189179E+02  0.27034426161E+03  0.00000000000E+00 0.  1.
<mgrwt>
<rscale>  0 0.17441563E+04</rscale>
<asrwt>0</asrwt>
<pdfrwt beam="1">  1        2 0.13450293E+00 0.17441563E+04</pdfrwt>
<pdfrwt beam="2">  1       -1 0.13382964E+00 0.17441563E+04</pdfrwt>
<totfact> 0.15566766E+01</totfact>
</mgrwt>
</event>
<event>
12    6  0.1542110E-007  0.2029816E+04  0.7818608E-02  0.8592806E-01
          2   -1    0    0  501    0  0.00000000000E+00  0.00000000000E+00  0.17928464552E+04  0.17928464552E+04  0.00000000000E+00 0. -1.
         -1   -1    0    0    0  501 -0.00000000000E+00 -0.00000000000E+00 -0.57452696484E+03  0.57452696484E+03  0.00000000000E+00 0.  1.
         24    2    1    2    0    0 -0.17971655299E+03 -0.75845925278E+03  0.76270193238E+03  0.10937276466E+04  0.83471251191E+02 0.  0.
        254    2    1    2    0    0  0.17971655299E+03  0.75845925278E+03  0.45561755800E+03  0.12736457734E+04  0.89834721545E+03 0.  0.
         23    2    4    4    0    0  0.34605234003E+03  0.59776714088E+03 -0.62513378826E+02  0.69906323543E+03  0.87770768732E+02 0.  0.
         23    2    4    4    0    0 -0.16633578704E+03  0.16069211190E+03  0.51813093683E+03  0.57458253801E+03  0.90531079820E+02 0.  0.
          2    1    3    3  502    0 -0.20625219949E+02 -0.20260208624E+03  0.16456745380E+03  0.26183096054E+03  0.00000000000E+00 0. -1.
         -1    1    3    3    0  502 -0.15909133304E+03 -0.55585716653E+03  0.59813447858E+03  0.83189668607E+03  0.00000000000E+00 0.  1.
         11    1    5    5    0    0  0.24709654301E+03  0.49671378614E+03 -0.46560276671E+02  0.55673076642E+03  0.00000000000E+00 0. -1.
        -11    1    5    5    0    0  0.98955797019E+02  0.10105335474E+03 -0.15953102155E+02  0.14233246901E+03  0.00000000000E+00 0.  1.
          4    1    6    6  503    0 -0.86013310172E+02  0.47548264090E+02  0.13414197801E+03  0.16629250497E+03  0.00000000000E+00 0.  1.
         -4    1    6    6    0  503 -0.80322476870E+02  0.11314384781E+03  0.38398895882E+03  0.40829003304E+03  0.00000000000E+00 0. -1.
<mgrwt>
<rscale>  0 0.20298164E+04</rscale>
<asrwt>0</asrwt>
<pdfrwt beam="1">  1        2 0.27582253E+00 0.20298164E+04</pdfrwt>
<pdfrwt beam="2">  1       -1 0.88388764E-01 0.20298164E+04</pdfrwt>
<totfact> 0.11552363E+01</totfact>
</mgrwt>
</event>
<event>
12    6  0.1542110E-007  0.1420379E+04  0.7818608E-02  0.8939198E-01
         -1   -1    0    0    0  501 -0.00000000000E+00  0.00000000000E+00  0.36321994824E+03  0.36321994824E+03  0.00000000000E+00 0.  1.
          2   -1    0    0  501    0  0.00000000000E+00 -0.00000000000E+00 -0.13886049619E+04  0.13886049619E+04  0.00000000000E+00 0. -1.
         24    2    1    2    0    0 -0.22367642829E+03  0.91685677219E+01  0.13105975991E+03  0.27132607090E+03  0.79535959666E+02 0.  0.
        254    2    1    2    0    0  0.22367642829E+03 -0.91685677219E+01 -0.11564447736E+04  0.14804988392E+04  0.89688187150E+03 0.  0.
         23    2    4    4    0    0  0.11488447919E+03 -0.44069071173E+03 -0.50294203586E+03  0.68451492257E+03  0.90571744050E+02 0.  0.
         23    2    4    4    0    0  0.10879194910E+03  0.43152214401E+03 -0.65350273771E+03  0.79598391665E+03  0.92073440369E+02 0.  0.
          4    1    3    3  502    0 -0.16915204300E+03  0.25716847210E+02  0.12905514593E+03  0.21431052370E+03  0.00000000000E+00 0. -1.
         -3    1    3    3    0  502 -0.54524385290E+02 -0.16548279488E+02  0.20046139817E+01  0.57015547199E+02  0.00000000000E+00 0.  1.
         11    1    5    5    0    0  0.12167825106E+03 -0.31005065367E+03 -0.34734651581E+03  0.48123446122E+03  0.00000000000E+00 0.  1.
        -11    1    5    5    0    0 -0.67937718674E+01 -0.13064005806E+03 -0.15559552004E+03  0.20328046134E+03  0.00000000000E+00 0. -1.
          1    1    6    6  503    0  0.67357001208E+02  0.14897070353E+03 -0.29885815839E+03  0.34065442161E+03  0.00000000000E+00 0. -1.
         -1    1    6    6    0  503  0.41434947889E+02  0.28255144048E+03 -0.35464457931E+03  0.45532949505E+03  0.00000000000E+00 0.  1.
<mgrwt>
<rscale>  0 0.14203789E+04</rscale>
<asrwt>0</asrwt>
<pdfrwt beam="1">  1        2 0.21363153E+00 0.14203789E+04</pdfrwt>
<pdfrwt beam="2">  1       -1 0.55879992E-01 0.14203789E+04</pdfrwt>
<totfact> 0.52705712E+01</totfact>
</mgrwt>
</event>
<event>
12    6  0.1542110E-007  0.1729926E+04  0.7818608E-02  0.8744478E-01
          2   -1    0    0  501    0  0.00000000000E+00  0.00000000000E+00  0.16015019827E+04  0.16015019827E+04  0.00000000000E+00 0. -1.
         -1   -1    0    0    0  501 -0.00000000000E+00 -0.00000000000E+00 -0.46716190373E+03  0.46716190373E+03  0.00000000000E+00 0.  1.
         24    2    1    2    0    0 -0.76517757910E+02  0.86261908817E+02 -0.32300830443E+03  0.35221711186E+03  0.80165110696E+02 0.  0.
        254    2    1    2    0    0  0.76517757910E+02 -0.86261908817E+02  0.14573483834E+04  0.17164467746E+04  0.89946046893E+03 0.  0.
         23    2    4    4    0    0  0.19237177990E+03  0.38833778728E+02  0.15017482854E+04  0.15176584337E+04  0.97592235985E+02 0.  0.
         23    2    4    4    0    0 -0.11585402199E+03 -0.12509568754E+03 -0.44399902038E+02  0.19878834086E+03  0.92056328998E+02 0.  0.
          4    1    3    3  502    0 -0.16856440529E+02 -0.87403847523E+01 -0.10846427179E+03  0.11011372379E+03  0.00000000000E+00 0. -1.
         -1    1    3    3    0  502 -0.59661317381E+02  0.95002293569E+02 -0.21454403264E+03  0.24210338807E+03  0.00000000000E+00 0.  1.
         11    1    5    5    0    0  0.60335695179E+02 -0.32887127403E+02  0.44139240040E+03  0.44670931308E+03  0.00000000000E+00 0.  1.
        -11    1    5    5    0    0  0.13203608472E+03  0.71720906130E+02  0.10603558850E+04  0.10709491206E+04  0.00000000000E+00 0. -1.
          2    1    6    6  503    0 -0.98036356076E+02 -0.13974218747E+03 -0.39053034545E+02  0.17511180880E+03  0.00000000000E+00 0. -1.
         -2    1    6    6    0  503 -0.17817665915E+02  0.14646499928E+02 -0.53468674932E+01  0.23676532068E+02  0.00000000000E+00 0.  1.
<mgrwt>
<rscale>  0 0.17299257E+04</rscale>
<asrwt>0</asrwt>
<pdfrwt beam="1">  1        2 0.24638492E+00 0.17299257E+04</pdfrwt>
<pdfrwt beam="2">  1       -1 0.71871063E-01 0.17299257E+04</pdfrwt>
<totfact> 0.23520273E+01</totfact>
</mgrwt>
</event>
<event>
12    6  0.1542110E-007  0.2337785E+04  0.7818608E-02  0.8463170E-01
         -1   -1    0    0    0  501 -0.00000000000E+00  0.00000000000E+00  0.55345811885E+03  0.55345811885E+03  0.00000000000E+00 0.  1.
          2   -1    0    0  501    0  0.00000000000E+00 -0.00000000000E+00 -0.24686774549E+04  0.24686774549E+04  0.00000000000E+00 0. -1.
         24    2    1    2    0    0 -0.54644643706E+03  0.47000801248E+03  0.64525572944E+02  0.72839482128E+03  0.82971234358E+02 0.  0.
        254    2    1    2    0    0  0.54644643706E+03 -0.47000801248E+03 -0.19797449090E+04  0.22937407524E+04  0.90683267169E+03 0.  0.
         23    2    4    4    0    0  0.16822396526E+03 -0.68620631526E+03 -0.12432464118E+04  0.14331384179E+04  0.95108752633E+02 0.  0.
         23    2    4    4    0    0  0.37822247180E+03  0.21619830277E+03 -0.73649849712E+03  0.86060233450E+03  0.91719123324E+02 0.  0.
          4    1    3    3  502    0 -0.16761889249E+03  0.13131355710E+03 -0.17546474065E+02  0.21365210542E+03  0.00000000000E+00 0. -1.
         -3    1    3    3    0  502 -0.37882754457E+03  0.33869445539E+03  0.82072047009E+02  0.51474271586E+03  0.00000000000E+00 0.  1.
         11    1    5    5    0    0  0.61217009718E+02 -0.17880874409E+03 -0.25876734705E+03  0.32043818303E+03  0.00000000000E+00 0. -1.
        -11    1    5    5    0    0  0.10700695555E+03 -0.50739757117E+03 -0.98447906479E+03  0.11127002349E+04  0.00000000000E+00 0.  1.
          4    1    6    6  503    0  0.17419885182E+03  0.10977099418E+03 -0.43548229954E+03  0.48170503874E+03  0.00000000000E+00 0. -1.
         -4    1    6    6    0  503  0.20402361997E+03  0.10642730859E+03 -0.30101619759E+03  0.37889729576E+03  0.00000000000E+00 0.  1.
<mgrwt>
<rscale>  0 0.23377849E+04</rscale>
<asrwt>0</asrwt>
<pdfrwt beam="1">  1        2 0.37979653E+00 0.23377849E+04</pdfrwt>
<pdfrwt beam="2">  1       -1 0.85147403E-01 0.23377849E+04</pdfrwt>
<totfact> 0.50901592E+00</totfact>
</mgrwt>
</event>
<event>
12    6  0.1542110E-007  0.3463919E+04  0.7818608E-02  0.8122394E-01
         -1   -1    0    0    0  501 -0.00000000000E+00  0.00000000000E+00  0.15189835044E+04  0.15189835044E+04  0.00000000000E+00 0.  1.
          2   -1    0    0  501    0  0.00000000000E+00 -0.00000000000E+00 -0.19747964497E+04  0.19747964497E+04  0.00000000000E+00 0. -1.
         24    2    1    2    0    0 -0.10867874690E+03  0.44723721992E+03 -0.17672913961E+04  0.18279959429E+04  0.80112967751E+02 0.  0.
        254    2    1    2    0    0  0.10867874690E+03 -0.44723721992E+03  0.13114784507E+04  0.16657840112E+04  0.91816580439E+03 0.  0.
         23    2    4    4    0    0  0.18163206140E+03  0.12357859068E+03  0.95158361241E+03  0.98073136969E+03  0.89781814924E+02 0.  0.
         23    2    4    4    0    0 -0.72953314501E+02 -0.57081581060E+03  0.35989483832E+03  0.68505264152E+03  0.92843692686E+02 0.  0.
          4    1    3    3  502    0 -0.10644788037E+03  0.45042811823E+03 -0.17434549852E+04  0.18038436536E+04  0.00000000000E+00 0. -1.
         -1    1    3    3    0  502 -0.22308665325E+01 -0.31908983100E+01 -0.23836410827E+02  0.24152289304E+02  0.00000000000E+00 0.  1.
         11    1    5    5    0    0  0.61945237117E+02  0.84854923774E+01  0.39464199422E+03  0.39956416203E+03  0.00000000000E+00 0.  1.
        -11    1    5    5    0    0  0.11968682428E+03  0.11509309830E+03  0.55694161820E+03  0.58116720766E+03  0.00000000000E+00 0. -1.
          2    1    6    6  503    0 -0.59688759625E+02 -0.33659935260E+03  0.26266977545E+03  0.43111168289E+03  0.00000000000E+00 0. -1.
         -2    1    6    6    0  503 -0.13264554876E+02 -0.23421645800E+03  0.97225062875E+02  0.25394095862E+03  0.00000000000E+00 0.  1.
<mgrwt>
<rscale>  0 0.34639187E+04</rscale>
<asrwt>0</asrwt>
<pdfrwt beam="1">  1        2 0.30381484E+00 0.34639187E+04</pdfrwt>
<pdfrwt beam="2">  1       -1 0.23368977E+00 0.34639187E+04</pdfrwt>
<totfact> 0.57721457E-01</totfact>
</mgrwt>
</event>
<event>
12    6  0.1542110E-007  0.1465653E+04  0.7818608E-02  0.8907620E-01
         -1   -1    0    0    0  501 -0.00000000000E+00  0.00000000000E+00  0.50953429054E+03  0.50953429054E+03  0.00000000000E+00 0.  1.
          2   -1    0    0  501    0  0.00000000000E+00 -0.00000000000E+00 -0.10539709979E+04  0.10539709979E+04  0.00000000000E+00 0. -1.
         24    2    1    2    0    0 -0.41070355753E+03 -0.16192573309E+03 -0.78057906444E+02  0.45528642161E+03  0.79343139235E+02 0.  0.
        254    2    1    2    0    0  0.41070355753E+03  0.16192573309E+03 -0.46637880087E+03  0.11082188668E+04  0.90318465198E+03 0.  0.
         23    2    4    4    0    0  0.45631675721E+03 -0.24735640171E+03 -0.43900232672E+03  0.68570630601E+03  0.89777073125E+02 0.  0.
         23    2    4    4    0    0 -0.45613199683E+02  0.40928213480E+03 -0.27376474152E+02  0.42251256077E+03  0.90415500988E+02 0.  0.
          4    1    3    3  502    0 -0.19181627037E+03 -0.83380124416E+02 -0.76564760157E+02  0.22272828564E+03  0.00000000000E+00 0. -1.
         -3    1    3    3    0  502 -0.21888728716E+03 -0.78545608679E+02 -0.14931462867E+01  0.23255813597E+03  0.00000000000E+00 0.  1.
         11    1    5    5    0    0  0.23219421265E+03 -0.90993799791E+02 -0.25222295125E+03  0.35469767567E+03  0.00000000000E+00 0.  1.
        -11    1    5    5    0    0  0.22412254456E+03 -0.15636260191E+03 -0.18677937547E+03  0.33100863034E+03  0.00000000000E+00 0. -1.
          4    1    6    6  503    0  0.43410969521E+01  0.25979098135E+03 -0.45764603962E+02  0.26382683353E+03  0.00000000000E+00 0. -1.
         -4    1    6    6    0  503 -0.49954296635E+02  0.14949115345E+03  0.18388129810E+02  0.15868572724E+03  0.00000000000E+00 0.  1.
<mgrwt>
<rscale>  0 0.14656526E+04</rscale>
<asrwt>0</asrwt>
<pdfrwt beam="1">  1        2 0.16214938E+00 0.14656526E+04</pdfrwt>
<pdfrwt beam="2">  1       -1 0.78389891E-01 0.14656526E+04</pdfrwt>
<totfact> 0.41897050E+01</totfact>
</mgrwt>
</event>
<event>
12    6  0.1542110E-007  0.1653416E+04  0.7818608E-02  0.8788388E-01
          2   -1    0    0  501    0  0.00000000000E+00  0.00000000000E+00  0.69396534233E+03  0.69396534233E+03  0.00000000000E+00 0. -1.
         -1   -1    0    0    0  501 -0.00000000000E+00 -0.00000000000E+00 -0.98484240866E+03  0.98484240866E+03  0.00000000000E+00 0.  1.
         24    2    1    2    0    0  0.25151428418E+03  0.39448773825E+03 -0.43238037617E+03  0.64165406935E+03  0.76727728022E+02 0.  0.
        254    2    1    2    0    0 -0.25151428418E+03 -0.39448773825E+03  0.14150330984E+03  0.10371536816E+04  0.91475929177E+03 0.  0.
         23    2    4    4    0    0 -0.43609370562E+03 -0.59168360090E+03  0.85390895093E+02  0.74667035577E+03  0.99788834920E+02 0.  0.
         23    2    4    4    0    0  0.18457942144E+03  0.19719586265E+03  0.56112414747E+02  0.29048332587E+03  0.90973559097E+02 0.  0.
          2    1    3    3  502    0  0.36525510283E+02  0.19330730238E+02 -0.30757299941E+02  0.51515061222E+02  0.00000000000E+00 0. -1.
         -3    1    3    3    0  502  0.21498877390E+03  0.37515700801E+03 -0.40162307623E+03  0.59013900813E+03  0.00000000000E+00 0.  1.
         11    1    5    5    0    0 -0.51905317491E+02 -0.39488996168E+02  0.29729909433E+02  0.71675730321E+02  0.00000000000E+00 0. -1.
        -11    1    5    5    0    0 -0.38418838813E+03 -0.55219460473E+03  0.55660985660E+02  0.67499462545E+03  0.00000000000E+00 0.  1.
          1    1    6    6  503    0 -0.33544888754E+01  0.10439346565E+02  0.20372843132E+02  0.23136233263E+02  0.00000000000E+00 0. -1.
         -1    1    6    6    0  503  0.18793391031E+03  0.18675651608E+03  0.35739571615E+02  0.26734709261E+03  0.00000000000E+00 0.  1.
<mgrwt>
<rscale>  0 0.16534165E+04</rscale>
<asrwt>0</asrwt>
<pdfrwt beam="1">  1        2 0.10676390E+00 0.16534165E+04</pdfrwt>
<pdfrwt beam="2">  1       -1 0.15151422E+00 0.16534165E+04</pdfrwt>
<totfact> 0.15341790E+01</totfact>
</mgrwt>
</event>
<event>
12    6  0.1542110E-007  0.1326564E+04  0.7818608E-02  0.9008761E-01
         -1   -1    0    0    0  501 -0.00000000000E+00  0.00000000000E+00  0.50940751035E+03  0.50940751035E+03  0.00000000000E+00 0.  1.
          2   -1    0    0  501    0  0.00000000000E+00 -0.00000000000E+00 -0.86363635245E+03  0.86363635245E+03  0.00000000000E+00 0. -1.
         24    2    1    2    0    0  0.21309187043E+03  0.25324914596E+03 -0.21753891750E+03  0.40327997145E+03  0.75949190710E+02 0.  0.
        254    2    1    2    0    0 -0.21309187043E+03 -0.25324914596E+03 -0.13668992460E+03  0.96976389135E+03  0.90122949037E+03 0.  0.
         23    2    4    4    0    0 -0.74288814111E+02 -0.25665840664E+03  0.35390082458E+03  0.45237879223E+03  0.89489733592E+02 0.  0.
         23    2    4    4    0    0 -0.13880305632E+03  0.34092606803E+01 -0.49059074918E+03  0.51738509912E+03  0.87921249479E+02 0.  0.
          4    1    3    3  502    0  0.10488471475E+03  0.10773077498E+03 -0.14208086421E+03  0.20686637049E+03  0.00000000000E+00 0. -1.
         -3    1    3    3    0  502  0.10820715569E+03  0.14551837099E+03 -0.75458053293E+02  0.19641360096E+03  0.00000000000E+00 0.  1.
         11    1    5    5    0    0 -0.91820834980E+02 -0.24061816658E+03  0.31617020001E+03  0.40778887086E+03  0.00000000000E+00 0.  1.
        -11    1    5    5    0    0  0.17532020869E+02 -0.16040240060E+02  0.37730624575E+02  0.44589921370E+02  0.00000000000E+00 0. -1.
          2    1    6    6  503    0 -0.16887310401E+02  0.31219811855E+02 -0.68347562598E+02  0.77014590942E+02  0.00000000000E+00 0. -1.
         -2    1    6    6    0  503 -0.12191574592E+03 -0.27810551175E+02 -0.42224318658E+03  0.44037050818E+03  0.00000000000E+00 0.  1.
<mgrwt>
<rscale>  0 0.13265637E+04</rscale>
<asrwt>0</asrwt>
<pdfrwt beam="1">  1        2 0.13286713E+00 0.13265637E+04</pdfrwt>
<pdfrwt beam="2">  1       -1 0.78370388E-01 0.13265637E+04</pdfrwt>
<totfact> 0.56533488E+01</totfact>
</mgrwt>
</event>
<event>
12    6  0.1542110E-007  0.1132377E+04  0.7818608E-02  0.9174198E-01
          2   -1    0    0  501    0  0.00000000000E+00  0.00000000000E+00  0.13855744231E+04  0.13855744231E+04  0.00000000000E+00 0. -1.
         -1   -1    0    0    0  501 -0.00000000000E+00 -0.00000000000E+00 -0.23136196555E+03  0.23136196555E+03  0.00000000000E+00 0.  1.
         24    2    1    2    0    0  0.70948615883E+02 -0.63296302416E+02  0.46949498453E+03  0.48559385729E+03  0.79597272192E+02 0.  0.
        254    2    1    2    0    0 -0.70948615883E+02  0.63296302416E+02  0.68471747301E+03  0.11313425313E+04  0.89557678475E+03 0.  0.
         23    2    4    4    0    0  0.27347994730E+03  0.21060666772E+03  0.65292287541E+03  0.74449587943E+03  0.93911571102E+02 0.  0.
         23    2    4    4    0    0 -0.34442856318E+03 -0.14731036530E+03  0.31794597602E+02  0.38684665192E+03  0.91148542538E+02 0.  0.
          2    1    3    3  502    0  0.28214092737E+02 -0.67623199589E+02  0.37059377975E+03  0.37776802637E+03  0.00000000000E+00 0. -1.
         -3    1    3    3    0  502  0.42734523147E+02  0.43268971737E+01  0.98901204777E+02  0.10782583092E+03  0.00000000000E+00 0.  1.
         11    1    5    5    0    0  0.17811679598E+03  0.17594565037E+03  0.52128513101E+03  0.57829114873E+03  0.00000000000E+00 0.  1.
        -11    1    5    5    0    0  0.95363151320E+02  0.34661017352E+02  0.13163774440E+03  0.16620473069E+03  0.00000000000E+00 0. -1.
          1    1    6    6  503    0 -0.89079210691E+02 -0.80655972065E+02  0.25617880060E+02  0.12286890325E+03  0.00000000000E+00 0. -1.
         -1    1    6    6    0  503 -0.25534935249E+03 -0.66654393238E+02  0.61767175420E+01  0.26397774867E+03  0.00000000000E+00 0.  1.
<mgrwt>
<rscale>  0 0.11323767E+04</rscale>
<asrwt>0</asrwt>
<pdfrwt beam="1">  1        2 0.21316529E+00 0.11323767E+04</pdfrwt>
<pdfrwt beam="2">  1       -1 0.35594149E-01 0.11323767E+04</pdfrwt>
<totfact> 0.12529053E+02</totfact>
</mgrwt>
</event>
<event>
12    6  0.1542110E-007  0.3169237E+04  0.7818608E-02  0.8196989E-01
          2   -1    0    0  501    0  0.00000000000E+00  0.00000000000E+00  0.27513650901E+04  0.27513650901E+04  0.00000000000E+00 0. -1.
         -1   -1    0    0    0  501 -0.00000000000E+00 -0.00000000000E+00 -0.91264343843E+03  0.91264343843E+03  0.00000000000E+00 0.  1.
         24    2    1    2    0    0 -0.64380146051E+03  0.11693042064E+03 -0.65959983620E+03  0.93246983468E+03  0.79214928202E+02 0.  0.
        254    2    1    2    0    0  0.64380146051E+03 -0.11693042064E+03  0.24983214879E+04  0.27315386939E+04  0.88968552612E+03 0.  0.
         23    2    4    4    0    0  0.44108380326E+03 -0.38969781749E+02  0.24499505077E+04  0.24912357865E+04  0.89020717407E+02 0.  0.
         23    2    4    4    0    0  0.20271765725E+03 -0.77960638889E+02  0.48370980157E+02  0.24030290738E+03  0.90738226762E+02 0.  0.
          2    1    3    3  502    0 -0.11677954546E+03  0.31070899139E+02 -0.16585694218E+03  0.20521059495E+03  0.00000000000E+00 0. -1.
         -3    1    3    3    0  502 -0.52702191505E+03  0.85859521499E+02 -0.49374289402E+03  0.72725923973E+03  0.00000000000E+00 0.  1.
         11    1    5    5    0    0  0.32602615673E+03 -0.65408181513E+02  0.17293801700E+04  0.17610585048E+04  0.00000000000E+00 0.  1.
        -11    1    5    5    0    0  0.11505764653E+03  0.26438399764E+02  0.72057033779E+03  0.73017728170E+03  0.00000000000E+00 0. -1.
          2    1    6    6  503    0  0.38966967140E+02  0.20582197579E+02  0.12960368824E+02  0.45934981717E+02  0.00000000000E+00 0. -1.
         -2    1    6    6    0  503  0.16375069011E+03 -0.98542836468E+02  0.35410611333E+02  0.19436792566E+03  0.00000000000E+00 0.  1.
<mgrwt>
<rscale>  0 0.31692367E+04</rscale>
<asrwt>0</asrwt>
<pdfrwt beam="1">  1        2 0.42328693E+00 0.31692367E+04</pdfrwt>
<pdfrwt beam="2">  1       -1 0.14040668E+00 0.31692367E+04</pdfrwt>
<totfact> 0.98667479E-01</totfact>
</mgrwt>
</event>
<event>
12    6  0.1542110E-007  0.2673338E+04  0.7818608E-02  0.8343708E-01
         -1   -1    0    0    0  501 -0.00000000000E+00  0.00000000000E+00  0.88910926579E+03  0.88910926579E+03  0.00000000000E+00 0.  1.
          2   -1    0    0  501    0  0.00000000000E+00 -0.00000000000E+00 -0.20095206036E+04  0.20095206036E+04  0.00000000000E+00 0. -1.
         24    2    1    2    0    0  0.33361233956E+03 -0.10837750818E+04 -0.12874000444E+03  0.11441302174E+04  0.81205570112E+02 0.  0.
        254    2    1    2    0    0 -0.33361233956E+03  0.10837750818E+04 -0.99167133341E+03  0.17544996520E+04  0.89943947790E+03 0.  0.
         23    2    4    4    0    0  0.18140478688E+03  0.21851582469E+03 -0.60198858087E+03  0.67091644414E+03  0.84153200649E+02 0.  0.
         23    2    4    4    0    0 -0.51501712644E+03  0.86525925712E+03 -0.38968275255E+03  0.10835832079E+04  0.91562537280E+02 0.  0.
          4    1    3    3  502    0  0.17332320217E+03 -0.55932761389E+03 -0.25643778507E+02  0.58612790024E+03  0.00000000000E+00 0. -1.
         -3    1    3    3    0  502  0.16028913739E+03 -0.52444746792E+03 -0.10309622594E+03  0.55800231717E+03  0.00000000000E+00 0.  1.
         11    1    5    5    0    0 -0.58688457506E+01  0.19566538693E+02 -0.23417463359E+02  0.31075237361E+02  0.00000000000E+00 0. -1.
        -11    1    5    5    0    0  0.18727363263E+03  0.19894928599E+03 -0.57857111751E+03  0.63984120678E+03  0.00000000000E+00 0.  1.
          3    1    6    6  503    0 -0.32266249371E+03  0.62097247959E+03 -0.25637325747E+03  0.74528192813E+03  0.00000000000E+00 0. -1.
         -3    1    6    6    0  503 -0.19235463273E+03  0.24428677753E+03 -0.13330949508E+03  0.33830127976E+03  0.00000000000E+00 0.  1.
<mgrwt>
<rscale>  0 0.26733375E+04</rscale>
<asrwt>0</asrwt>
<pdfrwt beam="1">  1        2 0.30915701E+00 0.26733375E+04</pdfrwt>
<pdfrwt beam="2">  1       -1 0.13678604E+00 0.26733375E+04</pdfrwt>
<totfact> 0.29398924E+00</totfact>
</mgrwt>
</event>
<event>
12    6  0.1542110E-007  0.2809924E+04  0.7818608E-02  0.8300194E-01
         -1   -1    0    0    0  501 -0.00000000000E+00  0.00000000000E+00  0.11973349489E+04  0.11973349489E+04  0.00000000000E+00 0.  1.
          2   -1    0    0  501    0  0.00000000000E+00 -0.00000000000E+00 -0.16485930585E+04  0.16485930585E+04  0.00000000000E+00 0. -1.
         24    2    1    2    0    0  0.15228432732E+03  0.11507136960E+04 -0.69601387505E+03  0.13557601821E+04  0.79484781889E+02 0.  0.
        254    2    1    2    0    0 -0.15228432732E+03 -0.11507136960E+04  0.24475576540E+03  0.14901678253E+04  0.90186597473E+03 0.  0.
         23    2    4    4    0    0  0.30650294027E+02 -0.10219129526E+04 -0.13923387846E+03  0.10357831802E+04  0.90637741618E+02 0.  0.
         23    2    4    4    0    0 -0.18293462135E+03 -0.12880074339E+03  0.38398964385E+03  0.45438464513E+03  0.94671283688E+02 0.  0.
          4    1    3    3  502    0  0.68415055884E+02  0.74410166208E+03 -0.41960706356E+03  0.85699357709E+03  0.00000000000E+00 0. -1.
         -3    1    3    3    0  502  0.83869271436E+02  0.40661203391E+03 -0.27640681149E+03  0.49876660498E+03  0.00000000000E+00 0.  1.
         11    1    5    5    0    0  0.59142767871E+00 -0.29833682863E+03 -0.81587262374E+02  0.30929224769E+03  0.00000000000E+00 0. -1.
        -11    1    5    5    0    0  0.30058866348E+02 -0.72357612397E+03 -0.57646616083E+02  0.72649093248E+03  0.00000000000E+00 0.  1.
          3    1    6    6  503    0 -0.68336202395E+02 -0.10593665040E+03  0.19694509989E+03  0.23383708608E+03  0.00000000000E+00 0. -1.
         -3    1    6    6    0  503 -0.11459841895E+03 -0.22864092986E+02  0.18704454397E+03  0.22054755905E+03  0.00000000000E+00 0.  1.
<mgrwt>
<rscale>  0 0.28099239E+04</rscale>
<asrwt>0</asrwt>
<pdfrwt beam="1">  1        2 0.25362970E+00 0.28099239E+04</pdfrwt>
<pdfrwt beam="2">  1       -1 0.18420538E+00 0.28099239E+04</pdfrwt>
<totfact> 0.20135514E+00</totfact>
</mgrwt>
</event>
<event>
12    6  0.1542110E-007  0.2797602E+04  0.7818608E-02  0.8304013E-01
         -1   -1    0    0    0  501 -0.00000000000E+00  0.00000000000E+00  0.14067315904E+04  0.14067315904E+04  0.00000000000E+00 0.  1.
          2   -1    0    0  501    0  0.00000000000E+00 -0.00000000000E+00 -0.13909148177E+04  0.13909148177E+04  0.00000000000E+00 0. -1.
         24    2    1    2    0    0 -0.30168689273E+03 -0.33726161528E+03  0.11753224126E+04  0.12623841854E+04  0.86433093055E+02 0.  0.
        254    2    1    2    0    0  0.30168689273E+03  0.33726161528E+03 -0.11595056399E+04  0.15352622227E+04  0.89878606187E+03 0.  0.
         23    2    4    4    0    0 -0.24246247565E+03  0.35240079793E+03 -0.37594774407E+03  0.57674809788E+03  0.91253973399E+02 0.  0.
         23    2    4    4    0    0  0.54414936837E+03 -0.15139182644E+02 -0.78355789587E+03  0.95851412482E+03  0.91970763515E+02 0.  0.
          2    1    3    3  502    0 -0.11149953137E+03 -0.10102504570E+03  0.29265426991E+03  0.32906644778E+03  0.00000000000E+00 0. -1.
         -1    1    3    3    0  502 -0.19018736136E+03 -0.23623656959E+03  0.88266814267E+03  0.93331773760E+03  0.00000000000E+00 0.  1.
         11    1    5    5    0    0 -0.22614000404E+03  0.29137759238E+03 -0.28548758463E+03  0.46641544115E+03  0.00000000000E+00 0.  1.
        -11    1    5    5    0    0 -0.16322471606E+02  0.61023205553E+02 -0.90460159441E+02  0.11033265673E+03  0.00000000000E+00 0. -1.
          4    1    6    6  503    0  0.16336746154E+03 -0.46711035510E+02 -0.23409263112E+03  0.28925803061E+03  0.00000000000E+00 0. -1.
         -4    1    6    6    0  503  0.38078190684E+03  0.31571852865E+02 -0.54946526475E+03  0.66925609421E+03  0.00000000000E+00 0.  1.
<mgrwt>
<rscale>  0 0.27976017E+04</rscale>
<asrwt>0</asrwt>
<pdfrwt beam="1">  1        2 0.21398690E+00 0.27976017E+04</pdfrwt>
<pdfrwt beam="2">  1       -1 0.21642024E+00 0.27976017E+04</pdfrwt>
<totfact> 0.16887603E+00</totfact>
</mgrwt>
</event>
<event>
12    6  0.1542110E-007  0.1153914E+04  0.7818608E-02  0.9154180E-01
         -1   -1    0    0    0  501 -0.00000000000E+00  0.00000000000E+00  0.10831441574E+03  0.10831441574E+03  0.00000000000E+00 0.  1.
          2   -1    0    0  501    0  0.00000000000E+00 -0.00000000000E+00 -0.30732706195E+04  0.30732706195E+04  0.00000000000E+00 0. -1.
         24    2    1    2    0    0  0.87868730682E+02 -0.33068227282E+02 -0.58260826581E+02  0.13642793760E+03  0.80023976138E+02 0.  0.
        254    2    1    2    0    0 -0.87868730682E+02  0.33068227282E+02 -0.29066953772E+04  0.30451570977E+04  0.90293372519E+03 0.  0.
         23    2    4    4    0    0  0.85016149596E+02  0.30608780024E+03 -0.41039147658E+03  0.52636670060E+03  0.87882036314E+02 0.  0.
         23    2    4    4    0    0 -0.17288488028E+03 -0.27301957296E+03 -0.24963039006E+04  0.25187903971E+04  0.91340193700E+02 0.  0.
          2    1    3    3  502    0  0.72578262032E+02  0.78886163527E+01 -0.57118617975E+02  0.92695042515E+02  0.00000000000E+00 0. -1.
         -1    1    3    3    0  502  0.15290468651E+02 -0.40956843635E+02 -0.11422086055E+01  0.43732895086E+02  0.00000000000E+00 0.  1.
         11    1    5    5    0    0  0.81966340478E+02  0.30536180666E+03 -0.37354698247E+03  0.48938907022E+03  0.00000000000E+00 0. -1.
        -11    1    5    5    0    0  0.30498091177E+01  0.72599357429E+00 -0.36844494109E+02  0.36977630379E+02  0.00000000000E+00 0.  1.
          4    1    6    6  503    0 -0.10825766914E+03 -0.17426051664E+03 -0.12292317010E+04  0.12462331345E+04  0.00000000000E+00 0.  1.
         -4    1    6    6    0  503 -0.64627211134E+02 -0.98759056318E+02 -0.12670721996E+04  0.12725572626E+04  0.00000000000E+00 0. -1.
<mgrwt>
<rscale>  0 0.11539142E+04</rscale>
<asrwt>0</asrwt>
<pdfrwt beam="1">  1        2 0.47281082E+00 0.11539142E+04</pdfrwt>
<pdfrwt beam="2">  1       -1 0.16663758E-01 0.11539142E+04</pdfrwt>
<totfact> 0.49744426E+01</totfact>
</mgrwt>
</event>
<event>
12    6  0.1542110E-007  0.2526218E+04  0.7818608E-02  0.8393705E-01
         -1   -1    0    0    0  501 -0.00000000000E+00  0.00000000000E+00  0.62381983217E+03  0.62381983217E+03  0.00000000000E+00 0.  1.
          2   -1    0    0  501    0  0.00000000000E+00 -0.00000000000E+00 -0.25575393636E+04  0.25575393636E+04  0.00000000000E+00 0. -1.
         24    2    1    2    0    0 -0.30203201041E+03  0.87311587899E+03 -0.15969167381E+04  0.18468766424E+04  0.85179752891E+02 0.  0.
        254    2    1    2    0    0  0.30203201041E+03 -0.87311587899E+03 -0.33680279336E+03  0.13344825534E+04  0.90213795524E+03 0.  0.
         23    2    4    4    0    0  0.33360037953E+03 -0.91343669667E+02  0.17144114195E+03  0.39692149006E+03  0.92313189237E+02 0.  0.
         23    2    4    4    0    0 -0.31568369119E+02 -0.78177220932E+03 -0.50824393531E+03  0.93756106335E+03  0.92436467571E+02 0.  0.
          2    1    3    3  502    0 -0.25296003434E+03  0.80392786868E+03 -0.14613647084E+04  0.16869723198E+04  0.00000000000E+00 0. -1.
         -1    1    3    3    0  502 -0.49071976073E+02  0.69188010306E+02 -0.13555202969E+03  0.15990432251E+03  0.00000000000E+00 0.  1.
         11    1    5    5    0    0  0.14830452605E+03 -0.86651863269E+02  0.68672779081E+02  0.18498304907E+03  0.00000000000E+00 0.  1.
        -11    1    5    5    0    0  0.18529585348E+03 -0.46918063981E+01  0.10276836287E+03  0.21193844099E+03  0.00000000000E+00 0. -1.
          4    1    6    6  503    0 -0.18442214780E+02 -0.18667084491E+03 -0.16870194448E+03  0.25228251167E+03  0.00000000000E+00 0. -1.
         -4    1    6    6    0  503 -0.13126154339E+02 -0.59510136442E+03 -0.33954199084E+03  0.68527855169E+03  0.00000000000E+00 0.  1.
<mgrwt>
<rscale>  0 0.25262175E+04</rscale>
<asrwt>0</asrwt>
<pdfrwt beam="1">  1        2 0.39346759E+00 0.25262175E+04</pdfrwt>
<pdfrwt beam="2">  1       -1 0.95972282E-01 0.25262175E+04</pdfrwt>
<totfact> 0.34127598E+00</totfact>
</mgrwt>
</event>
<event>
12    6  0.1542110E-007  0.1580299E+04  0.7818608E-02  0.8832743E-01
         -1   -1    0    0    0  501 -0.00000000000E+00  0.00000000000E+00  0.75288113685E+03  0.75288113685E+03  0.00000000000E+00 0.  1.
          2   -1    0    0  501    0  0.00000000000E+00 -0.00000000000E+00 -0.82926301452E+03  0.82926301452E+03  0.00000000000E+00 0. -1.
         24    2    1    2    0    0 -0.14051635393E+03 -0.24544701421E+03  0.42479620028E+03  0.51647664458E+03  0.79418071745E+02 0.  0.
        254    2    1    2    0    0  0.14051635393E+03  0.24544701421E+03 -0.50117807795E+03  0.10656675068E+04  0.89692735866E+03 0.  0.
         23    2    4    4    0    0 -0.16867187655E+03  0.45999389562E+03 -0.10111275087E+03  0.50877526815E+03  0.92649334287E+02 0.  0.
         23    2    4    4    0    0  0.30918823048E+03 -0.21454688141E+03 -0.40006532708E+03  0.55689223864E+03  0.91918297058E+02 0.  0.
          2    1    3    3  502    0 -0.52432978662E+02 -0.39577260418E+02  0.63178026593E+02  0.91142963731E+02  0.00000000000E+00 0. -1.
         -1    1    3    3    0  502 -0.88083375268E+02 -0.20586975379E+03  0.36161817369E+03  0.42533368085E+03  0.00000000000E+00 0.  1.
         11    1    5    5    0    0  0.10334521477E+02  0.12047493203E+02 -0.67247846705E+01  0.17238536930E+02  0.00000000000E+00 0. -1.
        -11    1    5    5    0    0 -0.17900639803E+03  0.44794640242E+03 -0.94387966200E+02  0.49153673122E+03  0.00000000000E+00 0.  1.
          4    1    6    6  503    0  0.19776271602E+03 -0.16606354894E+03 -0.21774364904E+03  0.33778616139E+03  0.00000000000E+00 0.  1.
         -4    1    6    6    0  503  0.11142551447E+03 -0.48483332466E+02 -0.18232167805E+03  0.21910607725E+03  0.00000000000E+00 0. -1.
<mgrwt>
<rscale>  0 0.15802993E+04</rscale>
<asrwt>0</asrwt>
<pdfrwt beam="1">  1        2 0.12757892E+00 0.15802993E+04</pdfrwt>
<pdfrwt beam="2">  1       -1 0.11582787E+00 0.15802993E+04</pdfrwt>
<totfact> 0.24284170E+01</totfact>
</mgrwt>
</event>
<event>
12    6  0.1542110E-007  0.1796956E+04  0.7818608E-02  0.8707920E-01
         -1   -1    0    0    0  501 -0.00000000000E+00  0.00000000000E+00  0.15144187628E+04  0.15144187628E+04  0.00000000000E+00 0.  1.
          2   -1    0    0  501    0  0.00000000000E+00 -0.00000000000E+00 -0.53305114424E+03  0.53305114424E+03  0.00000000000E+00 0. -1.
         24    2    1    2    0    0 -0.42241875216E+03 -0.51207885299E+03  0.25988045061E+03  0.71773834553E+03  0.83355444799E+02 0.  0.
        254    2    1    2    0    0  0.42241875216E+03  0.51207885299E+03  0.72148716797E+03  0.13297315615E+04  0.89832062112E+03 0.  0.
         23    2    4    4    0    0  0.29639274225E+03  0.40229684731E+02  0.76883634426E+03  0.83031535655E+03  0.94059459246E+02 0.  0.
         23    2    4    4    0    0  0.12602600990E+03  0.47184916826E+03 -0.47349176285E+02  0.49941620498E+03  0.93007572509E+02 0.  0.
          4    1    3    3  502    0 -0.24843465596E+03 -0.28768473474E+03  0.19175765283E+03  0.42573851400E+03  0.00000000000E+00 0. -1.
         -3    1    3    3    0  502 -0.17398409620E+03 -0.22439411826E+03  0.68122797785E+02  0.29199983153E+03  0.00000000000E+00 0.  1.
         11    1    5    5    0    0  0.37251648482E+02 -0.25535468743E+02  0.89160885339E+02  0.99947030736E+02  0.00000000000E+00 0. -1.
        -11    1    5    5    0    0  0.25914109377E+03  0.65765153474E+02  0.67967545892E+03  0.73036832581E+03  0.00000000000E+00 0.  1.
          4    1    6    6  503    0  0.14922477394E+02  0.13734947809E+03  0.22823580327E+02  0.14003026559E+03  0.00000000000E+00 0. -1.
         -4    1    6    6    0  503  0.11110353251E+03  0.33449969017E+03 -0.70172756612E+02  0.35938593939E+03  0.00000000000E+00 0.  1.
<mgrwt>
<rscale>  0 0.17969559E+04</rscale>
<asrwt>0</asrwt>
<pdfrwt beam="1">  1        2 0.82007869E-01 0.17969559E+04</pdfrwt>
<pdfrwt beam="2">  1       -1 0.23298750E+00 0.17969559E+04</pdfrwt>
<totfact> 0.55585862E+00</totfact>
</mgrwt>
</event>
<event>
12    6  0.1542110E-007  0.1429402E+04  0.7818608E-02  0.8932806E-01
          2   -1    0    0  501    0  0.00000000000E+00  0.00000000000E+00  0.11019038597E+04  0.11019038597E+04  0.00000000000E+00 0. -1.
         -1   -1    0    0    0  501 -0.00000000000E+00 -0.00000000000E+00 -0.46355937977E+03  0.46355937977E+03  0.00000000000E+00 0.  1.
         24    2    1    2    0    0 -0.32252034727E+03 -0.23921246802E+03  0.16512252662E+02  0.40947318480E+03  0.78445237767E+02 0.  0.
        254    2    1    2    0    0  0.32252034727E+03  0.23921246802E+03  0.62183222729E+03  0.11559900547E+04  0.88791649854E+03 0.  0.
         23    2    4    4    0    0  0.49202170522E+02  0.29684934499E+03  0.76661529067E+03  0.82841180530E+03  0.89592008914E+02 0.  0.
         23    2    4    4    0    0  0.27331817674E+03 -0.57636876976E+02 -0.14478306338E+03  0.32757824938E+03  0.91216986908E+02 0.  0.
          2    1    3    3  502    0 -0.38573234278E+01  0.17673897545E+01  0.89221122834E+01  0.98796102235E+01  0.00000000000E+00 0. -1.
         -1    1    3    3    0  502 -0.31866302384E+03 -0.24097985777E+03  0.75901403783E+01  0.39959357458E+03  0.00000000000E+00 0.  1.
         11    1    5    5    0    0  0.70853975746E+02  0.15465072837E+03  0.41257739661E+03  0.44627036857E+03  0.00000000000E+00 0. -1.
        -11    1    5    5    0    0 -0.21651805225E+02  0.14219861662E+03  0.35403789406E+03  0.38214143673E+03  0.00000000000E+00 0.  1.
          2    1    6    6  503    0  0.47416121269E+02 -0.38442438211E+02 -0.59815011183E+02  0.85463121723E+02  0.00000000000E+00 0. -1.
         -2    1    6    6    0  503  0.22590205548E+03 -0.19194438765E+02 -0.84968052198E+02  0.24211512766E+03  0.00000000000E+00 0.  1.
<mgrwt>
<rscale>  0 0.14294025E+04</rscale>
<asrwt>0</asrwt>
<pdfrwt beam="1">  1        2 0.16952367E+00 0.14294025E+04</pdfrwt>
<pdfrwt beam="2">  1       -1 0.71316828E-01 0.14294025E+04</pdfrwt>
<totfact> 0.47791688E+01</totfact>
</mgrwt>
</event>
<event>
12    6  0.1542110E-007  0.1355861E+04  0.7818608E-02  0.8986403E-01
         -1   -1    0    0    0  501 -0.00000000000E+00  0.00000000000E+00  0.12972855295E+03  0.12972855295E+03  0.00000000000E+00 0.  1.
          2   -1    0    0  501    0  0.00000000000E+00 -0.00000000000E+00 -0.35427047698E+04  0.35427047698E+04  0.00000000000E+00 0. -1.
         24    2    1    2    0    0 -0.25287105447E+03 -0.27041104149E+03 -0.10826754154E+04  0.11470424747E+04  0.80339792100E+02 0.  0.
        254    2    1    2    0    0  0.25287105447E+03  0.27041104149E+03 -0.23303008015E+04  0.25253908480E+04  0.90012843994E+03 0.  0.
         23    2    4    4    0    0 -0.87681612727E+02 -0.18281282605E+03 -0.14996466446E+04  0.15160533954E+04  0.91483573885E+02 0.  0.
         23    2    4    4    0    0  0.34055266720E+03  0.45322386754E+03 -0.83065415683E+03  0.10093374526E+04  0.85952148305E+02 0.  0.
          4    1    3    3  502    0 -0.24871633821E+02 -0.12812847792E+01 -0.97376747021E+02  0.10051104775E+03  0.00000000000E+00 0. -1.
         -3    1    3    3    0  502 -0.22799942065E+03 -0.26912975671E+03 -0.98529866835E+03  0.10465314270E+04  0.00000000000E+00 0.  1.
         11    1    5    5    0    0 -0.29104738231E+02 -0.15182809070E+03 -0.11281421957E+04  0.11386850612E+04  0.00000000000E+00 0. -1.
        -11    1    5    5    0    0 -0.58576874496E+02 -0.30984735350E+02 -0.37150444892E+03  0.37736833415E+03  0.00000000000E+00 0.  1.
          1    1    6    6  503    0  0.26099363126E+03  0.37103252742E+03 -0.60321635805E+03  0.75475346079E+03  0.00000000000E+00 0. -1.
         -1    1    6    6    0  503  0.79559035941E+02  0.82191340124E+02 -0.22743779878E+03  0.25458399185E+03  0.00000000000E+00 0.  1.
<mgrwt>
<rscale>  0 0.13558613E+04</rscale>
<asrwt>0</asrwt>
<pdfrwt beam="1">  1        2 0.54503148E+00 0.13558613E+04</pdfrwt>
<pdfrwt beam="2">  1       -1 0.19958240E-01 0.13558613E+04</pdfrwt>
<totfact> 0.17656920E+01</totfact>
</mgrwt>
</event>
<event>
12    6  0.1542110E-007  0.1764857E+04  0.7818608E-02  0.8725214E-01
         -1   -1    0    0    0  501 -0.00000000000E+00  0.00000000000E+00  0.19461005093E+03  0.19461005093E+03  0.00000000000E+00 0.  1.
          2   -1    0    0  501    0  0.00000000000E+00 -0.00000000000E+00 -0.40012340972E+04  0.40012340972E+04  0.00000000000E+00 0. -1.
         24    2    1    2    0    0 -0.32321222031E+03 -0.54380159620E+03 -0.22735115971E+04  0.23619465288E+04  0.98742633064E+02 0.  0.
        254    2    1    2    0    0  0.32321222031E+03  0.54380159620E+03 -0.15331124492E+04  0.18338976194E+04  0.78266236711E+03 0.  0.
         23    2    4    4    0    0  0.34749683869E+03 -0.11788507006E+02 -0.98634765789E+03  0.10498943360E+04  0.92213842063E+02 0.  0.
         23    2    4    4    0    0 -0.24284618378E+02  0.55559010321E+03 -0.54676479135E+03  0.78400328340E+03  0.80245285492E+02 0.  0.
          4    1    3    3  502    0 -0.24729430370E+03 -0.38665111939E+03 -0.17898348841E+04  0.18477452403E+04  0.00000000000E+00 0. -1.
         -3    1    3    3    0  502 -0.75917916617E+02 -0.15715047682E+03 -0.48367671294E+03  0.51420128847E+03  0.00000000000E+00 0.  1.
         11    1    5    5    0    0  0.16946797199E+03 -0.42915791670E+02 -0.40547315694E+03  0.44155366571E+03  0.00000000000E+00 0. -1.
        -11    1    5    5    0    0  0.17802886670E+03  0.31127284664E+02 -0.58087450095E+03  0.60834067025E+03  0.00000000000E+00 0.  1.
          3    1    6    6  503    0 -0.17947224772E+02  0.21299899861E+03 -0.26442206625E+03  0.34001427236E+03  0.00000000000E+00 0. -1.
         -3    1    6    6    0  503 -0.63373936067E+01  0.34259110460E+03 -0.28234272510E+03  0.44398901104E+03  0.00000000000E+00 0.  1.
<mgrwt>
<rscale>  0 0.17648574E+04</rscale>
<asrwt>0</asrwt>
<pdfrwt beam="1">  1        2 0.61557448E+00 0.17648574E+04</pdfrwt>
<pdfrwt beam="2">  1       -1 0.29940008E-01 0.17648574E+04</pdfrwt>
<totfact> 0.38261663E+00</totfact>
</mgrwt>
</event>
<event>
12    6  0.1542110E-007  0.3089391E+04  0.7818608E-02  0.8218656E-01
         -1   -1    0    0    0  501 -0.00000000000E+00  0.00000000000E+00  0.12770065793E+04  0.12770065793E+04  0.00000000000E+00 0.  1.
          2   -1    0    0  501    0  0.00000000000E+00 -0.00000000000E+00 -0.18684977611E+04  0.18684977611E+04  0.00000000000E+00 0. -1.
         24    2    1    2    0    0 -0.79447429990E+03  0.15733769152E+03 -0.14479138824E+04  0.16609226486E+04  0.79150939975E+02 0.  0.
        254    2    1    2    0    0  0.79447429990E+03 -0.15733769152E+03  0.85642270062E+03  0.14845816919E+04  0.90253996881E+03 0.  0.
         23    2    4    4    0    0  0.42401588057E+03  0.31546467979E+03  0.15846585512E+03  0.55916963293E+03  0.90839528745E+02 0.  0.
         23    2    4    4    0    0  0.37045841933E+03 -0.47280237130E+03  0.69795684549E+03  0.92541205893E+03  0.91990205401E+02 0.  0.
          4    1    3    3  502    0 -0.67447191399E+03  0.11527608235E+03 -0.12641102286E+04  0.14374197744E+04  0.00000000000E+00 0. -1.
         -3    1    3    3    0  502 -0.12000238591E+03  0.42061609161E+02 -0.18380365383E+03  0.22350287414E+03  0.00000000000E+00 0.  1.
         11    1    5    5    0    0  0.42555514059E+02  0.49373714662E+02 -0.69034616198E+01  0.65546878329E+02  0.00000000000E+00 0. -1.
        -11    1    5    5    0    0  0.38146036651E+03  0.26609096512E+03  0.16536931674E+03  0.49362275460E+03  0.00000000000E+00 0.  1.
          1    1    6    6  503    0 -0.13331715163E+01 -0.11379091104E+02  0.31988125967E+02  0.33977952609E+02  0.00000000000E+00 0. -1.
         -1    1    6    6    0  503  0.37179159085E+03 -0.46142328020E+03  0.66596871952E+03  0.89143410633E+03  0.00000000000E+00 0.  1.
<mgrwt>
<rscale>  0 0.30893908E+04</rscale>
<asrwt>0</asrwt>
<pdfrwt beam="1">  1        2 0.28746119E+00 0.30893908E+04</pdfrwt>
<pdfrwt beam="2">  1       -1 0.19646255E+00 0.30893908E+04</pdfrwt>
<totfact> 0.12171721E+00</totfact>
</mgrwt>
</event>
<event>
12    6  0.1542110E-007  0.2312166E+04  0.7818608E-02  0.8473140E-01
          2   -1    0    0  501    0  0.00000000000E+00  0.00000000000E+00  0.23040169854E+04  0.23040169854E+04  0.00000000000E+00 0. -1.
         -1   -1    0    0    0  501 -0.00000000000E+00 -0.00000000000E+00 -0.58008593597E+03  0.58008593597E+03  0.00000000000E+00 0.  1.
         24    2    1    2    0    0 -0.46842486865E+02 -0.88848081018E+03  0.13740547309E+03  0.90375134502E+03  0.79333857529E+02 0.  0.
        254    2    1    2    0    0  0.46842486865E+02  0.88848081018E+03  0.15865255763E+04  0.19803515763E+04  0.78303039081E+03 0.  0.
         23    2    4    4    0    0 -0.91254171208E+02  0.85293019037E+03  0.80234788411E+03  0.11780919487E+04  0.91221045134E+02 0.  0.
         23    2    4    4    0    0  0.13809665807E+03  0.35550619811E+02  0.78417769222E+03  0.80225962763E+03  0.91385576597E+02 0.  0.
          4    1    3    3  502    0 -0.35892745641E+02 -0.14462919231E+03  0.14281673905E+02  0.14969922735E+03  0.00000000000E+00 0. -1.
         -3    1    3    3    0  502 -0.10949741224E+02 -0.74385161787E+03  0.12312379919E+03  0.75405211767E+03  0.00000000000E+00 0.  1.
         11    1    5    5    0    0 -0.96586442086E+00 -0.17045761398E+01  0.65376411733E+01  0.68248975089E+01  0.00000000000E+00 0. -1.
        -11    1    5    5    0    0 -0.90288306787E+02  0.85463476651E+03  0.79581024293E+03  0.11712670512E+04  0.00000000000E+00 0.  1.
          1    1    6    6  503    0  0.23711369327E+01 -0.83817871987E+01  0.22508423241E+03  0.22525272102E+03  0.00000000000E+00 0. -1.
         -1    1    6    6    0  503  0.13572552114E+03  0.43932407010E+02  0.55909345981E+03  0.57700690661E+03  0.00000000000E+00 0.  1.
<mgrwt>
<rscale>  0 0.23121660E+04</rscale>
<asrwt>0</asrwt>
<pdfrwt beam="1">  1        2 0.35446415E+00 0.23121660E+04</pdfrwt>
<pdfrwt beam="2">  1       -1 0.89243991E-01 0.23121660E+04</pdfrwt>
<totfact> 0.57188895E+00</totfact>
</mgrwt>
</event>
<event>
12    6  0.1542110E-007  0.1367769E+04  0.7818608E-02  0.8977485E-01
         -1   -1    0    0    0  501 -0.00000000000E+00  0.00000000000E+00  0.29116640231E+03  0.29116640231E+03  0.00000000000E+00 0.  1.
          2   -1    0    0  501    0  0.00000000000E+00 -0.00000000000E+00 -0.16062917361E+04  0.16062917361E+04  0.00000000000E+00 0. -1.
         24    2    1    2    0    0 -0.13785281034E+02  0.24763894941E+03  0.27990145456E+02  0.26197321673E+03  0.79570313599E+02 0.  0.
        254    2    1    2    0    0  0.13785281034E+02 -0.24763894941E+03 -0.13431154793E+04  0.16354849217E+04  0.89963139965E+03 0.  0.
         23    2    4    4    0    0  0.35659930305E+03 -0.33263368378E+03 -0.10709926289E+04  0.11804614585E+04  0.93036624281E+02 0.  0.
         23    2    4    4    0    0 -0.34281402202E+03  0.84994734371E+02 -0.27212285040E+03  0.45502346318E+03  0.90829223098E+02 0.  0.
          4    1    3    3  502    0 -0.21231961244E+01 -0.57518456034E+01  0.36826967199E+01  0.71521985961E+01  0.00000000000E+00 0. -1.
         -3    1    3    3    0  502 -0.11662084909E+02  0.25339079501E+03  0.24307448736E+02  0.25482101814E+03  0.00000000000E+00 0.  1.
         11    1    5    5    0    0  0.91131877239E+02 -0.13514035687E+03 -0.29877891078E+03  0.34034801693E+03  0.00000000000E+00 0. -1.
        -11    1    5    5    0    0  0.26546742582E+03 -0.19749332690E+03 -0.77221371808E+03  0.84011344159E+03  0.00000000000E+00 0.  1.
          1    1    6    6  503    0 -0.30899806127E+02  0.15559036517E+02 -0.66708943338E+02  0.75146289045E+02  0.00000000000E+00 0. -1.
         -1    1    6    6    0  503 -0.31191421589E+03  0.69435697854E+02 -0.20541390707E+03  0.37987717414E+03  0.00000000000E+00 0.  1.
<mgrwt>
<rscale>  0 0.13677693E+04</rscale>
<asrwt>0</asrwt>
<pdfrwt beam="1">  1        2 0.24712181E+00 0.13677693E+04</pdfrwt>
<pdfrwt beam="2">  1       -1 0.44794831E-01 0.13677693E+04</pdfrwt>
<totfact> 0.60722661E+01</totfact>
</mgrwt>
</event>
<event>
12    6  0.1542110E-007  0.2122063E+04  0.7818608E-02  0.8551586E-01
         -1   -1    0    0    0  501 -0.00000000000E+00  0.00000000000E+00  0.12728597013E+04  0.12728597013E+04  0.00000000000E+00 0.  1.
          2   -1    0    0  501    0  0.00000000000E+00 -0.00000000000E+00 -0.88445568063E+03  0.88445568063E+03  0.00000000000E+00 0. -1.
         24    2    1    2    0    0 -0.63062718078E+03 -0.23427907098E+03 -0.36103480254E+03  0.76768763357E+03  0.80130205616E+02 0.  0.
        254    2    1    2    0    0  0.63062718078E+03  0.23427907098E+03  0.74943882319E+03  0.13896277483E+04  0.95751209131E+03 0.  0.
         23    2    4    4    0    0  0.34267907290E+03  0.34466185079E+03  0.90582707645E+03  0.10316267333E+04  0.86661905990E+02 0.  0.
         23    2    4    4    0    0  0.28794810788E+03 -0.11038277981E+03 -0.15638825326E+03  0.35800101508E+03  0.92784536051E+02 0.  0.
          4    1    3    3  502    0 -0.46713851231E+03 -0.13586716377E+03 -0.25142850241E+03  0.54762630296E+03  0.00000000000E+00 0. -1.
         -3    1    3    3    0  502 -0.16348866847E+03 -0.98411907217E+02 -0.10960630013E+03  0.22006133061E+03  0.00000000000E+00 0.  1.
         11    1    5    5    0    0  0.33333399469E+03  0.32488758415E+03  0.81845025761E+03  0.94155420372E+03  0.00000000000E+00 0.  1.
        -11    1    5    5    0    0  0.93450782119E+01  0.19774266641E+02  0.87376818839E+02  0.90072529544E+02  0.00000000000E+00 0. -1.
          3    1    6    6  503    0  0.15944892259E+03 -0.41697331034E+02 -0.35299848899E+02  0.16854882279E+03  0.00000000000E+00 0. -1.
         -3    1    6    6    0  503  0.12849918529E+03 -0.68685448774E+02 -0.12108840436E+03  0.18945219229E+03  0.00000000000E+00 0.  1.
<mgrwt>
<rscale>  0 0.21220631E+04</rscale>
<asrwt>0</asrwt>
<pdfrwt beam="1">  1        2 0.13607010E+00 0.21220631E+04</pdfrwt>
<pdfrwt beam="2">  1       -1 0.19582457E+00 0.21220631E+04</pdfrwt>
<totfact> 0.50722638E+00</totfact>
</mgrwt>
</event>
<event>
12    6  0.1542110E-007  0.2178505E+04  0.7818608E-02  0.8527429E-01
          2   -1    0    0  501    0  0.00000000000E+00  0.00000000000E+00  0.12886508877E+04  0.12886508877E+04  0.00000000000E+00 0. -1.
         -1   -1    0    0    0  501 -0.00000000000E+00 -0.00000000000E+00 -0.92070749950E+03  0.92070749950E+03  0.00000000000E+00 0.  1.
         24    2    1    2    0    0 -0.70541098849E+03  0.22507929321E+03  0.67224684867E+03  0.10024671305E+04  0.68986747059E+02 0.  0.
        254    2    1    2    0    0  0.70541098849E+03 -0.22507929321E+03 -0.30430346050E+03  0.12068912567E+04  0.90317249650E+03 0.  0.
         23    2    4    4    0    0  0.29957911360E+03 -0.54739852231E+03 -0.82498174796E+02  0.63591194997E+03  0.90472491544E+02 0.  0.
         23    2    4    4    0    0  0.40583187488E+03  0.32231922910E+03 -0.22180528570E+03  0.57097930670E+03  0.90722587051E+02 0.  0.
          4    1    3    3  502    0 -0.54974526455E+03  0.20395510571E+03  0.53968302992E+03  0.79691612722E+03  0.00000000000E+00 0. -1.
         -3    1    3    3    0  502 -0.15566572394E+03  0.21124187501E+02  0.13256381876E+03  0.20555100328E+03  0.00000000000E+00 0.  1.
         11    1    5    5    0    0  0.72611130062E+02 -0.22244420074E+03 -0.23456839736E+02  0.23516807177E+03  0.00000000000E+00 0. -1.
        -11    1    5    5    0    0  0.22696798354E+03 -0.32495432157E+03 -0.59041335059E+02  0.40074387819E+03  0.00000000000E+00 0.  1.
          2    1    6    6  503    0  0.20825678872E+03  0.21753887247E+03 -0.10704350560E+03  0.31961283325E+03  0.00000000000E+00 0. -1.
         -2    1    6    6    0  503  0.19757508616E+03  0.10478035663E+03 -0.11476178011E+03  0.25136647346E+03  0.00000000000E+00 0.  1.
<mgrwt>
<rscale>  0 0.21785046E+04</rscale>
<asrwt>0</asrwt>
<pdfrwt beam="1">  1        2 0.19825398E+00 0.21785046E+04</pdfrwt>
<pdfrwt beam="2">  1       -1 0.14164731E+00 0.21785046E+04</pdfrwt>
<totfact> 0.71213963E+00</totfact>
</mgrwt>
</event>
<event>
12    6  0.1542110E-007  0.1423325E+04  0.7818608E-02  0.8937106E-01
         -1   -1    0    0    0  501 -0.00000000000E+00  0.00000000000E+00  0.47024284861E+03  0.47024284861E+03  0.00000000000E+00 0.  1.
          2   -1    0    0  501    0  0.00000000000E+00 -0.00000000000E+00 -0.10770248646E+04  0.10770248646E+04  0.00000000000E+00 0. -1.
         24    2    1    2    0    0  0.55367545200E+01  0.31987513016E+03 -0.48189605293E+03  0.58410182661E+03  0.81242744134E+02 0.  0.
        254    2    1    2    0    0 -0.55367545200E+01 -0.31987513016E+03 -0.12488596308E+03  0.96316588661E+03  0.89985624786E+03 0.  0.
         23    2    4    4    0    0 -0.41245724279E+03 -0.23769753783E+03 -0.21315352978E+03  0.52912210426E+03  0.88964472358E+02 0.  0.
         23    2    4    4    0    0  0.40692048827E+03 -0.82177592328E+02  0.88267566705E+02  0.43404378235E+03  0.90914251973E+02 0.  0.
          4    1    3    3  502    0 -0.78474780330E+01  0.30034247579E+03 -0.46942734332E+03  0.55734120279E+03  0.00000000000E+00 0. -1.
         -3    1    3    3    0  502  0.13384232553E+02  0.19532654372E+02 -0.12468709614E+02  0.26760623821E+02  0.00000000000E+00 0.  1.
         11    1    5    5    0    0 -0.22356583778E+03 -0.17386993611E+03 -0.10323126136E+03  0.30144507265E+03  0.00000000000E+00 0. -1.
        -11    1    5    5    0    0 -0.18889140501E+03 -0.63827601723E+02 -0.10992226843E+03  0.22767703161E+03  0.00000000000E+00 0.  1.
          3    1    6    6  503    0  0.40468003261E+03 -0.91790670563E+02  0.87893926011E+02  0.42416600314E+03  0.00000000000E+00 0. -1.
         -3    1    6    6    0  503  0.22404556627E+01  0.96130782346E+01  0.37364069382E+00  0.98777792083E+01  0.00000000000E+00 0.  1.
<mgrwt>
<rscale>  0 0.14233246E+04</rscale>
<asrwt>0</asrwt>
<pdfrwt beam="1">  1        2 0.16569613E+00 0.14233246E+04</pdfrwt>
<pdfrwt beam="2">  1       -1 0.72345055E-01 0.14233246E+04</pdfrwt>
<totfact> 0.48099788E+01</totfact>
</mgrwt>
</event>
<event>
12    6  0.1542110E-007  0.3131524E+04  0.7818608E-02  0.8207139E-01
          2   -1    0    0  501    0  0.00000000000E+00  0.00000000000E+00  0.23488640534E+04  0.23488640534E+04  0.00000000000E+00 0. -1.
         -1   -1    0    0    0  501 -0.00000000000E+00 -0.00000000000E+00 -0.10437433478E+04  0.10437433478E+04  0.00000000000E+00 0.  1.
         24    2    1    2    0    0 -0.55796378086E+03 -0.31591211355E+03  0.19912068159E+04  0.20933737392E+04  0.78644670024E+02 0.  0.
        254    2    1    2    0    0  0.55796378086E+03  0.31591211355E+03 -0.68608611027E+03  0.12992336620E+04  0.89786965292E+03 0.  0.
         23    2    4    4    0    0  0.28036752002E+03  0.60355026843E+03 -0.29559331296E+03  0.73367275516E+03  0.89562448538E+02 0.  0.
         23    2    4    4    0    0  0.27759626084E+03 -0.28763815488E+03 -0.39049279731E+03  0.56556090689E+03  0.87058155694E+02 0.  0.
          2    1    3    3  502    0 -0.23165295482E+03 -0.15509522969E+03  0.97205068755E+03  0.10112369460E+04  0.00000000000E+00 0. -1.
         -1    1    3    3    0  502 -0.32631082604E+03 -0.16081688386E+03  0.10191561283E+04  0.10821367932E+04  0.00000000000E+00 0.  1.
         11    1    5    5    0    0  0.15203881762E+03  0.29135283353E+03 -0.19189321304E+03  0.38055916870E+03  0.00000000000E+00 0. -1.
        -11    1    5    5    0    0  0.12832870240E+03  0.31219743490E+03 -0.10370009992E+03  0.35311358646E+03  0.00000000000E+00 0.  1.
          2    1    6    6  503    0  0.16743662301E+03 -0.18125987916E+03 -0.18081919650E+03  0.30591787843E+03  0.00000000000E+00 0. -1.
         -2    1    6    6    0  503  0.11015963783E+03 -0.10637827572E+03 -0.20967360080E+03  0.25964302846E+03  0.00000000000E+00 0.  1.
<mgrwt>
<rscale>  0 0.31315244E+04</rscale>
<asrwt>0</asrwt>
<pdfrwt beam="1">  1        2 0.36136370E+00 0.31315244E+04</pdfrwt>
<pdfrwt beam="2">  1       -1 0.16057590E+00 0.31315244E+04</pdfrwt>
<totfact> 0.11841895E+00</totfact>
</mgrwt>
</event>
<event>
12    6  0.1542110E-007  0.1460519E+04  0.7818608E-02  0.8911140E-01
         -1   -1    0    0    0  501 -0.00000000000E+00  0.00000000000E+00  0.43482429740E+03  0.43482429740E+03  0.00000000000E+00 0.  1.
          2   -1    0    0  501    0  0.00000000000E+00 -0.00000000000E+00 -0.12264243631E+04  0.12264243631E+04  0.00000000000E+00 0. -1.
         24    2    1    2    0    0 -0.36367075942E+03 -0.17652112149E+03 -0.13165075374E+02  0.41101514405E+03  0.73102680131E+02 0.  0.
        254    2    1    2    0    0  0.36367075942E+03  0.17652112149E+03 -0.77843499035E+03  0.12502335165E+04  0.89090217417E+03 0.  0.
         23    2    4    4    0    0 -0.11802145818E+03  0.40987829666E+03 -0.36658780361E+03  0.56888904810E+03  0.85550269633E+02 0.  0.
         23    2    4    4    0    0  0.48169221760E+03 -0.23335717517E+03 -0.41184718674E+03  0.68134446838E+03  0.90162163136E+02 0.  0.
          2    1    3    3  502    0 -0.20609403507E+02 -0.17897868231E+02  0.16498137558E+02  0.31894666372E+02  0.00000000000E+00 0. -1.
         -1    1    3    3    0  502 -0.34306135591E+03 -0.15862325326E+03 -0.29663212932E+02  0.37912047768E+03  0.00000000000E+00 0.  1.
         11    1    5    5    0    0 -0.77620992246E+02  0.26177635734E+03 -0.17896489351E+03  0.32646640380E+03  0.00000000000E+00 0. -1.
        -11    1    5    5    0    0 -0.40400465930E+02  0.14810193932E+03 -0.18762291010E+03  0.24242264430E+03  0.00000000000E+00 0.  1.
          4    1    6    6  503    0  0.79956397104E+02 -0.48095750877E+02 -0.11720784295E+03  0.14981290044E+03  0.00000000000E+00 0. -1.
         -4    1    6    6    0  503  0.40173582049E+03 -0.18526142430E+03 -0.29463934380E+03  0.53153156793E+03  0.00000000000E+00 0.  1.
<mgrwt>
<rscale>  0 0.14605192E+04</rscale>
<asrwt>0</asrwt>
<pdfrwt beam="1">  1        2 0.18868067E+00 0.14605192E+04</pdfrwt>
<pdfrwt beam="2">  1       -1 0.66896048E-01 0.14605192E+04</pdfrwt>
<totfact> 0.45687981E+01</totfact>
</mgrwt>
</event>
<event>
12    6  0.1542110E-007  0.1543113E+04  0.7818608E-02  0.8856279E-01
         -1   -1    0    0    0  501 -0.00000000000E+00  0.00000000000E+00  0.29082296181E+03  0.29082296181E+03  0.00000000000E+00 0.  1.
          2   -1    0    0  501    0  0.00000000000E+00 -0.00000000000E+00 -0.20469488622E+04  0.20469488622E+04  0.00000000000E+00 0. -1.
         24    2    1    2    0    0  0.94836739269E+02 -0.30846770609E+03 -0.11913566048E+04  0.12369663346E+04  0.81294650356E+02 0.  0.
        254    2    1    2    0    0 -0.94836739269E+02  0.30846770609E+03 -0.56476929555E+03  0.11008054894E+04  0.88806645896E+03 0.  0.
         23    2    4    4    0    0 -0.10208927696E+03  0.32235124502E+03  0.14865726410E+03  0.38052699253E+03  0.91483682901E+02 0.  0.
         23    2    4    4    0    0  0.72525376911E+01 -0.13883538933E+02 -0.71342655965E+03  0.72027849689E+03  0.97868815829E+02 0.  0.
          4    1    3    3  502    0  0.78292785251E+02 -0.19508255601E+03 -0.89187387631E+03  0.91631106898E+03  0.00000000000E+00 0. -1.
         -3    1    3    3    0  502  0.16543954018E+02 -0.11338515008E+03 -0.29948272853E+03  0.32065526560E+03  0.00000000000E+00 0.  1.
         11    1    5    5    0    0  0.74341297431E+01  0.55461447709E+02 -0.70022853174E-01  0.55957513974E+02  0.00000000000E+00 0.  1.
        -11    1    5    5    0    0 -0.10952340670E+03  0.26688979731E+03  0.14872728695E+03  0.32456947855E+03  0.00000000000E+00 0. -1.
          3    1    6    6  503    0  0.27937920391E+01 -0.45889137189E+02 -0.61429475385E+03  0.61601271318E+03  0.00000000000E+00 0. -1.
         -3    1    6    6    0  503  0.44587456520E+01  0.32005598255E+02 -0.99131805802E+02  0.10426578372E+03  0.00000000000E+00 0.  1.
<mgrwt>
<rscale>  0 0.15431134E+04</rscale>
<asrwt>0</asrwt>
<pdfrwt beam="1">  1        2 0.31491522E+00 0.15431134E+04</pdfrwt>
<pdfrwt beam="2">  1       -1 0.44741993E-01 0.15431134E+04</pdfrwt>
<totfact> 0.34175438E+01</totfact>
</mgrwt>
</event>
<event>
12    6  0.1542110E-007  0.1490182E+04  0.7818608E-02  0.8891008E-01
          2   -1    0    0  501    0  0.00000000000E+00  0.00000000000E+00  0.12429124748E+04  0.12429124748E+04  0.00000000000E+00 0. -1.
         -3   -1    0    0    0  501 -0.00000000000E+00 -0.00000000000E+00 -0.44666107732E+03  0.44666107732E+03  0.00000000000E+00 0.  1.
         24    2    1    2    0    0 -0.28326939806E+03  0.17377081320E+03 -0.40631510463E+02  0.34434136347E+03  0.80512157821E+02 0.  0.
        254    2    1    2    0    0  0.28326939806E+03 -0.17377081320E+03  0.83688290798E+03  0.13452321887E+04  0.99941922756E+03 0.  0.
         23    2    4    4    0    0 -0.31718936879E+03 -0.24873074498E+03  0.49794242622E+03  0.64709007896E+03  0.91119873202E+02 0.  0.
         23    2    4    4    0    0  0.60045876684E+03  0.74959931773E+02  0.33894048176E+03  0.69814210973E+03  0.79699643323E+02 0.  0.
          2    1    3    3  502    0 -0.81916410866E+02  0.88707506210E+02  0.57867167603E+01  0.12088344021E+03  0.00000000000E+00 0. -1.
         -1    1    3    3    0  502 -0.20135298719E+03  0.85063306993E+02 -0.46418227223E+02  0.22345792325E+03  0.00000000000E+00 0.  1.
         11    1    5    5    0    0 -0.21007874354E+03 -0.17657027119E+03  0.26928238906E+03  0.38447775516E+03  0.00000000000E+00 0. -1.
        -11    1    5    5    0    0 -0.10711062525E+03 -0.72160473782E+02  0.22866003716E+03  0.26261232380E+03  0.00000000000E+00 0.  1.
          3    1    6    6  503    0  0.37722335264E+03  0.49110494508E+02  0.25634229865E+03  0.45871633122E+03  0.00000000000E+00 0. -1.
         -3    1    6    6    0  503  0.22323541420E+03  0.25849437265E+02  0.82598183109E+02  0.23942577851E+03  0.00000000000E+00 0.  1.
<mgrwt>
<rscale>  0 0.14901820E+04</rscale>
<asrwt>0</asrwt>
<pdfrwt beam="1">  1        2 0.19121730E+00 0.14901820E+04</pdfrwt>
<pdfrwt beam="2">  1       -3 0.68717089E-01 0.14901820E+04</pdfrwt>
<totfact> 0.22352043E+01</totfact>
</mgrwt>
</event>
<event>
12    6  0.1542110E-007  0.1717787E+04  0.7818608E-02  0.8751284E-01
         -1   -1    0    0    0  501 -0.00000000000E+00  0.00000000000E+00  0.17561415251E+03  0.17561415251E+03  0.00000000000E+00 0.  1.
          2   -1    0    0  501    0  0.00000000000E+00 -0.00000000000E+00 -0.42006766055E+04  0.42006766055E+04  0.00000000000E+00 0. -1.
         24    2    1    2    0    0 -0.14811313794E+03  0.26610437144E+03 -0.28313696576E+04  0.28488590628E+04  0.81208271604E+02 0.  0.
        254    2    1    2    0    0  0.14811313794E+03 -0.26610437144E+03 -0.11936927953E+04  0.15274316952E+04  0.90299283260E+03 0.  0.
         23    2    4    4    0    0  0.46247823219E+03 -0.76354722570E+02 -0.98739437130E+03  0.10967598029E+04  0.90654629448E+02 0.  0.
         23    2    4    4    0    0 -0.31436509425E+03 -0.18974964887E+03 -0.20629842404E+03  0.43067189231E+03  0.89938297390E+02 0.  0.
          2    1    3    3  502    0 -0.88033549331E+02  0.21437110997E+03 -0.18894944976E+04  0.19036528924E+04  0.00000000000E+00 0. -1.
         -1    1    3    3    0  502 -0.60079588610E+02  0.51733261472E+02 -0.94187516005E+03  0.94520617033E+03  0.00000000000E+00 0.  1.
         11    1    5    5    0    0  0.19060098506E+03 -0.21385594725E+02 -0.50658426046E+03  0.54167674134E+03  0.00000000000E+00 0. -1.
        -11    1    5    5    0    0  0.27187724713E+03 -0.54969127845E+02 -0.48081011084E+03  0.55508306154E+03  0.00000000000E+00 0.  1.
          1    1    6    6  503    0 -0.27239717322E+03 -0.13271156484E+03 -0.19113342536E+03  0.35825209798E+03  0.00000000000E+00 0. -1.
         -1    1    6    6    0  503 -0.41967921035E+02 -0.57038084034E+02 -0.15164998680E+02  0.72419794333E+02  0.00000000000E+00 0.  1.
<mgrwt>
<rscale>  0 0.17177873E+04</rscale>
<asrwt>0</asrwt>
<pdfrwt beam="1">  1        2 0.64625795E+00 0.17177873E+04</pdfrwt>
<pdfrwt beam="2">  1       -1 0.27017562E-01 0.17177873E+04</pdfrwt>
<totfact> 0.31403831E+00</totfact>
</mgrwt>
</event>
<event>
12    6  0.1542110E-007  0.2665091E+04  0.7818608E-02  0.8346421E-01
         -1   -1    0    0    0  501 -0.00000000000E+00  0.00000000000E+00  0.19213185853E+04  0.19213185853E+04  0.00000000000E+00 0.  1.
          2   -1    0    0  501    0  0.00000000000E+00 -0.00000000000E+00 -0.92419760971E+03  0.92419760971E+03  0.00000000000E+00 0. -1.
         24    2    1    2    0    0  0.10004568245E+04  0.62018801866E+03  0.35996512414E+03  0.12335354403E+04  0.80546605634E+02 0.  0.
        254    2    1    2    0    0 -0.10004568245E+04 -0.62018801866E+03  0.63715585146E+03  0.16119807547E+04  0.89831360803E+03 0.  0.
         23    2    4    4    0    0  0.20812791994E+02  0.88348136297E+02  0.29139395232E+03  0.31852778391E+03  0.91164401921E+02 0.  0.
         23    2    4    4    0    0 -0.10212696165E+04 -0.70853615496E+03  0.34576189914E+03  0.12934529708E+04  0.91946638650E+02 0.  0.
          2    1    3    3  502    0  0.87423340508E+03  0.54742427262E+03  0.28742079745E+03  0.10707792002E+04  0.00000000000E+00 0. -1.
         -1    1    3    3    0  502  0.12622341942E+03  0.72763746046E+02  0.72544326695E+02  0.16275624007E+03  0.00000000000E+00 0.  1.
         11    1    5    5    0    0  0.18248993349E+02  0.99719312221E+02  0.28947688070E+03  0.30671457651E+03  0.00000000000E+00 0. -1.
        -11    1    5    5    0    0  0.25637986452E+01 -0.11371175924E+02  0.19170716200E+01  0.11813207396E+02  0.00000000000E+00 0.  1.
          1    1    6    6  503    0 -0.84925287762E+03 -0.56925453404E+03  0.25141658991E+03  0.10528492182E+04  0.00000000000E+00 0. -1.
         -1    1    6    6    0  503 -0.17201673888E+03 -0.13928162092E+03  0.94345309237E+02  0.24060375258E+03  0.00000000000E+00 0.  1.
<mgrwt>
<rscale>  0 0.26650914E+04</rscale>
<asrwt>0</asrwt>
<pdfrwt beam="1">  1        2 0.14218425E+00 0.26650914E+04</pdfrwt>
<pdfrwt beam="2">  1       -1 0.29558747E+00 0.26650914E+04</pdfrwt>
<totfact> 0.99924146E-01</totfact>
</mgrwt>
</event>
<event>
12    6  0.1542110E-007  0.1960085E+04  0.7818608E-02  0.8625513E-01
         -1   -1    0    0    0  501 -0.00000000000E+00  0.00000000000E+00  0.41438642950E+03  0.41438642950E+03  0.00000000000E+00 0.  1.
          2   -1    0    0  501    0  0.00000000000E+00 -0.00000000000E+00 -0.23178439295E+04  0.23178439295E+04  0.00000000000E+00 0. -1.
         24    2    1    2    0    0 -0.15697204469E+03 -0.16999236813E+03 -0.17736332500E+04  0.17900748711E+04  0.71102115734E+02 0.  0.
        254    2    1    2    0    0  0.15697204469E+03  0.16999236813E+03 -0.12982425007E+03  0.94215548790E+03  0.90402710105E+03 0.  0.
         23    2    4    4    0    0 -0.30326447833E+03  0.30351115754E+03 -0.11584806781E+03  0.45406783501E+03  0.93104550937E+02 0.  0.
         23    2    4    4    0    0  0.46023652302E+03 -0.13351878940E+03 -0.13976182259E+02  0.48808765289E+03  0.91593116483E+02 0.  0.
          4    1    3    3  502    0 -0.15113474977E+03 -0.13442923831E+03 -0.13722784267E+04  0.13871052639E+04  0.00000000000E+00 0. -1.
         -3    1    3    3    0  502 -0.58372949184E+01 -0.35563129821E+02 -0.40135482327E+03  0.40296960727E+03  0.00000000000E+00 0.  1.
         11    1    5    5    0    0 -0.10260965605E+03  0.12180357866E+03 -0.87942316386E+02  0.18193049305E+03  0.00000000000E+00 0. -1.
        -11    1    5    5    0    0 -0.20065482228E+03  0.18170757888E+03 -0.27905751422E+02  0.27213734196E+03  0.00000000000E+00 0.  1.
          3    1    6    6  503    0  0.39832776736E+03 -0.98546048469E+02  0.16635845667E+02  0.41067394035E+03  0.00000000000E+00 0. -1.
         -3    1    6    6    0  503  0.61908755660E+02 -0.34972740936E+02 -0.30612027926E+02  0.77413712543E+02  0.00000000000E+00 0.  1.
<mgrwt>
<rscale>  0 0.19600848E+04</rscale>
<asrwt>0</asrwt>
<pdfrwt beam="1">  1        2 0.35659139E+00 0.19600848E+04</pdfrwt>
<pdfrwt beam="2">  1       -1 0.63751756E-01 0.19600848E+04</pdfrwt>
<totfact> 0.11729965E+01</totfact>
</mgrwt>
</event>
<event>
12    6  0.1542110E-007  0.1599795E+04  0.7818608E-02  0.8820674E-01
         -1   -1    0    0    0  501 -0.00000000000E+00  0.00000000000E+00  0.34973694734E+03  0.34973694734E+03  0.00000000000E+00 0.  1.
          2   -1    0    0  501    0  0.00000000000E+00 -0.00000000000E+00 -0.18294789520E+04  0.18294789520E+04  0.00000000000E+00 0. -1.
         24    2    1    2    0    0 -0.10185815475E+03  0.52061981555E+03 -0.34067021020E+03  0.63495037462E+03  0.75403647614E+02 0.  0.
        254    2    1    2    0    0  0.10185815475E+03 -0.52061981555E+03 -0.11390717945E+04  0.15442655248E+04  0.89769225346E+03 0.  0.
         23    2    4    4    0    0 -0.20683102013E+03  0.16888696722E+03 -0.32873977417E+03  0.43275275756E+03  0.88900120715E+02 0.  0.
         23    2    4    4    0    0  0.30868917488E+03 -0.68950678277E+03 -0.81033202034E+03  0.11115127672E+04  0.90077956933E+02 0.  0.
          4    1    3    3  502    0 -0.29711723428E+02  0.48681693208E+02 -0.22973585955E+02  0.61485603309E+02  0.00000000000E+00 0. -1.
         -3    1    3    3    0  502 -0.72146431321E+02  0.47193812234E+03 -0.31769662424E+03  0.57346477131E+03  0.00000000000E+00 0.  1.
         11    1    5    5    0    0 -0.28272412812E+02 -0.71905548672E+01 -0.21924854708E+02  0.36492912455E+02  0.00000000000E+00 0. -1.
        -11    1    5    5    0    0 -0.17855860732E+03  0.17607752209E+03 -0.30681491946E+03  0.39625984510E+03  0.00000000000E+00 0.  1.
          1    1    6    6  503    0 -0.63556059785E+01 -0.16857183825E+02 -0.20306181100E+02  0.27145890384E+02  0.00000000000E+00 0. -1.
         -1    1    6    6    0  503  0.31504478086E+03 -0.67264959895E+03 -0.79002583924E+03  0.10843668768E+04  0.00000000000E+00 0.  1.
<mgrwt>
<rscale>  0 0.15997955E+04</rscale>
<asrwt>0</asrwt>
<pdfrwt beam="1">  1        2 0.28145830E+00 0.15997955E+04</pdfrwt>
<pdfrwt beam="2">  1       -1 0.53805684E-01 0.15997955E+04</pdfrwt>
<totfact> 0.31646868E+01</totfact>
</mgrwt>
</event>
<event>
12    6  0.1608931E-007  0.1379963E+04  0.7818608E-02  0.8968452E-01
          2   -1    0    0  501    0  0.00000000000E+00  0.00000000000E+00  0.26018362449E+04  0.26018362449E+04  0.00000000000E+00 0. -1.
         -1   -1    0    0    0  501 -0.00000000000E+00 -0.00000000000E+00 -0.18297620942E+03  0.18297620942E+03  0.00000000000E+00 0.  1.
         24    2    1    2    0    0 -0.77622129217E+02  0.24799598395E+03  0.10424507659E+03  0.29132132568E+03  0.80460398989E+02 0.  0.
        254    2    1    2    0    0  0.77622129217E+02 -0.24799598395E+03  0.23146149589E+04  0.24934911287E+04  0.89024064032E+03 0.  0.
         23    2    4    4    0    0  0.15124923664E+02 -0.43583769730E+03  0.51420388346E+03  0.67984936136E+03  0.87213867372E+02 0.  0.
         23    2    4    4    0    0  0.62497205553E+02  0.18784171335E+03  0.18004110755E+04  0.18136417673E+04  0.92876313012E+02 0.  0.
          4    1    3    3  502    0 -0.45846503640E+01  0.39000018324E+01  0.23177859339E+02  0.23946653144E+02  0.00000000000E+00 0. -1.
         -3    1    3    3    0  502 -0.73037478853E+02  0.24409598212E+03  0.81067217247E+02  0.26737467254E+03  0.00000000000E+00 0.  1.
         11    1    5    5    0    0  0.38606442704E+02 -0.36548213061E+03  0.45538918762E+03  0.58518967644E+03  0.00000000000E+00 0.  1.
        -11    1    5    5    0    0 -0.23481519040E+02 -0.70355566689E+02  0.58814695848E+02  0.94659684915E+02  0.00000000000E+00 0. -1.
          2    1    6    6  503    0  0.14298677554E+02  0.15538983157E+03  0.11311103437E+04  0.11418235685E+04  0.00000000000E+00 0.  1.
         -2    1    6    6    0  503  0.48198527999E+02  0.32451881786E+02  0.66930073173E+03  0.67181819879E+03  0.00000000000E+00 0. -1.
<mgrwt>
<rscale>  0 0.13799625E+04</rscale>
<asrwt>0</asrwt>
<pdfrwt beam="1">  1        2 0.40028247E+00 0.13799625E+04</pdfrwt>
<pdfrwt beam="2">  1       -1 0.28150188E-01 0.13799625E+04</pdfrwt>
<totfact> 0.38625180E+01</totfact>
</mgrwt>
</event>
<event>
12    6  0.1542110E-007  0.2183186E+04  0.7818608E-02  0.8525459E-01
          2   -1    0    0  501    0  0.00000000000E+00  0.00000000000E+00  0.14791239634E+04  0.14791239634E+04  0.00000000000E+00 0. -1.
         -1   -1    0    0    0  501 -0.00000000000E+00 -0.00000000000E+00 -0.80559530738E+03  0.80559530738E+03  0.00000000000E+00 0.  1.
         24    2    1    2    0    0  0.10722707745E+03  0.15241260600E+03  0.12071359250E+04  0.12240377410E+04  0.79774690972E+02 0.  0.
        254    2    1    2    0    0 -0.10722707745E+03 -0.15241260600E+03 -0.53360726906E+03  0.10606815297E+04  0.89754183261E+03 0.  0.
         23    2    4    4    0    0  0.17871301824E+03  0.64413269883E+02 -0.64184925112E+03  0.67499784730E+03  0.86972527044E+02 0.  0.
         23    2    4    4    0    0 -0.28594009569E+03 -0.21682587588E+03  0.10824198206E+03  0.38568368243E+03  0.90886618569E+02 0.  0.
          4    1    3    3  502    0  0.11407583323E+03  0.12852988066E+03  0.92643208856E+03  0.94223650994E+03  0.00000000000E+00 0. -1.
         -3    1    3    3    0  502 -0.68487557804E+01  0.23882725339E+02  0.28070383648E+03  0.28180123108E+03  0.00000000000E+00 0.  1.
         11    1    5    5    0    0  0.78049397961E+01  0.33349336714E+02 -0.13190877020E+03  0.13628286393E+03  0.00000000000E+00 0. -1.
        -11    1    5    5    0    0  0.17090807844E+03  0.31063933169E+02 -0.50994048092E+03  0.53871498337E+03  0.00000000000E+00 0.  1.
          4    1    6    6  503    0 -0.13583683793E+03 -0.13158132239E+03  0.97395855513E+02  0.21272339696E+03  0.00000000000E+00 0. -1.
         -4    1    6    6    0  503 -0.15010325775E+03 -0.85244553497E+02  0.10846126546E+02  0.17296028547E+03  0.00000000000E+00 0.  1.
<mgrwt>
<rscale>  0 0.21831860E+04</rscale>
<asrwt>0</asrwt>
<pdfrwt beam="1">  1        2 0.22755753E+00 0.21831860E+04</pdfrwt>
<pdfrwt beam="2">  1       -1 0.12393774E+00 0.21831860E+04</pdfrwt>
<totfact> 0.77758023E+00</totfact>
</mgrwt>
</event>
<event>
12    6  0.1542110E-007  0.1450197E+04  0.7818608E-02  0.8918264E-01
         -1   -1    0    0    0  501 -0.00000000000E+00  0.00000000000E+00  0.70244318895E+03  0.70244318895E+03  0.00000000000E+00 0.  1.
          4   -1    0    0  501    0  0.00000000000E+00 -0.00000000000E+00 -0.74848493665E+03  0.74848493665E+03  0.00000000000E+00 0. -1.
         24    2    1    2    0    0 -0.15029649546E+03 -0.44942996060E+03  0.65902666670E+02  0.48491875051E+03  0.78909486694E+02 0.  0.
        254    2    1    2    0    0  0.15029649546E+03  0.44942996060E+03 -0.11194441437E+03  0.96600937509E+03  0.83430584009E+03 0.  0.
         23    2    4    4    0    0  0.31401447489E+03  0.48978863795E+02  0.23198252797E+03  0.40585239987E+03  0.99479935965E+02 0.  0.
         23    2    4    4    0    0 -0.16371797942E+03  0.40045109681E+03 -0.34392694234E+03  0.56015697522E+03  0.91243835384E+02 0.  0.
          4    1    3    3  502    0 -0.63426909676E+02 -0.16816504684E+03 -0.12863944024E+02  0.18018861481E+03  0.00000000000E+00 0. -1.
         -3    1    3    3    0  502 -0.86869585788E+02 -0.28126491376E+03  0.78766610694E+02  0.30473013571E+03  0.00000000000E+00 0.  1.
         11    1    5    5    0    0  0.21508138304E+03  0.49641480843E+02  0.10378327489E+03  0.24391647361E+03  0.00000000000E+00 0.  1.
        -11    1    5    5    0    0  0.98933091845E+02 -0.66261704741E+00  0.12819925308E+03  0.16193592626E+03  0.00000000000E+00 0. -1.
          2    1    6    6  503    0 -0.68015746236E+01  0.10125377606E+03 -0.53965262397E+02  0.11493841016E+03  0.00000000000E+00 0. -1.
         -2    1    6    6    0  503 -0.15691640480E+03  0.29919732074E+03 -0.28996167994E+03  0.44521856506E+03  0.00000000000E+00 0.  1.
<mgrwt>
<rscale>  0 0.14501974E+04</rscale>
<asrwt>0</asrwt>
<pdfrwt beam="1">  1        4 0.11515153E+00 0.14501974E+04</pdfrwt>
<pdfrwt beam="2">  1       -1 0.10806818E+00 0.14501974E+04</pdfrwt>
<totfact> 0.18715048E+00</totfact>
</mgrwt>
</event>
<event>
12    6  0.2003583E-007  0.2299322E+04  0.7818608E-02  0.8478188E-01
          2   -1    0    0  501    0  0.00000000000E+00  0.00000000000E+00  0.25892376215E+04  0.25892376215E+04  0.00000000000E+00 0. -1.
         -1   -1    0    0    0  501 -0.00000000000E+00 -0.00000000000E+00 -0.51046713267E+03  0.51046713267E+03  0.00000000000E+00 0.  1.
         24    2    1    2    0    0 -0.80823531786E+02  0.94533847007E+03  0.61508537522E+03  0.11335469558E+04  0.80008848302E+02 0.  0.
        254    2    1    2    0    0  0.80823531786E+02 -0.94533847007E+03  0.14636851136E+04  0.19661577984E+04  0.90730651389E+03 0.  0.
         23    2    4    4    0    0 -0.24080563996E+03 -0.93948410331E+03  0.11566647338E+04  0.15122349131E+04  0.91451568022E+02 0.  0.
         23    2    4    4    0    0  0.32162917174E+03 -0.58543667621E+01  0.30702037971E+03  0.45392288526E+03  0.91131084052E+02 0.  0.
          4    1    3    3  502    0 -0.58512949260E+01  0.21364670126E+03  0.10251217103E+03  0.23703986125E+03  0.00000000000E+00 0. -1.
         -1    1    3    3    0  502 -0.74972236860E+02  0.73169176881E+03  0.51257320420E+03  0.89650709451E+03  0.00000000000E+00 0.  1.
         11    1    5    5    0    0 -0.23319756920E+03 -0.79389320196E+03  0.95898720163E+03  0.12666112171E+04  0.00000000000E+00 0. -1.
        -11    1    5    5    0    0 -0.76080707563E+01 -0.14559090134E+03  0.19767753222E+03  0.24562369600E+03  0.00000000000E+00 0.  1.
          2    1    6    6  503    0  0.29315652623E+03  0.22650636080E+02  0.26829885477E+03  0.39804280632E+03  0.00000000000E+00 0. -1.
         -2    1    6    6    0  503  0.28472645507E+02 -0.28505002842E+02  0.38721524942E+02  0.55880078946E+02  0.00000000000E+00 0.  1.
<mgrwt>
<rscale>  0 0.22993223E+04</rscale>
<asrwt>0</asrwt>
<pdfrwt beam="1">  1        2 0.39834424E+00 0.22993223E+04</pdfrwt>
<pdfrwt beam="2">  1       -1 0.78533406E-01 0.22993223E+04</pdfrwt>
<totfact> 0.51684919E+00</totfact>
</mgrwt>
</event>
<event>
12    6  0.1542110E-007  0.1046886E+04  0.7818608E-02  0.9258565E-01
         -1   -1    0    0    0  501 -0.00000000000E+00  0.00000000000E+00  0.47941046205E+03  0.47941046205E+03  0.00000000000E+00 0.  1.
          2   -1    0    0  501    0  0.00000000000E+00 -0.00000000000E+00 -0.57151963151E+03  0.57151963151E+03  0.00000000000E+00 0. -1.
         24    2    1    2    0    0  0.10101953828E+03 -0.48165854450E+02 -0.66907546459E+02  0.15311545889E+03  0.80267224495E+02 0.  0.
        254    2    1    2    0    0 -0.10101953828E+03  0.48165854450E+02 -0.25201623003E+02  0.89781463468E+03  0.89045555745E+03 0.  0.
         23    2    4    4    0    0  0.13236859760E+03  0.28406234343E+03 -0.31105832564E+03  0.45097393700E+03  0.91691598946E+02 0.  0.
         23    2    4    4    0    0 -0.23338813588E+03 -0.23589648898E+03  0.28585670264E+03  0.44684069768E+03  0.88517677190E+02 0.  0.
          2    1    3    3  502    0  0.56209000876E+02  0.15337411114E+01 -0.65306010336E+02  0.86178182432E+02  0.00000000000E+00 0. -1.
         -1    1    3    3    0  502  0.44810537400E+02 -0.49699595562E+02 -0.16015361229E+01  0.66937276454E+02  0.00000000000E+00 0.  1.
         11    1    5    5    0    0  0.10075901752E+03  0.22489921346E+03 -0.29021588075E+03  0.38073257447E+03  0.00000000000E+00 0.  1.
        -11    1    5    5    0    0  0.31609580084E+02  0.59163129968E+02 -0.20842444896E+02  0.70241362530E+02  0.00000000000E+00 0. -1.
          1    1    6    6  503    0 -0.55690455161E+02 -0.10303825849E+03  0.65782856669E+02  0.13433426123E+03  0.00000000000E+00 0. -1.
         -1    1    6    6    0  503 -0.17769768072E+03 -0.13285823049E+03  0.22007384597E+03  0.31250643645E+03  0.00000000000E+00 0.  1.
<mgrwt>
<rscale>  0 0.10468858E+04</rscale>
<asrwt>0</asrwt>
<pdfrwt beam="1">  1        2 0.87926096E-01 0.10468858E+04</pdfrwt>
<pdfrwt beam="2">  1       -1 0.73755457E-01 0.10468858E+04</pdfrwt>
<totfact> 0.11088826E+02</totfact>
</mgrwt>
</event>
<event>
12    6  0.1542110E-007  0.2285149E+04  0.7818608E-02  0.8483800E-01
          2   -1    0    0  501    0  0.00000000000E+00  0.00000000000E+00  0.10870648850E+04  0.10870648850E+04  0.00000000000E+00 0. -1.
         -1   -1    0    0    0  501 -0.00000000000E+00 -0.00000000000E+00 -0.12009190417E+04  0.12009190417E+04  0.00000000000E+00 0.  1.
         24    2    1    2    0    0  0.61623755920E+03 -0.73939861555E+03 -0.13458596627E+03  0.97482952681E+03  0.75631884670E+02 0.  0.
        254    2    1    2    0    0 -0.61623755920E+03  0.73939861555E+03  0.20731809539E+02  0.13131543999E+04  0.89302050824E+03 0.  0.
         23    2    4    4    0    0 -0.59247103826E+03  0.28259312508E+03  0.34301629838E+03  0.74624674847E+03  0.91341245497E+02 0.  0.
         23    2    4    4    0    0 -0.23766520937E+02  0.45680549047E+03 -0.32228448884E+03  0.56690765147E+03  0.90999395116E+02 0.  0.
          2    1    3    3  502    0  0.92534213941E+02 -0.79874299161E+02 -0.32618217127E+02  0.12651653056E+03  0.00000000000E+00 0. -1.
         -3    1    3    3    0  502  0.52370334526E+03 -0.65952431639E+03 -0.10196774914E+03  0.84831299625E+03  0.00000000000E+00 0.  1.
         11    1    5    5    0    0 -0.41673061888E+02 -0.20064904946E+01  0.32297357876E+02  0.52761628263E+02  0.00000000000E+00 0.  1.
        -11    1    5    5    0    0 -0.55079797638E+03  0.28459961558E+03  0.31071894051E+03  0.69348512021E+03  0.00000000000E+00 0. -1.
          3    1    6    6  503    0 -0.21399154503E+02  0.44613553368E+03 -0.28928961428E+03  0.53214971498E+03  0.00000000000E+00 0. -1.
         -3    1    6    6    0  503 -0.23673664340E+01  0.10669956786E+02 -0.32994874561E+02  0.34757936489E+02  0.00000000000E+00 0.  1.
<mgrwt>
<rscale>  0 0.22851494E+04</rscale>
<asrwt>0</asrwt>
<pdfrwt beam="1">  1        2 0.16724075E+00 0.22851494E+04</pdfrwt>
<pdfrwt beam="2">  1       -1 0.18475677E+00 0.22851494E+04</pdfrwt>
<totfact> 0.44197523E+00</totfact>
</mgrwt>
</event>
<event>
12    6  0.1542110E-007  0.1876484E+04  0.7818608E-02  0.8666651E-01
         -1   -1    0    0    0  501 -0.00000000000E+00  0.00000000000E+00  0.67415868391E+03  0.67415868391E+03  0.00000000000E+00 0.  1.
          2   -1    0    0  501    0  0.00000000000E+00 -0.00000000000E+00 -0.13057726359E+04  0.13057726359E+04  0.00000000000E+00 0. -1.
         24    2    1    2    0    0  0.46625699387E+03  0.28927638202E+03 -0.71829439807E+03  0.90734226028E+03  0.79036228702E+02 0.  0.
        254    2    1    2    0    0 -0.46625699387E+03 -0.28927638202E+03  0.86680446052E+02  0.10725890596E+04  0.91752786412E+03 0.  0.
         23    2    4    4    0    0 -0.73465175899E+03 -0.16897914824E+03  0.88717296969E+02  0.76467779153E+03  0.92704943498E+02 0.  0.
         23    2    4    4    0    0  0.26839476512E+03 -0.12029723378E+03 -0.20368509170E+01  0.30791126803E+03  0.91093500445E+02 0.  0.
          4    1    3    3  502    0  0.25675908590E+02  0.18156146143E+02 -0.78534521070E+02  0.84596506573E+02  0.00000000000E+00 0. -1.
         -3    1    3    3    0  502  0.44058108528E+03  0.27112023588E+03 -0.63975987700E+03  0.82274575370E+03  0.00000000000E+00 0.  1.
         11    1    5    5    0    0 -0.69333009974E+03 -0.17871193465E+03  0.93014269302E+02  0.72200847438E+03  0.00000000000E+00 0. -1.
        -11    1    5    5    0    0 -0.41321659253E+02  0.97327864022E+01 -0.42969723335E+01  0.42669317147E+02  0.00000000000E+00 0.  1.
          2    1    6    6  503    0  0.19201852106E+03 -0.10669376398E+03  0.34150284203E+02  0.22230815013E+03  0.00000000000E+00 0. -1.
         -2    1    6    6    0  503  0.76376244060E+02 -0.13603469798E+02 -0.36187135120E+02  0.85603117907E+02  0.00000000000E+00 0.  1.
<mgrwt>
<rscale>  0 0.18764839E+04</rscale>
<asrwt>0</asrwt>
<pdfrwt beam="1">  1        2 0.20088810E+00 0.18764839E+04</pdfrwt>
<pdfrwt beam="2">  1       -1 0.10371672E+00 0.18764839E+04</pdfrwt>
<totfact> 0.15372715E+01</totfact>
</mgrwt>
</event>
<event>
12    6  0.1542110E-007  0.2067893E+04  0.7818608E-02  0.8575520E-01
          2   -1    0    0  501    0  0.00000000000E+00  0.00000000000E+00  0.24406566903E+04  0.24406566903E+04  0.00000000000E+00 0. -1.
         -1   -1    0    0    0  501 -0.00000000000E+00 -0.00000000000E+00 -0.43801562015E+03  0.43801562015E+03  0.00000000000E+00 0.  1.
         24    2    1    2    0    0 -0.57172265125E+03  0.29713425551E+03  0.15549721589E+04  0.16849622757E+04  0.77484836722E+02 0.  0.
        254    2    1    2    0    0  0.57172265125E+03 -0.29713425551E+03  0.44766891124E+03  0.11937100347E+04  0.89965584372E+03 0.  0.
         23    2    4    4    0    0 -0.10291532496E+03  0.15631758014E+03  0.29519045259E+03  0.36155924913E+03  0.92525333613E+02 0.  0.
         23    2    4    4    0    0  0.67463797621E+03 -0.45345183565E+03  0.15247845866E+03  0.83215078559E+03  0.92034142577E+02 0.  0.
          2    1    3    3  502    0 -0.53550360005E+03  0.29686350155E+03  0.14524754726E+04  0.15762541174E+04  0.00000000000E+00 0. -1.
         -1    1    3    3    0  502 -0.36219051202E+02  0.27075396104E+00  0.10249668628E+03  0.10870815828E+03  0.00000000000E+00 0.  1.
         11    1    5    5    0    0 -0.11045618440E+03  0.16417079480E+03  0.28085447078E+03  0.34355764042E+03  0.00000000000E+00 0.  1.
        -11    1    5    5    0    0  0.75408594443E+01 -0.78532146560E+01  0.14335981808E+02  0.18001608706E+02  0.00000000000E+00 0. -1.
          2    1    6    6  503    0  0.40847169410E+03 -0.22915242942E+03  0.61457865255E+02  0.47237382442E+03  0.00000000000E+00 0.  1.
         -2    1    6    6    0  503  0.26616628211E+03 -0.22429940623E+03  0.91020593400E+02  0.35977696117E+03  0.00000000000E+00 0. -1.
<mgrwt>
<rscale>  0 0.20678934E+04</rscale>
<asrwt>0</asrwt>
<pdfrwt beam="1">  1        2 0.37548564E+00 0.20678934E+04</pdfrwt>
<pdfrwt beam="2">  1       -1 0.67387020E-01 0.20678934E+04</pdfrwt>
<totfact> 0.88389801E+00</totfact>
</mgrwt>
</event>
<event>
12    6  0.1542110E-007  0.1809401E+04  0.7818608E-02  0.8701316E-01
         -1   -1    0    0    0  501 -0.00000000000E+00  0.00000000000E+00  0.50481413086E+03  0.50481413086E+03  0.00000000000E+00 0.  1.
          2   -1    0    0  501    0  0.00000000000E+00 -0.00000000000E+00 -0.16213553494E+04  0.16213553494E+04  0.00000000000E+00 0. -1.
         24    2    1    2    0    0 -0.41194582148E+03  0.63368149513E+02 -0.10571186965E+04  0.11392397917E+04  0.81562750304E+02 0.  0.
        254    2    1    2    0    0  0.41194582148E+03 -0.63368149513E+02 -0.59422521946E+02  0.98692968850E+03  0.89262774533E+03 0.  0.
         23    2    4    4    0    0  0.57822883209E+03  0.23333667815E+03 -0.73131341557E+02  0.63433772111E+03  0.90783058285E+02 0.  0.
         23    2    4    4    0    0 -0.16628301061E+03 -0.29670482766E+03  0.13708819611E+02  0.35259196739E+03  0.91920451268E+02 0.  0.
          2    1    3    3  502    0 -0.25600933352E+03  0.68096769718E+02 -0.73615896599E+03  0.78237329460E+03  0.00000000000E+00 0. -1.
         -1    1    3    3    0  502 -0.15593648796E+03 -0.47286202048E+01 -0.32095973055E+03  0.35686649711E+03  0.00000000000E+00 0.  1.
         11    1    5    5    0    0  0.35482554058E+03  0.13349153737E+03 -0.88004102349E+02  0.38918617246E+03  0.00000000000E+00 0. -1.
        -11    1    5    5    0    0  0.22340329151E+03  0.99845140777E+02  0.14872760792E+02  0.24515154865E+03  0.00000000000E+00 0.  1.
          4    1    6    6  503    0 -0.11589476179E+03 -0.23426949006E+03  0.47295515321E+02  0.26561373374E+03  0.00000000000E+00 0. -1.
         -4    1    6    6    0  503 -0.50388248825E+02 -0.62435337604E+02 -0.33586695710E+02  0.86978233657E+02  0.00000000000E+00 0.  1.
<mgrwt>
<rscale>  0 0.18094011E+04</rscale>
<asrwt>0</asrwt>
<pdfrwt beam="1">  1        2 0.24943928E+00 0.18094011E+04</pdfrwt>
<pdfrwt beam="2">  1       -1 0.77663714E-01 0.18094011E+04</pdfrwt>
<totfact> 0.19369085E+01</totfact>
</mgrwt>
</event>
<event>
12    6  0.1542110E-007  0.1814759E+04  0.7818608E-02  0.8698490E-01
          2   -1    0    0  501    0  0.00000000000E+00  0.00000000000E+00  0.24091113092E+04  0.24091113092E+04  0.00000000000E+00 0. -1.
         -1   -1    0    0    0  501 -0.00000000000E+00 -0.00000000000E+00 -0.34175978072E+03  0.34175978072E+03  0.00000000000E+00 0.  1.
         24    2    1    2    0    0 -0.60892526563E+03 -0.24010270998E+03  0.10381614681E+04  0.12298280696E+04  0.79111037790E+02 0.  0.
        254    2    1    2    0    0  0.60892526563E+03  0.24010270998E+03  0.10291900604E+04  0.15210430204E+04  0.90879062441E+03 0.  0.
         23    2    4    4    0    0  0.90828772875E+02  0.49728906375E+03  0.62842768783E+03  0.81150903198E+03  0.89884766543E+02 0.  0.
         23    2    4    4    0    0  0.51809649275E+03 -0.25718635377E+03  0.40076237255E+03  0.70953398839E+03  0.90880168723E+02 0.  0.
          4    1    3    3  502    0 -0.29149822354E+03 -0.88521047191E+02  0.53971773996E+03  0.61975997688E+03  0.00000000000E+00 0. -1.
         -3    1    3    3    0  502 -0.31742704209E+03 -0.15158166279E+03  0.49844372817E+03  0.61006809267E+03  0.00000000000E+00 0.  1.
         11    1    5    5    0    0  0.24612635466E+02  0.35527637138E+03  0.41766423029E+03  0.54888112661E+03  0.00000000000E+00 0. -1.
        -11    1    5    5    0    0  0.66216137409E+02  0.14201269237E+03  0.21076345754E+03  0.26262790538E+03  0.00000000000E+00 0.  1.
          2    1    6    6  503    0  0.50697694987E+03 -0.24698393384E+03  0.36779123232E+03  0.67327340795E+03  0.00000000000E+00 0. -1.
         -2    1    6    6    0  503  0.11119542877E+02 -0.10202419930E+02  0.32971140228E+02  0.36260580444E+02  0.00000000000E+00 0.  1.
<mgrwt>
<rscale>  0 0.18147588E+04</rscale>
<asrwt>0</asrwt>
<pdfrwt beam="1">  1        2 0.37063250E+00 0.18147588E+04</pdfrwt>
<pdfrwt beam="2">  1       -1 0.52578429E-01 0.18147588E+04</pdfrwt>
<totfact> 0.15385076E+01</totfact>
</mgrwt>
</event>
<event>
12    6  0.1542110E-007  0.2695963E+04  0.7818608E-02  0.8336316E-01
          2   -1    0    0  501    0  0.00000000000E+00  0.00000000000E+00  0.25641428589E+04  0.25641428589E+04  0.00000000000E+00 0. -1.
         -1   -1    0    0    0  501 -0.00000000000E+00 -0.00000000000E+00 -0.70864016384E+03  0.70864016384E+03  0.00000000000E+00 0.  1.
         24    2    1    2    0    0  0.70533467250E+03  0.57565524720E+03 -0.11043343025E+03  0.92070407371E+03  0.81390939176E+02 0.  0.
        254    2    1    2    0    0 -0.70533467250E+03 -0.57565524720E+03  0.19659361253E+04  0.23520789491E+04  0.91569349120E+03 0.  0.
         23    2    4    4    0    0 -0.16815298172E+03 -0.18940800997E+01  0.13112943556E+04  0.13251237435E+04  0.90449077822E+02 0.  0.
         23    2    4    4    0    0 -0.53718169078E+03 -0.57376116710E+03  0.65464176973E+03  0.10269552056E+04  0.91187180102E+02 0.  0.
          4    1    3    3  502    0  0.48703242619E+02  0.17024522823E+02 -0.34774934488E+00  0.51594196849E+02  0.00000000000E+00 0. -1.
         -3    1    3    3    0  502  0.65663142988E+03  0.55863072437E+03 -0.11008568091E+03  0.86910987686E+03  0.00000000000E+00 0.  1.
         11    1    5    5    0    0 -0.14133132896E+03 -0.37428815879E+02  0.10313435724E+04  0.10416549453E+04  0.00000000000E+00 0.  1.
        -11    1    5    5    0    0 -0.26821652765E+02  0.35534735779E+02  0.27995078319E+03  0.28346879813E+03  0.00000000000E+00 0. -1.
          4    1    6    6  503    0 -0.12003925957E+03 -0.16713691031E+03  0.21091387000E+03  0.29466732290E+03  0.00000000000E+00 0. -1.
         -4    1    6    6    0  503 -0.41714243121E+03 -0.40662425679E+03  0.44372789973E+03  0.73228788268E+03  0.00000000000E+00 0.  1.
<mgrwt>
<rscale>  0 0.26959634E+04</rscale>
<asrwt>0</asrwt>
<pdfrwt beam="1">  1        2 0.39448351E+00 0.26959634E+04</pdfrwt>
<pdfrwt beam="2">  1       -1 0.10902157E+00 0.26959634E+04</pdfrwt>
<totfact> 0.24835603E+00</totfact>
</mgrwt>
</event>
<event>
12    6  0.1542110E-007  0.1069730E+04  0.7818608E-02  0.9235208E-01
         -3   -1    0    0    0  501 -0.00000000000E+00  0.00000000000E+00  0.23152454668E+03  0.23152454668E+03  0.00000000000E+00 0.  1.
          2   -1    0    0  501    0  0.00000000000E+00 -0.00000000000E+00 -0.12356371313E+04  0.12356371313E+04  0.00000000000E+00 0. -1.
         24    2    1    2    0    0  0.14121767542E+03 -0.28513359715E+02 -0.27148708645E+02  0.17625892673E+03  0.97850464156E+02 0.  0.
        254    2    1    2    0    0 -0.14121767542E+03  0.28513359715E+02 -0.97696387593E+03  0.12909027512E+04  0.83139404297E+03 0.  0.
         23    2    4    4    0    0 -0.30940959350E+03 -0.30877907186E+03 -0.62788526944E+03  0.77045503285E+03  0.91006781628E+02 0.  0.
         23    2    4    4    0    0  0.16819191808E+03  0.33729243157E+03 -0.34907860650E+03  0.52044771837E+03  0.83398131500E+02 0.  0.
          2    1    3    3  502    0 -0.13758975798E+02 -0.84919761990E+00  0.65562859048E+01  0.15264843153E+02  0.00000000000E+00 0. -1.
         -1    1    3    3    0  502  0.15497665122E+03 -0.27664162095E+02 -0.33704994549E+02  0.16099408357E+03  0.00000000000E+00 0.  1.
         11    1    5    5    0    0 -0.22960515657E+03 -0.25482020147E+03 -0.54187478681E+03  0.64131127199E+03  0.00000000000E+00 0. -1.
        -11    1    5    5    0    0 -0.79804436934E+02 -0.53958870388E+02 -0.86010482623E+02  0.12914376086E+03  0.00000000000E+00 0.  1.
          3    1    6    6  503    0  0.10695143829E+03  0.28746480275E+03 -0.26846434324E+03  0.40761222574E+03  0.00000000000E+00 0. -1.
         -3    1    6    6    0  503  0.61240479783E+02  0.49827628818E+02 -0.80614263252E+02  0.11283549263E+03  0.00000000000E+00 0.  1.
<mgrwt>
<rscale>  0 0.10697295E+04</rscale>
<asrwt>0</asrwt>
<pdfrwt beam="1">  1        2 0.19009802E+00 0.10697295E+04</pdfrwt>
<pdfrwt beam="2">  1       -3 0.35619162E-01 0.10697295E+04</pdfrwt>
<totfact> 0.89688676E+01</totfact>
</mgrwt>
</event>
<event>
12    6  0.1542110E-007  0.1103980E+04  0.7818608E-02  0.9201322E-01
          2   -1    0    0  501    0  0.00000000000E+00  0.00000000000E+00  0.73172901929E+03  0.73172901929E+03  0.00000000000E+00 0. -1.
         -1   -1    0    0    0  501 -0.00000000000E+00 -0.00000000000E+00 -0.41640113562E+03  0.41640113562E+03  0.00000000000E+00 0.  1.
         24    2    1    2    0    0 -0.12894993218E+03 -0.67843363896E+02 -0.46516075049E+02  0.17288961099E+03  0.80599412629E+02 0.  0.
        254    2    1    2    0    0  0.12894993218E+03  0.67843363896E+02  0.36184395872E+03  0.97524054391E+03  0.89383010746E+03 0.  0.
         23    2    4    4    0    0 -0.20388706671E+03  0.17456069205E+03 -0.17009546358E+03  0.33142451983E+03  0.94172046988E+02 0.  0.
         23    2    4    4    0    0  0.33283699890E+03 -0.10671732815E+03  0.53193942229E+03  0.64381602408E+03  0.96801177230E+02 0.  0.
          4    1    3    3  502    0 -0.13133415269E+03 -0.48516918931E+02 -0.56532403513E+02  0.15099160153E+03  0.00000000000E+00 0. -1.
         -3    1    3    3    0  502  0.23842205100E+01 -0.19326444965E+02  0.10016328464E+02  0.21898009460E+02  0.00000000000E+00 0.  1.
         11    1    5    5    0    0 -0.32460622363E+02  0.82092492930E+02 -0.68555059490E+02  0.11177059354E+03  0.00000000000E+00 0.  1.
        -11    1    5    5    0    0 -0.17142644435E+03  0.92468199121E+02 -0.10154040409E+03  0.21965392629E+03  0.00000000000E+00 0. -1.
          4    1    6    6  503    0  0.33403252210E+03 -0.93034000519E+02  0.49466559997E+03  0.60409196888E+03  0.00000000000E+00 0. -1.
         -4    1    6    6    0  503 -0.11955232067E+01 -0.13683327636E+02  0.37273822324E+02  0.39724055200E+02  0.00000000000E+00 0.  1.
<mgrwt>
<rscale>  0 0.11039797E+04</rscale>
<asrwt>0</asrwt>
<pdfrwt beam="1">  1        2 0.11257370E+00 0.11039797E+04</pdfrwt>
<pdfrwt beam="2">  1       -1 0.64061713E-01 0.11039797E+04</pdfrwt>
<totfact> 0.10846545E+02</totfact>
</mgrwt>
</event>
<event>
12    6  0.1542110E-007  0.1640688E+04  0.7818608E-02  0.8795934E-01
         -1   -1    0    0    0  501 -0.00000000000E+00  0.00000000000E+00  0.10385269166E+04  0.10385269166E+04  0.00000000000E+00 0.  1.
          2   -1    0    0  501    0  0.00000000000E+00 -0.00000000000E+00 -0.64799906968E+03  0.64799906968E+03  0.00000000000E+00 0. -1.
         24    2    1    2    0    0 -0.91424039732E+02  0.40398083344E+03  0.53694210530E+03  0.68261794166E+03  0.78112489430E+02 0.  0.
        254    2    1    2    0    0  0.91424039732E+02 -0.40398083344E+03 -0.14641425836E+03  0.10039080446E+04  0.90268231300E+03 0.  0.
         23    2    4    4    0    0 -0.32862180101E+03 -0.44157021623E+03 -0.12951899049E+03  0.57229766305E+03  0.88164064570E+02 0.  0.
         23    2    4    4    0    0  0.42004584074E+03  0.37589382787E+02 -0.16895267871E+02  0.43161038158E+03  0.90280681141E+02 0.  0.
          2    1    3    3  502    0 -0.75407506677E+02  0.24898444660E+03  0.28069508096E+03  0.38271304549E+03  0.00000000000E+00 0. -1.
         -1    1    3    3    0  502 -0.16016533055E+02  0.15499638684E+03  0.25624702434E+03  0.29990489617E+03  0.00000000000E+00 0.  1.
         11    1    5    5    0    0 -0.31964209763E+03 -0.44478271535E+03 -0.12532935010E+03  0.56188093084E+03  0.00000000000E+00 0. -1.
        -11    1    5    5    0    0 -0.89797033771E+01  0.32124991193E+01 -0.41896403885E+01  0.10416732209E+02  0.00000000000E+00 0.  1.
          3    1    6    6  503    0  0.41081931929E+03  0.50229158509E+02 -0.23676478058E+02  0.41455525215E+03  0.00000000000E+00 0. -1.
         -3    1    6    6    0  503  0.92265214477E+01 -0.12639775722E+02  0.67812101866E+01  0.17055129431E+02  0.00000000000E+00 0.  1.
<mgrwt>
<rscale>  0 0.16406882E+04</rscale>
<asrwt>0</asrwt>
<pdfrwt beam="1">  1        2 0.99692164E-01 0.16406882E+04</pdfrwt>
<pdfrwt beam="2">  1       -1 0.15977337E+00 0.16406882E+04</pdfrwt>
<totfact> 0.14460021E+01</totfact>
</mgrwt>
</event>
<event>
12    6  0.1542110E-007  0.1836548E+04  0.7818608E-02  0.8687102E-01
          2   -1    0    0  501    0  0.00000000000E+00  0.00000000000E+00  0.81054162988E+03  0.81054162988E+03  0.00000000000E+00 0. -1.
         -1   -1    0    0    0  501 -0.00000000000E+00 -0.00000000000E+00 -0.10403253179E+04  0.10403253179E+04  0.00000000000E+00 0.  1.
         24    2    1    2    0    0  0.19135546351E+03  0.43585071967E+03  0.42311290284E+03  0.64199447013E+03  0.80929647709E+02 0.  0.
        254    2    1    2    0    0 -0.19135546351E+03 -0.43585071967E+03 -0.65289659086E+03  0.12088724776E+04  0.89917514734E+03 0.  0.
         23    2    4    4    0    0  0.21974378062E+03  0.53600214083E+02  0.55505584459E+02  0.25031273567E+03  0.91734855208E+02 0.  0.
         23    2    4    4    0    0 -0.41109924413E+03 -0.48945093376E+03 -0.70840217532E+03  0.95855974198E+03  0.91860393346E+02 0.  0.
          2    1    3    3  502    0  0.19693628081E+03  0.40507590263E+03  0.38377304533E+03  0.59173654266E+03  0.00000000000E+00 0. -1.
         -1    1    3    3    0  502 -0.55808172988E+01  0.30774817042E+02  0.39339857502E+02  0.50257927474E+02  0.00000000000E+00 0.  1.
         11    1    5    5    0    0  0.89225905041E+02  0.59529230756E+02 -0.26678444991E+01  0.10729449585E+03  0.00000000000E+00 0. -1.
        -11    1    5    5    0    0  0.13051787558E+03 -0.59290166736E+01  0.58173428958E+02  0.14301823982E+03  0.00000000000E+00 0.  1.
          1    1    6    6  503    0 -0.31393559441E+03 -0.39973436737E+03 -0.50927247109E+03  0.71951481688E+03  0.00000000000E+00 0. -1.
         -1    1    6    6    0  503 -0.97163649720E+02 -0.89716566392E+02 -0.19912970423E+03  0.23904492511E+03  0.00000000000E+00 0.  1.
<mgrwt>
<rscale>  0 0.18365478E+04</rscale>
<asrwt>0</asrwt>
<pdfrwt beam="1">  1        2 0.12469871E+00 0.18365478E+04</pdfrwt>
<pdfrwt beam="2">  1       -1 0.16005005E+00 0.18365478E+04</pdfrwt>
<totfact> 0.10619095E+01</totfact>
</mgrwt>
</event>
<event>
12    6  0.1542110E-007  0.3303937E+04  0.7818608E-02  0.8161894E-01
         -1   -1    0    0    0  501 -0.00000000000E+00  0.00000000000E+00  0.20085785389E+04  0.20085785389E+04  0.00000000000E+00 0.  1.
          2   -1    0    0  501    0  0.00000000000E+00 -0.00000000000E+00 -0.13586725986E+04  0.13586725986E+04  0.00000000000E+00 0. -1.
         24    2    1    2    0    0  0.13891544799E+04 -0.40004128104E+03 -0.19236100014E+03  0.14601074071E+04  0.71607892157E+02 0.  0.
        254    2    1    2    0    0 -0.13891544799E+04  0.40004128104E+03  0.84226694046E+03  0.19071437305E+04  0.91542362545E+03 0.  0.
         23    2    4    4    0    0 -0.20329909753E+03 -0.26679373034E+03  0.16959086251E+03  0.38671877416E+03  0.90999626551E+02 0.  0.
         23    2    4    4    0    0 -0.11858553824E+04  0.66683501138E+03  0.67267607794E+03  0.15204249563E+04  0.90978137897E+02 0.  0.
          4    1    3    3  502    0  0.56050095819E+03 -0.17177965852E+03 -0.44026139107E+02  0.58788423703E+03  0.00000000000E+00 0. -1.
         -3    1    3    3    0  502  0.82865352172E+03 -0.22826162252E+03 -0.14833486103E+03  0.87222317005E+03  0.00000000000E+00 0.  1.
         11    1    5    5    0    0 -0.10254590274E+03 -0.10674368620E+03  0.28433787960E+02  0.15072609930E+03  0.00000000000E+00 0. -1.
        -11    1    5    5    0    0 -0.10075319479E+03 -0.16005004414E+03  0.14115707455E+03  0.23599267486E+03  0.00000000000E+00 0.  1.
          4    1    6    6  503    0 -0.10054891903E+04  0.53534654699E+03  0.53851071237E+03  0.12599992954E+04  0.00000000000E+00 0.  1.
         -4    1    6    6    0  503 -0.18036619211E+03  0.13148846439E+03  0.13416536557E+03  0.26042566088E+03  0.00000000000E+00 0. -1.
<mgrwt>
<rscale>  0 0.33039374E+04</rscale>
<asrwt>0</asrwt>
<pdfrwt beam="1">  1        2 0.20902655E+00 0.33039374E+04</pdfrwt>
<pdfrwt beam="2">  1       -1 0.30901208E+00 0.33039374E+04</pdfrwt>
<totfact> 0.41936689E-01</totfact>
</mgrwt>
</event>
<event>
12    6  0.1542110E-007  0.1677516E+04  0.7818608E-02  0.8774293E-01
          2   -1    0    0  501    0  0.00000000000E+00  0.00000000000E+00  0.51065289336E+03  0.51065289336E+03  0.00000000000E+00 0. -1.
         -1   -1    0    0    0  501 -0.00000000000E+00 -0.00000000000E+00 -0.13776771320E+04  0.13776771320E+04  0.00000000000E+00 0.  1.
         24    2    1    2    0    0 -0.32449243779E+03 -0.29497591389E+03  0.13617953107E+03  0.46606250195E+03  0.79770038772E+02 0.  0.
        254    2    1    2    0    0  0.32449243779E+03  0.29497591389E+03 -0.10032037698E+04  0.14222675235E+04  0.90781108864E+03 0.  0.
         23    2    4    4    0    0 -0.95590185457E+02 -0.23007908423E+03 -0.53675662457E+03  0.59862625415E+03  0.90398283077E+02 0.  0.
         23    2    4    4    0    0  0.42008262325E+03  0.52505499812E+03 -0.46644714519E+03  0.82364126930E+03  0.93058260458E+02 0.  0.
          4    1    3    3  502    0 -0.24994044617E+03 -0.18119489671E+03  0.80145658565E+02  0.31894379412E+03  0.00000000000E+00 0. -1.
         -3    1    3    3    0  502 -0.74551991624E+02 -0.11378101717E+03  0.56033872502E+02  0.14711870782E+03  0.00000000000E+00 0.  1.
         11    1    5    5    0    0 -0.18735640877E+02 -0.15367531981E+03 -0.34988456349E+03  0.38260467317E+03  0.00000000000E+00 0.  1.
        -11    1    5    5    0    0 -0.76854544580E+02 -0.76403764417E+02 -0.18687206108E+03  0.21602158099E+03  0.00000000000E+00 0. -1.
          2    1    6    6  503    0  0.55012847411E+02  0.86539513216E+02 -0.11233295783E+03  0.15209929041E+03  0.00000000000E+00 0. -1.
         -2    1    6    6    0  503  0.36506977584E+03  0.43851548490E+03 -0.35411418736E+03  0.67154197889E+03  0.00000000000E+00 0.  1.
<mgrwt>
<rscale>  0 0.16775158E+04</rscale>
<asrwt>0</asrwt>
<pdfrwt beam="1">  1        2 0.78561983E-01 0.16775158E+04</pdfrwt>
<pdfrwt beam="2">  1       -1 0.21195033E+00 0.16775158E+04</pdfrwt>
<totfact> 0.81612867E+00</totfact>
</mgrwt>
</event>
<event>
12    6  0.1542110E-007  0.1133430E+04  0.7818608E-02  0.9173208E-01
         -1   -1    0    0    0  501 -0.00000000000E+00  0.00000000000E+00  0.29341688890E+03  0.29341688890E+03  0.00000000000E+00 0.  1.
          2   -1    0    0  501    0  0.00000000000E+00 -0.00000000000E+00 -0.10945711420E+04  0.10945711420E+04  0.00000000000E+00 0. -1.
         24    2    1    2    0    0  0.93897526849E+02 -0.10745816928E+03 -0.28563872928E+03  0.33369731025E+03  0.96955698676E+02 0.  0.
        254    2    1    2    0    0 -0.93897526849E+02  0.10745816928E+03 -0.51551552379E+03  0.10542907206E+04  0.90852004085E+03 0.  0.
         23    2    4    4    0    0  0.23033017234E+03 -0.26058776843E+03 -0.34217709684E+02  0.36093693131E+03  0.90258757928E+02 0.  0.
         23    2    4    4    0    0 -0.32422769919E+03  0.36804593771E+03 -0.48129781411E+03  0.69335378931E+03  0.92252252562E+02 0.  0.
          2    1    3    3  502    0  0.52365652199E+02  0.26534864579E+01 -0.11526727315E+03  0.12663232912E+03  0.00000000000E+00 0. -1.
         -1    1    3    3    0  502  0.41531874650E+02 -0.11011165574E+03 -0.17037145614E+03  0.20706498112E+03  0.00000000000E+00 0.  1.
         11    1    5    5    0    0  0.20162130101E+03 -0.26168772938E+03 -0.34974891462E+02  0.33219701949E+03  0.00000000000E+00 0.  1.
        -11    1    5    5    0    0  0.28708871327E+02  0.10999609468E+01  0.75718177799E+00  0.28739911816E+02  0.00000000000E+00 0. -1.
          1    1    6    6  503    0 -0.19510078560E+03  0.15478867238E+03 -0.25941285206E+03  0.35960934005E+03  0.00000000000E+00 0. -1.
         -1    1    6    6    0  503 -0.12912691359E+03  0.21325726533E+03 -0.22188496205E+03  0.33374444926E+03  0.00000000000E+00 0.  1.
<mgrwt>
<rscale>  0 0.11334296E+04</rscale>
<asrwt>0</asrwt>
<pdfrwt beam="1">  1        2 0.16839556E+00 0.11334296E+04</pdfrwt>
<pdfrwt beam="2">  1       -1 0.45141060E-01 0.11334296E+04</pdfrwt>
<totfact> 0.12070857E+02</totfact>
</mgrwt>
</event>
<event>
12    6  0.1542110E-007  0.1266341E+04  0.7818608E-02  0.9056691E-01
         -1   -1    0    0    0  501 -0.00000000000E+00  0.00000000000E+00  0.40055719714E+03  0.40055719714E+03  0.00000000000E+00 0.  1.
          2   -1    0    0  501    0  0.00000000000E+00 -0.00000000000E+00 -0.10008683124E+04  0.10008683124E+04  0.00000000000E+00 0. -1.
         24    2    1    2    0    0 -0.36619606805E+02  0.84127820205E+02  0.17532241659E+03  0.21344833950E+03  0.80023484941E+02 0.  0.
        254    2    1    2    0    0  0.36619606805E+02 -0.84127820205E+02 -0.77563353189E+03  0.11879771701E+04  0.89513345101E+03 0.  0.
         23    2    4    4    0    0 -0.11600873909E+03  0.35755992258E+03 -0.51611348616E+03  0.64557931381E+03  0.95354045810E+02 0.  0.
         23    2    4    4    0    0  0.15262834589E+03 -0.44168774278E+03 -0.25952004573E+03  0.54239785627E+03  0.91985358958E+02 0.  0.
          2    1    3    3  502    0 -0.38269269524E+02  0.64709657560E+01  0.31481100360E+02  0.49974694272E+02  0.00000000000E+00 0. -1.
         -1    1    3    3    0  502  0.16496627188E+01  0.77656854450E+02  0.14384131623E+03  0.16347364523E+03  0.00000000000E+00 0.  1.
         11    1    5    5    0    0  0.16487887513E+02  0.38612058930E+02 -0.46678567601E+02  0.62782403607E+02  0.00000000000E+00 0.  1.
        -11    1    5    5    0    0 -0.13249662660E+03  0.31894786365E+03 -0.46943491856E+03  0.58279691020E+03  0.00000000000E+00 0. -1.
          1    1    6    6  503    0  0.42543225510E+02 -0.13497679623E+03 -0.32382245744E+02  0.14518013431E+03  0.00000000000E+00 0.  1.
         -1    1    6    6    0  503  0.11008512038E+03 -0.30671094655E+03 -0.22713779999E+03  0.39721772197E+03  0.00000000000E+00 0. -1.
<mgrwt>
<rscale>  0 0.12663412E+04</rscale>
<asrwt>0</asrwt>
<pdfrwt beam="1">  1        2 0.15397974E+00 0.12663412E+04</pdfrwt>
<pdfrwt beam="2">  1       -1 0.61624184E-01 0.12663412E+04</pdfrwt>
<totfact> 0.75301702E+01</totfact>
</mgrwt>
</event>
<event>
12    6  0.1542110E-007  0.1944692E+04  0.7818608E-02  0.8632925E-01
          2   -1    0    0  501    0  0.00000000000E+00  0.00000000000E+00  0.13709289063E+04  0.13709289063E+04  0.00000000000E+00 0. -1.
         -1   -1    0    0    0  501 -0.00000000000E+00 -0.00000000000E+00 -0.68964678544E+03  0.68964678544E+03  0.00000000000E+00 0.  1.
         24    2    1    2    0    0  0.53548791835E+02  0.39362579490E+03  0.95410541011E+03  0.10367028825E+04  0.81406347907E+02 0.  0.
        254    2    1    2    0    0 -0.53548791835E+02 -0.39362579490E+03 -0.27282328926E+03  0.10238728092E+04  0.90336827639E+03 0.  0.
         23    2    4    4    0    0  0.38883592132E+03 -0.29049950596E+02 -0.16761181398E+03  0.43392116232E+03  0.90313795072E+02 0.  0.
         23    2    4    4    0    0 -0.44238471316E+03 -0.36457584431E+03 -0.10521147528E+03  0.58995164691E+03  0.91398634953E+02 0.  0.
          4    1    3    3  502    0  0.56961705927E+02  0.28058556515E+03  0.59673681369E+03  0.66186684471E+03  0.00000000000E+00 0. -1.
         -3    1    3    3    0  502 -0.34129140919E+01  0.11304022975E+03  0.35736859642E+03  0.37483603780E+03  0.00000000000E+00 0.  1.
         11    1    5    5    0    0  0.15873156257E+03 -0.55408070401E+02 -0.59730794633E+02  0.17841953663E+03  0.00000000000E+00 0.  1.
        -11    1    5    5    0    0  0.23010435875E+03  0.26358119805E+02 -0.10788101934E+03  0.25550162569E+03  0.00000000000E+00 0. -1.
          3    1    6    6  503    0 -0.32004288194E+03 -0.29163405405E+03 -0.11238651697E+03  0.44733499411E+03  0.00000000000E+00 0. -1.
         -3    1    6    6    0  503 -0.12234183122E+03 -0.72941790259E+02  0.71750416848E+01  0.14261665279E+03  0.00000000000E+00 0.  1.
<mgrwt>
<rscale>  0 0.19446920E+04</rscale>
<asrwt>0</asrwt>
<pdfrwt beam="1">  1        2 0.21091214E+00 0.19446920E+04</pdfrwt>
<pdfrwt beam="2">  1       -1 0.10609951E+00 0.19446920E+04</pdfrwt>
<totfact> 0.13290245E+01</totfact>
</mgrwt>
</event>
<event>
12    6  0.1542110E-007  0.1303088E+04  0.7818608E-02  0.9027120E-01
         -1   -1    0    0    0  501 -0.00000000000E+00  0.00000000000E+00  0.19316722373E+04  0.19316722373E+04  0.00000000000E+00 0.  1.
          2   -1    0    0  501    0  0.00000000000E+00 -0.00000000000E+00 -0.21976281287E+03  0.21976281287E+03  0.00000000000E+00 0. -1.
         24    2    1    2    0    0 -0.34652859464E+03  0.37532841802E+02  0.53474981927E+03  0.64331877486E+03  0.80068069532E+02 0.  0.
        254    2    1    2    0    0  0.34652859464E+03 -0.37532841802E+02  0.11771596052E+04  0.15081162753E+04  0.87591048786E+03 0.  0.
         23    2    4    4    0    0  0.56897561726E+03 -0.15734734411E+03  0.10602909058E+04  0.12170294546E+04  0.91937199016E+02 0.  0.
         23    2    4    4    0    0 -0.22244702263E+03  0.11981450230E+03  0.11686869933E+03  0.29108682075E+03  0.85059105869E+02 0.  0.
          4    1    3    3  502    0 -0.96302932532E+02  0.22452865427E+02  0.21796546833E+03  0.23934772061E+03  0.00000000000E+00 0. -1.
         -3    1    3    3    0  502 -0.25022566210E+03  0.15079976375E+02  0.31678435094E+03  0.40397105424E+03  0.00000000000E+00 0.  1.
         11    1    5    5    0    0  0.43732234525E+03 -0.90114955315E+02  0.84751053878E+03  0.95793822983E+03  0.00000000000E+00 0.  1.
        -11    1    5    5    0    0  0.13165327202E+03 -0.67232388791E+02  0.21278036705E+03  0.25909122474E+03  0.00000000000E+00 0. -1.
          1    1    6    6  503    0 -0.45279613822E+02  0.11151073627E+02  0.59271810018E+02  0.75417089136E+02  0.00000000000E+00 0. -1.
         -1    1    6    6    0  503 -0.17716740881E+03  0.10866342868E+03  0.57596889311E+02  0.21566973161E+03  0.00000000000E+00 0.  1.
<mgrwt>
<rscale>  0 0.13030882E+04</rscale>
<asrwt>0</asrwt>
<pdfrwt beam="1">  1        2 0.33809665E-01 0.13030882E+04</pdfrwt>
<pdfrwt beam="2">  1       -1 0.29718033E+00 0.13030882E+04</pdfrwt>
<totfact> 0.60485421E+00</totfact>
</mgrwt>
</event>
<event>
12    6  0.1542110E-007  0.1790466E+04  0.7818608E-02  0.8711386E-01
         -1   -1    0    0    0  501 -0.00000000000E+00  0.00000000000E+00  0.33972451982E+03  0.33972451982E+03  0.00000000000E+00 0.  1.
          2   -1    0    0  501    0  0.00000000000E+00 -0.00000000000E+00 -0.23590932341E+04  0.23590932341E+04  0.00000000000E+00 0. -1.
         24    2    1    2    0    0 -0.54323164158E+03 -0.34564281863E+03 -0.51786637550E+03  0.83021218085E+03  0.80604639310E+02 0.  0.
        254    2    1    2    0    0  0.54323164158E+03  0.34564281863E+03 -0.15015023388E+04  0.18686055731E+04  0.90697736459E+03 0.  0.
         23    2    4    4    0    0  0.67860394584E+03  0.49908447877E+03 -0.94556489929E+03  0.12696514218E+04  0.91285934511E+02 0.  0.
         23    2    4    4    0    0 -0.13537230426E+03 -0.15344166014E+03 -0.55593743951E+03  0.59895415130E+03  0.88372138571E+02 0.  0.
          4    1    3    3  502    0 -0.29892301740E+03 -0.17947296299E+03 -0.33007453745E+03  0.48011947997E+03  0.00000000000E+00 0. -1.
         -3    1    3    3    0  502 -0.24430862418E+03 -0.16616985564E+03 -0.18779183805E+03  0.35009270088E+03  0.00000000000E+00 0.  1.
         11    1    5    5    0    0  0.51681520242E+03  0.33375460608E+03 -0.66274039587E+03  0.90427591080E+03  0.00000000000E+00 0. -1.
        -11    1    5    5    0    0  0.16178874341E+03  0.16532987269E+03 -0.28282450342E+03  0.36537551100E+03  0.00000000000E+00 0.  1.
          1    1    6    6  503    0 -0.10379134057E+03 -0.15536117637E+03 -0.42515650227E+03  0.46440046180E+03  0.00000000000E+00 0. -1.
         -1    1    6    6    0  503 -0.31580963686E+02  0.19195162282E+01 -0.13078093725E+03  0.13455368950E+03  0.00000000000E+00 0.  1.
<mgrwt>
<rscale>  0 0.17904657E+04</rscale>
<asrwt>0</asrwt>
<pdfrwt beam="1">  1        2 0.36293742E+00 0.17904657E+04</pdfrwt>
<pdfrwt beam="2">  1       -1 0.52265310E-01 0.17904657E+04</pdfrwt>
<totfact> 0.16655379E+01</totfact>
</mgrwt>
</event>
<event>
12    6  0.1542110E-007  0.1350809E+04  0.7818608E-02  0.8990216E-01
         -1   -1    0    0    0  501 -0.00000000000E+00  0.00000000000E+00  0.29617251866E+03  0.29617251866E+03  0.00000000000E+00 0.  1.
          2   -1    0    0  501    0  0.00000000000E+00 -0.00000000000E+00 -0.15402205371E+04  0.15402205371E+04  0.00000000000E+00 0. -1.
         24    2    1    2    0    0 -0.61213790297E+02 -0.36508441942E+03 -0.40013650282E+03  0.55102204640E+03  0.80512814496E+02 0.  0.
        254    2    1    2    0    0  0.61213790297E+02  0.36508441942E+03 -0.84391151560E+03  0.12853710094E+04  0.89607936260E+03 0.  0.
         23    2    4    4    0    0  0.60640530855E+02 -0.11346059449E+03  0.12519730904E+03  0.20025182367E+03  0.88745964449E+02 0.  0.
         23    2    4    4    0    0  0.57325944182E+00  0.47854501391E+03 -0.96910882465E+03  0.10851191857E+04  0.96467995577E+02 0.  0.
          2    1    3    3  502    0 -0.27373902361E+02 -0.25260282529E+03 -0.32100588587E+03  0.40939259475E+03  0.00000000000E+00 0. -1.
         -1    1    3    3    0  502 -0.33839887936E+02 -0.11248159414E+03 -0.79130616954E+02  0.14162945165E+03  0.00000000000E+00 0.  1.
         11    1    5    5    0    0  0.69208482318E+02 -0.11836020828E+03  0.13029360452E+03  0.18914379796E+03  0.00000000000E+00 0.  1.
        -11    1    5    5    0    0 -0.85679514627E+01  0.48996137896E+01 -0.50962954740E+01  0.11108025707E+02  0.00000000000E+00 0. -1.
          1    1    6    6  503    0 -0.24616634362E+02  0.31004796554E+02 -0.68217065023E+02  0.78872327575E+02  0.00000000000E+00 0. -1.
         -1    1    6    6    0  503  0.25189893804E+02  0.44754021736E+03 -0.90089175962E+03  0.10062468581E+04  0.00000000000E+00 0.  1.
<mgrwt>
<rscale>  0 0.13508086E+04</rscale>
<asrwt>0</asrwt>
<pdfrwt beam="1">  1        2 0.23695700E+00 0.13508086E+04</pdfrwt>
<pdfrwt beam="2">  1       -1 0.45565003E-01 0.13508086E+04</pdfrwt>
<totfact> 0.64135967E+01</totfact>
</mgrwt>
</event>
<event>
12    6  0.1542110E-007  0.2536777E+04  0.7818608E-02  0.8390000E-01
         -1   -1    0    0    0  501 -0.00000000000E+00  0.00000000000E+00  0.49966809178E+03  0.49966809178E+03  0.00000000000E+00 0.  1.
          2   -1    0    0  501    0  0.00000000000E+00 -0.00000000000E+00 -0.32197557759E+04  0.32197557759E+04  0.00000000000E+00 0. -1.
         24    2    1    2    0    0  0.55173851600E+03 -0.84995285597E+02 -0.25938233466E+04  0.26544255730E+04  0.80099816388E+02 0.  0.
        254    2    1    2    0    0 -0.55173851600E+03  0.84995285597E+02 -0.12626433746E+03  0.10649982946E+04  0.89813089027E+03 0.  0.
         23    2    4    4    0    0  0.64743350376E+02 -0.15209294537E+03 -0.31936018995E+03  0.37146659580E+03  0.93126448556E+02 0.  0.
         23    2    4    4    0    0 -0.61648186637E+03  0.23708823096E+03  0.19309585249E+03  0.69353169884E+03  0.86252467856E+02 0.  0.
          4    1    3    3  502    0  0.40526182990E+03 -0.30151756753E+02 -0.17938078969E+04  0.18392642687E+04  0.00000000000E+00 0. -1.
         -3    1    3    3    0  502  0.14647668610E+03 -0.54843528844E+02 -0.80001544972E+03  0.81516130429E+03  0.00000000000E+00 0.  1.
         11    1    5    5    0    0  0.56331430467E+02 -0.68403290077E+02 -0.86299666734E+02  0.12369265391E+03  0.00000000000E+00 0. -1.
        -11    1    5    5    0    0  0.84119199084E+01 -0.83689655291E+02 -0.23306052322E+03  0.24777394190E+03  0.00000000000E+00 0.  1.
          3    1    6    6  503    0 -0.17045777366E+03  0.45247318932E+02  0.17515354597E+02  0.17722855333E+03  0.00000000000E+00 0. -1.
         -3    1    6    6    0  503 -0.44602409272E+03  0.19184091203E+03  0.17558049789E+03  0.51630314550E+03  0.00000000000E+00 0.  1.
<mgrwt>
<rscale>  0 0.25367769E+04</rscale>
<asrwt>0</asrwt>
<pdfrwt beam="1">  1        2 0.49534705E+00 0.25367769E+04</pdfrwt>
<pdfrwt beam="2">  1       -1 0.76872012E-01 0.25367769E+04</pdfrwt>
<totfact> 0.21614661E+00</totfact>
</mgrwt>
</event>
<event>
12    6  0.1542110E-007  0.1484620E+04  0.7818608E-02  0.8894745E-01
         -1   -1    0    0    0  501 -0.00000000000E+00  0.00000000000E+00  0.32878416664E+03  0.32878416664E+03  0.00000000000E+00 0.  1.
          2   -1    0    0  501    0  0.00000000000E+00 -0.00000000000E+00 -0.16759451499E+04  0.16759451499E+04  0.00000000000E+00 0. -1.
         24    2    1    2    0    0 -0.31346321477E+03  0.13634149849E+03 -0.85631810466E+03  0.92568834201E+03  0.82280124723E+02 0.  0.
        254    2    1    2    0    0  0.31346321477E+03 -0.13634149849E+03 -0.49084287861E+03  0.10790409745E+04  0.89808379456E+03 0.  0.
         23    2    4    4    0    0 -0.19082131682E+03  0.23692375566E+03 -0.23563428153E+03  0.39575531345E+03  0.92483039252E+02 0.  0.
         23    2    4    4    0    0  0.50428453159E+03 -0.37326525415E+03 -0.25520859708E+03  0.68328566109E+03  0.90100099188E+02 0.  0.
          2    1    3    3  502    0 -0.24025471150E+03  0.67697593167E+02 -0.56880707245E+03  0.62116565921E+03  0.00000000000E+00 0. -1.
         -1    1    3    3    0  502 -0.73208503271E+02  0.68643905322E+02 -0.28751103222E+03  0.30452268279E+03  0.00000000000E+00 0.  1.
         11    1    5    5    0    0 -0.80158236348E+02  0.57289108630E+02 -0.34870326557E+02  0.10451470947E+03  0.00000000000E+00 0.  1.
        -11    1    5    5    0    0 -0.11066308047E+03  0.17963464703E+03 -0.20076395497E+03  0.29124060398E+03  0.00000000000E+00 0. -1.
          3    1    6    6  503    0  0.49227054704E+03 -0.35947970363E+03 -0.22862197351E+03  0.65101763077E+03  0.00000000000E+00 0. -1.
         -3    1    6    6    0  503  0.12013984557E+02 -0.13785550517E+02 -0.26586623572E+02  0.32268030323E+02  0.00000000000E+00 0.  1.
<mgrwt>
<rscale>  0 0.14846201E+04</rscale>
<asrwt>0</asrwt>
<pdfrwt beam="1">  1        2 0.25783772E+00 0.14846201E+04</pdfrwt>
<pdfrwt beam="2">  1       -1 0.50582179E-01 0.14846201E+04</pdfrwt>
<totfact> 0.43758657E+01</totfact>
</mgrwt>
</event>
<event>
12    6  0.1542110E-007  0.2017790E+04  0.7818608E-02  0.8598348E-01
          2   -1    0    0  501    0  0.00000000000E+00  0.00000000000E+00  0.21883234172E+04  0.21883234172E+04  0.00000000000E+00 0. -1.
         -1   -1    0    0    0  501 -0.00000000000E+00 -0.00000000000E+00 -0.46513655248E+03  0.46513655248E+03  0.00000000000E+00 0.  1.
         24    2    1    2    0    0 -0.71735502946E+03 -0.23042753118E+02  0.21009300482E+03  0.75210577308E+03  0.79967596381E+02 0.  0.
        254    2    1    2    0    0  0.71735502946E+03  0.23042753118E+02  0.15130938599E+04  0.19013541966E+04  0.90031413699E+03 0.  0.
         23    2    4    4    0    0  0.18224048858E+03  0.39432591922E+03  0.89542165080E+03  0.99920989767E+03  0.89084008908E+02 0.  0.
         23    2    4    4    0    0  0.53511454088E+03 -0.37128316610E+03  0.61767220911E+03  0.90214429892E+03  0.90258611079E+02 0.  0.
          2    1    3    3  502    0 -0.14731428839E+02  0.92624232918E+01  0.12773747752E+02  0.21586479854E+02  0.00000000000E+00 0. -1.
         -1    1    3    3    0  502 -0.70262360062E+03 -0.32305176410E+02  0.19731925707E+03  0.73051929323E+03  0.00000000000E+00 0.  1.
         11    1    5    5    0    0  0.10469117782E+01  0.64909622425E+02  0.17372030213E+03  0.18545376373E+03  0.00000000000E+00 0.  1.
        -11    1    5    5    0    0  0.18119357680E+03  0.32941629680E+03  0.72170134866E+03  0.81375613394E+03  0.00000000000E+00 0. -1.
          4    1    6    6  503    0  0.41425789289E+03 -0.33059446212E+03  0.49932554170E+03  0.72816776693E+03  0.00000000000E+00 0. -1.
         -4    1    6    6    0  503  0.12085664799E+03 -0.40688703985E+02  0.11834666741E+03  0.17397653199E+03  0.00000000000E+00 0.  1.
<mgrwt>
<rscale>  0 0.20177901E+04</rscale>
<asrwt>0</asrwt>
<pdfrwt beam="1">  1        2 0.33666513E+00 0.20177901E+04</pdfrwt>
<pdfrwt beam="2">  1       -1 0.71559471E-01 0.20177901E+04</pdfrwt>
<totfact> 0.10916307E+01</totfact>
</mgrwt>
</event>
<event>
12    6  0.1542110E-007  0.1080953E+04  0.7818608E-02  0.9223958E-01
          2   -1    0    0  501    0  0.00000000000E+00  0.00000000000E+00  0.23275202246E+04  0.23275202246E+04  0.00000000000E+00 0. -1.
         -1   -1    0    0    0  501 -0.00000000000E+00 -0.00000000000E+00 -0.12550476278E+03  0.12550476278E+03  0.00000000000E+00 0.  1.
         24    2    1    2    0    0 -0.78048915853E+00  0.82973781352E+02  0.78393869424E+01  0.11471809533E+03  0.78825933894E+02 0.  0.
        254    2    1    2    0    0  0.78048915853E+00 -0.82973781352E+02  0.21941760749E+04  0.23383068921E+04  0.80398085567E+03 0.  0.
         23    2    4    4    0    0 -0.41688969945E+02  0.19924994349E+03  0.19141108875E+04  0.19271469111E+04  0.92931249677E+02 0.  0.
         23    2    4    4    0    0  0.42469459103E+02 -0.28222372484E+03  0.28006518740E+03  0.41115998096E+03  0.95719041625E+02 0.  0.
          2    1    3    3  502    0  0.80671529281E+01 -0.47486621478E+01 -0.20146894713E+02  0.22215447669E+02  0.00000000000E+00 0. -1.
         -1    1    3    3    0  502 -0.88476420867E+01  0.87722443499E+02  0.27986281656E+02  0.92502647664E+02  0.00000000000E+00 0.  1.
         11    1    5    5    0    0 -0.43853111292E+02  0.15075387888E+03  0.17163158953E+04  0.17234819639E+04  0.00000000000E+00 0.  1.
        -11    1    5    5    0    0  0.21641413469E+01  0.48496064611E+02  0.19779499217E+03  0.20366494720E+03  0.00000000000E+00 0. -1.
          2    1    6    6  503    0  0.62723577097E+02 -0.10535973897E+03  0.10403638685E+03  0.16080575708E+03  0.00000000000E+00 0.  1.
         -2    1    6    6    0  503 -0.20254117993E+02 -0.17686398587E+03  0.17602880055E+03  0.25035422388E+03  0.00000000000E+00 0. -1.
<mgrwt>
<rscale>  0 0.10809530E+04</rscale>
<asrwt>0</asrwt>
<pdfrwt beam="1">  1        2 0.35808000E+00 0.10809530E+04</pdfrwt>
<pdfrwt beam="2">  1       -1 0.19308427E-01 0.10809530E+04</pdfrwt>
<totfact> 0.10813017E+02</totfact>
</mgrwt>
</event>
<event>
12    6  0.1542110E-007  0.1476551E+04  0.7818608E-02  0.8900197E-01
         -1   -1    0    0    0  501 -0.00000000000E+00  0.00000000000E+00  0.28041781035E+03  0.28041781035E+03  0.00000000000E+00 0.  1.
          2   -1    0    0  501    0  0.00000000000E+00 -0.00000000000E+00 -0.19437103562E+04  0.19437103562E+04  0.00000000000E+00 0. -1.
         24    2    1    2    0    0  0.14209072270E+03 -0.15651285045E+03  0.89020151700E+02  0.24333061885E+03  0.81235194514E+02 0.  0.
        254    2    1    2    0    0 -0.14209072270E+03  0.15651285045E+03 -0.17523126976E+04  0.19807975477E+04  0.89904009321E+03 0.  0.
         23    2    4    4    0    0  0.31491719368E+03 -0.48696806046E+02 -0.11255343960E+04  0.11732638955E+04  0.90422752352E+02 0.  0.
         23    2    4    4    0    0 -0.45700791638E+03  0.20520965649E+03 -0.62677830157E+03  0.80753365222E+03  0.91062184209E+02 0.  0.
          2    1    3    3  502    0  0.14715067227E+02 -0.98764456427E+01  0.38881319021E+02  0.42729782949E+02  0.00000000000E+00 0. -1.
         -1    1    3    3    0  502  0.12737565547E+03 -0.14663640480E+03  0.50138832679E+02  0.20060083590E+03  0.00000000000E+00 0.  1.
         11    1    5    5    0    0  0.45189607994E+02  0.31298033478E+00 -0.30040493799E+03  0.30378499863E+03  0.00000000000E+00 0.  1.
        -11    1    5    5    0    0  0.26972758568E+03 -0.49009786381E+02 -0.82512945803E+03  0.86947889690E+03  0.00000000000E+00 0. -1.
          2    1    6    6  503    0 -0.97104011581E+02  0.64117726496E+02 -0.20253503083E+03  0.23358234229E+03  0.00000000000E+00 0. -1.
         -2    1    6    6    0  503 -0.35990390479E+03  0.14109193000E+03 -0.42424327074E+03  0.57395130992E+03  0.00000000000E+00 0.  1.
<mgrwt>
<rscale>  0 0.14765514E+04</rscale>
<asrwt>0</asrwt>
<pdfrwt beam="1">  1        2 0.29903235E+00 0.14765514E+04</pdfrwt>
<pdfrwt beam="2">  1       -1 0.43141203E-01 0.14765514E+04</pdfrwt>
<totfact> 0.41955009E+01</totfact>
</mgrwt>
</event>
<event>
12    6  0.1542110E-007  0.1813571E+04  0.7818608E-02  0.8699116E-01
         -1   -1    0    0    0  501 -0.00000000000E+00  0.00000000000E+00  0.59391553819E+03  0.59391553819E+03  0.00000000000E+00 0.  1.
          2   -1    0    0  501    0  0.00000000000E+00 -0.00000000000E+00 -0.13844733615E+04  0.13844733615E+04  0.00000000000E+00 0. -1.
         24    2    1    2    0    0 -0.47889047437E+03 -0.25210882759E+03 -0.73589484260E+03  0.91713637956E+03  0.81871679769E+02 0.  0.
        254    2    1    2    0    0  0.47889047437E+03  0.25210882759E+03 -0.54662980722E+02  0.10612525201E+04  0.91124855153E+03 0.  0.
         23    2    4    4    0    0  0.34599297114E+03  0.17406795708E+03 -0.46609471178E+03  0.61230508229E+03  0.87535385378E+02 0.  0.
         23    2    4    4    0    0  0.13289750323E+03  0.78040870511E+02  0.41143173105E+03  0.44894743785E+03  0.92334223351E+02 0.  0.
          2    1    3    3  502    0 -0.43243169605E+03 -0.25140167552E+03 -0.68546224710E+03  0.84856258838E+03  0.00000000000E+00 0. -1.
         -1    1    3    3    0  502 -0.46458778318E+02 -0.70715206831E+00 -0.50432595506E+02  0.68573791177E+02  0.00000000000E+00 0.  1.
         11    1    5    5    0    0  0.34649265092E+03  0.18001541507E+03 -0.45397488210E+03  0.59879537438E+03  0.00000000000E+00 0.  1.
        -11    1    5    5    0    0 -0.49967977865E+00 -0.59474579885E+01 -0.12119829680E+02  0.13509707913E+02  0.00000000000E+00 0. -1.
          1    1    6    6  503    0  0.79042104047E+02 -0.65860749661E+01  0.18601159328E+03  0.20221608104E+03  0.00000000000E+00 0. -1.
         -1    1    6    6    0  503  0.53855399184E+02  0.84626945477E+02  0.22542013777E+03  0.24673135682E+03  0.00000000000E+00 0.  1.
<mgrwt>
<rscale>  0 0.18135713E+04</rscale>
<asrwt>0</asrwt>
<pdfrwt beam="1">  1        2 0.21299590E+00 0.18135713E+04</pdfrwt>
<pdfrwt beam="2">  1       -1 0.91371623E-01 0.18135713E+04</pdfrwt>
<totfact> 0.18545799E+01</totfact>
</mgrwt>
</event>
<event>
12    6  0.1542110E-007  0.1553271E+04  0.7818608E-02  0.8849781E-01
         -1   -1    0    0    0  501 -0.00000000000E+00  0.00000000000E+00  0.74286645031E+03  0.74286645031E+03  0.00000000000E+00 0.  1.
          2   -1    0    0  501    0  0.00000000000E+00 -0.00000000000E+00 -0.81194007915E+03  0.81194007915E+03  0.00000000000E+00 0. -1.
         24    2    1    2    0    0  0.62965957543E+02  0.50682683268E+03  0.13676078032E+02  0.51701183270E+03  0.79221524247E+02 0.  0.
        254    2    1    2    0    0 -0.62965957543E+02 -0.50682683268E+03 -0.82749706878E+02  0.10377946968E+04  0.89962890600E+03 0.  0.
         23    2    4    4    0    0 -0.37610293321E+03 -0.28959333425E+03  0.23241815120E+03  0.53631229585E+03  0.91076704260E+02 0.  0.
         23    2    4    4    0    0  0.31313697567E+03 -0.21723349843E+03 -0.31516785808E+03  0.50148240091E+03  0.83118357095E+02 0.  0.
          4    1    3    3  502    0  0.45401765908E+02  0.44977516295E+03 -0.11545134809E+02  0.45220825700E+03  0.00000000000E+00 0. -1.
         -3    1    3    3    0  502  0.17564191635E+02  0.57051669726E+02  0.25221212842E+02  0.64803575701E+02  0.00000000000E+00 0.  1.
         11    1    5    5    0    0 -0.31143222992E+03 -0.19232437785E+03  0.18649969291E+03  0.41080510659E+03  0.00000000000E+00 0. -1.
        -11    1    5    5    0    0 -0.64670703297E+02 -0.97268956397E+02  0.45918458291E+02  0.12550718926E+03  0.00000000000E+00 0.  1.
          2    1    6    6  503    0  0.29466395965E+03 -0.21920394761E+03 -0.31343546122E+03  0.48282399289E+03  0.00000000000E+00 0. -1.
         -2    1    6    6    0  503  0.18473016020E+02  0.19704491804E+01 -0.17323968585E+01  0.18658408016E+02  0.00000000000E+00 0.  1.
<mgrwt>
<rscale>  0 0.15532714E+04</rscale>
<asrwt>0</asrwt>
<pdfrwt beam="1">  1        2 0.12491386E+00 0.15532714E+04</pdfrwt>
<pdfrwt beam="2">  1       -1 0.11428715E+00 0.15532714E+04</pdfrwt>
<totfact> 0.25857175E+01</totfact>
</mgrwt>
</event>
<event>
12    6  0.1542110E-007  0.2261056E+04  0.7818608E-02  0.8493436E-01
         -3   -1    0    0    0  501 -0.00000000000E+00  0.00000000000E+00  0.91175509939E+03  0.91175509939E+03  0.00000000000E+00 0.  1.
          2   -1    0    0  501    0  0.00000000000E+00 -0.00000000000E+00 -0.14017950462E+04  0.14017950462E+04  0.00000000000E+00 0. -1.
         24    2    1    2    0    0  0.65717499266E+03  0.70364348730E+02 -0.83083464402E+03  0.10644400398E+04  0.76917358693E+02 0.  0.
        254    2    1    2    0    0 -0.65717499266E+03 -0.70364348730E+02  0.34079469719E+03  0.12491101058E+04  0.10036458132E+04 0.  0.
         23    2    4    4    0    0 -0.12780168638E+03 -0.49335394140E+03  0.14722517413E+03  0.53856940989E+03  0.93007391298E+02 0.  0.
         23    2    4    4    0    0 -0.52937330627E+03  0.42298959267E+03  0.19356952306E+03  0.71054069593E+03  0.90788916817E+02 0.  0.
          2    1    3    3  502    0  0.57763573322E+02 -0.39700301781E+01 -0.10736017737E+03  0.12197786368E+03  0.00000000000E+00 0. -1.
         -1    1    3    3    0  502  0.59941141933E+03  0.74334378908E+02 -0.72347446665E+03  0.94246217612E+03  0.00000000000E+00 0.  1.
         11    1    5    5    0    0 -0.61034366929E+02 -0.36386561257E+03  0.13299582816E+03  0.39218779719E+03  0.00000000000E+00 0.  1.
        -11    1    5    5    0    0 -0.66767319451E+02 -0.12948832883E+03  0.14229345968E+02  0.14638161270E+03  0.00000000000E+00 0. -1.
          1    1    6    6  503    0 -0.12344474960E+03  0.67456181365E+02  0.69239776950E+02  0.15678995287E+03  0.00000000000E+00 0. -1.
         -1    1    6    6    0  503 -0.40592855668E+03  0.35553341131E+03  0.12432974611E+03  0.55375074307E+03  0.00000000000E+00 0.  1.
<mgrwt>
<rscale>  0 0.22610562E+04</rscale>
<asrwt>0</asrwt>
<pdfrwt beam="1">  1        2 0.21566077E+00 0.22610562E+04</pdfrwt>
<pdfrwt beam="2">  1       -3 0.14027002E+00 0.22610562E+04</pdfrwt>
<totfact> 0.31894784E+00</totfact>
</mgrwt>
</event>
<event>
12    6  0.1542110E-007  0.2741330E+04  0.7818608E-02  0.8321718E-01
         -1   -1    0    0    0  501 -0.00000000000E+00  0.00000000000E+00  0.87365550508E+03  0.87365550508E+03  0.00000000000E+00 0.  1.
          2   -1    0    0  501    0  0.00000000000E+00 -0.00000000000E+00 -0.21504156547E+04  0.21504156547E+04  0.00000000000E+00 0. -1.
         24    2    1    2    0    0  0.97511949708E+02  0.96107800653E+03 -0.13963636345E+04  0.16998172138E+04  0.79797529278E+02 0.  0.
        254    2    1    2    0    0 -0.97511949708E+02 -0.96107800653E+03  0.11960348493E+03  0.13242539459E+04  0.89786636239E+03 0.  0.
         23    2    4    4    0    0  0.31953000943E+03 -0.77902960175E+03  0.14407735605E+03  0.85980209608E+03  0.97543900721E+02 0.  0.
         23    2    4    4    0    0 -0.41704195914E+03 -0.18204840478E+03 -0.24473871123E+02  0.46445184984E+03  0.89726991957E+02 0.  0.
          4    1    3    3  502    0  0.10931715782E+03  0.91618267968E+03 -0.13365881377E+04  0.16241332438E+04  0.00000000000E+00 0. -1.
         -3    1    3    3    0  502 -0.11805208109E+02  0.44895326851E+02 -0.59775496775E+02  0.75683970074E+02  0.00000000000E+00 0.  1.
         11    1    5    5    0    0  0.77763983008E+02 -0.18758682597E+03  0.77662780879E+02  0.21741104357E+03  0.00000000000E+00 0. -1.
        -11    1    5    5    0    0  0.24176602642E+03 -0.59144277578E+03  0.66414575172E+02  0.64239105252E+03  0.00000000000E+00 0.  1.
          3    1    6    6  503    0 -0.16855598895E+03 -0.35547383651E+02 -0.35080435464E+02  0.17579924587E+03  0.00000000000E+00 0. -1.
         -3    1    6    6    0  503 -0.24848597019E+03 -0.14650102113E+03  0.10606564340E+02  0.28865260397E+03  0.00000000000E+00 0.  1.
<mgrwt>
<rscale>  0 0.27413300E+04</rscale>
<asrwt>0</asrwt>
<pdfrwt beam="1">  1        2 0.33083317E+00 0.27413300E+04</pdfrwt>
<pdfrwt beam="2">  1       -1 0.13440854E+00 0.27413300E+04</pdfrwt>
<totfact> 0.25505996E+00</totfact>
</mgrwt>
</event>
<event>
12    6  0.1542110E-007  0.1401679E+04  0.7818608E-02  0.8952604E-01
         -1   -1    0    0    0  501 -0.00000000000E+00  0.00000000000E+00  0.29794926801E+03  0.29794926801E+03  0.00000000000E+00 0.  1.
          2   -1    0    0  501    0  0.00000000000E+00 -0.00000000000E+00 -0.16485222922E+04  0.16485222922E+04  0.00000000000E+00 0. -1.
         24    2    1    2    0    0  0.28042683190E+03  0.10458491319E+03 -0.79659585058E+03  0.85493229064E+03  0.82262143808E+02 0.  0.
        254    2    1    2    0    0 -0.28042683190E+03 -0.10458491319E+03 -0.55397717362E+03  0.10915392696E+04  0.89162214868E+03 0.  0.
         23    2    4    4    0    0 -0.28245738050E+03 -0.38237365526E+03 -0.22577662804E+02  0.48516417959E+03  0.94248322318E+02 0.  0.
         23    2    4    4    0    0  0.20305485997E+01  0.27778874207E+03 -0.53139951081E+03  0.60637508999E+03  0.90192024693E+02 0.  0.
          2    1    3    3  502    0  0.16191480928E+03  0.52344528630E+02 -0.33828346724E+03  0.37867143984E+03  0.00000000000E+00 0. -1.
         -1    1    3    3    0  502  0.11851202262E+03  0.52240384557E+02 -0.45831238334E+03  0.47626085080E+03  0.00000000000E+00 0.  1.
         11    1    5    5    0    0 -0.28680596794E+03 -0.37730505948E+03 -0.30360254939E+02  0.47490895573E+03  0.00000000000E+00 0.  1.
        -11    1    5    5    0    0  0.43485874417E+01 -0.50685957820E+01  0.77825921357E+01  0.10255223854E+02  0.00000000000E+00 0. -1.
          1    1    6    6  503    0 -0.33235400593E+02  0.54588304629E+02 -0.88537527721E+02  0.10919417874E+03  0.00000000000E+00 0. -1.
         -1    1    6    6    0  503  0.35265949192E+02  0.22320043744E+03 -0.44286198309E+03  0.49718091126E+03  0.00000000000E+00 0.  1.
<mgrwt>
<rscale>  0 0.14016790E+04</rscale>
<asrwt>0</asrwt>
<pdfrwt beam="1">  1        2 0.25361881E+00 0.14016790E+04</pdfrwt>
<pdfrwt beam="2">  1       -1 0.45838350E-01 0.14016790E+04</pdfrwt>
<totfact> 0.54950985E+01</totfact>
</mgrwt>
</event>
<event>
12    6  0.1542110E-007  0.1645411E+04  0.7818608E-02  0.8793126E-01
         -1   -1    0    0    0  501 -0.00000000000E+00  0.00000000000E+00  0.36588962089E+03  0.36588962089E+03  0.00000000000E+00 0.  1.
          2   -1    0    0  501    0  0.00000000000E+00 -0.00000000000E+00 -0.18498596146E+04  0.18498596146E+04  0.00000000000E+00 0. -1.
         24    2    1    2    0    0 -0.32941820775E+03  0.36891306112E+03 -0.12643825346E+03  0.51670216650E+03  0.79883006148E+02 0.  0.
        254    2    1    2    0    0  0.32941820775E+03 -0.36891306112E+03 -0.13575317403E+04  0.16990470690E+04  0.89401080229E+03 0.  0.
         23    2    4    4    0    0 -0.18815415013E+03  0.34536872589E+02 -0.28261696444E+02  0.21383850028E+03  0.91287463208E+02 0.  0.
         23    2    4    4    0    0  0.51757235788E+03 -0.40344993371E+03 -0.13292700439E+04  0.14852085687E+04  0.90733943816E+02 0.  0.
          4    1    3    3  502    0 -0.12516680969E+02  0.49078615376E+02 -0.15900558583E+02  0.53086773804E+02  0.00000000000E+00 0. -1.
         -3    1    3    3    0  502 -0.31690152678E+03  0.31983444574E+03 -0.11053769487E+03  0.46361539270E+03  0.00000000000E+00 0.  1.
         11    1    5    5    0    0 -0.13216114395E+03 -0.16405472496E+02 -0.35410189677E+02  0.13780271779E+03  0.00000000000E+00 0. -1.
        -11    1    5    5    0    0 -0.55993006179E+02  0.50942345085E+02  0.71484932334E+01  0.76035782492E+02  0.00000000000E+00 0.  1.
          3    1    6    6  503    0  0.47415092261E+03 -0.33923656447E+03 -0.11333918524E+04  0.12745499736E+04  0.00000000000E+00 0. -1.
         -3    1    6    6    0  503  0.43421435262E+02 -0.64213369238E+02 -0.19587819143E+03  0.21065859514E+03  0.00000000000E+00 0.  1.
<mgrwt>
<rscale>  0 0.16454111E+04</rscale>
<asrwt>0</asrwt>
<pdfrwt beam="1">  1        2 0.28459379E+00 0.16454111E+04</pdfrwt>
<pdfrwt beam="2">  1       -1 0.56290710E-01 0.16454111E+04</pdfrwt>
<totfact> 0.28142526E+01</totfact>
</mgrwt>
</event>
<event>
12    6  0.1542110E-007  0.1706879E+04  0.7818608E-02  0.8757451E-01
         -3   -1    0    0    0  501 -0.00000000000E+00  0.00000000000E+00  0.24964748405E+04  0.24964748405E+04  0.00000000000E+00 0.  1.
          4   -1    0    0  501    0  0.00000000000E+00 -0.00000000000E+00 -0.29175496645E+03  0.29175496645E+03  0.00000000000E+00 0. -1.
         24    2    1    2    0    0 -0.25252791839E+03 -0.41760180764E+03  0.19790506369E+03  0.53258667879E+03  0.79501804253E+02 0.  0.
        254    2    1    2    0    0  0.25252791839E+03  0.41760180764E+03  0.20068148103E+04  0.22556431281E+04  0.90689504309E+03 0.  0.
         23    2    4    4    0    0  0.13424129246E+03  0.12601691948E+02  0.17375598149E+04  0.17453005014E+04  0.93702734245E+02 0.  0.
         23    2    4    4    0    0  0.11828662593E+03  0.40500011569E+03  0.26925499539E+03  0.51034262674E+03  0.99672085045E+02 0.  0.
          2    1    3    3  502    0 -0.16726986775E+03 -0.32302175791E+03  0.11874902612E+03  0.38265336264E+03  0.00000000000E+00 0. -1.
         -1    1    3    3    0  502 -0.85258050638E+02 -0.94580049734E+02  0.79156037575E+02  0.14993331615E+03  0.00000000000E+00 0.  1.
         11    1    5    5    0    0  0.49346100781E+02  0.19886677111E+02  0.26557587848E+03  0.27085247797E+03  0.00000000000E+00 0.  1.
        -11    1    5    5    0    0  0.84895191680E+02 -0.72849851625E+01  0.14719839364E+04  0.14744480234E+04  0.00000000000E+00 0. -1.
          4    1    6    6  503    0  0.11050665909E+03  0.23106892978E+03  0.12907550751E+03  0.28681886035E+03  0.00000000000E+00 0. -1.
         -4    1    6    6    0  503  0.77799668348E+01  0.17393118591E+03  0.14017948788E+03  0.22352376639E+03  0.00000000000E+00 0.  1.
<mgrwt>
<rscale>  0 0.17068789E+04</rscale>
<asrwt>0</asrwt>
<pdfrwt beam="1">  1        4 0.44885381E-01 0.17068789E+04</pdfrwt>
<pdfrwt beam="2">  1       -3 0.38407304E+00 0.17068789E+04</pdfrwt>
<totfact> 0.13716324E-01</totfact>
</mgrwt>
</event>
<event>
12    6  0.1542110E-007  0.1718097E+04  0.7818608E-02  0.8751110E-01
         -1   -1    0    0    0  501 -0.00000000000E+00  0.00000000000E+00  0.42011810730E+03  0.42011810730E+03  0.00000000000E+00 0.  1.
          2   -1    0    0  501    0  0.00000000000E+00 -0.00000000000E+00 -0.17565631533E+04  0.17565631533E+04  0.00000000000E+00 0. -1.
         24    2    1    2    0    0  0.22735528531E+03 -0.76972981762E+02 -0.11826441926E+04  0.12093628361E+04  0.79346817695E+02 0.  0.
        254    2    1    2    0    0 -0.22735528531E+03  0.76972981762E+02 -0.15380085338E+03  0.96731842444E+03  0.92435651460E+03 0.  0.
         23    2    4    4    0    0 -0.67678563283E+02 -0.40175406811E+03  0.40404270881E+02  0.41940555979E+03  0.91004391679E+02 0.  0.
         23    2    4    4    0    0 -0.15967672203E+03  0.47872704987E+03 -0.19420512426E+03  0.54791286466E+03  0.88411725085E+02 0.  0.
          2    1    3    3  502    0  0.21061378480E+03 -0.91009642291E+02 -0.10361258265E+04  0.10612245991E+04  0.00000000000E+00 0. -1.
         -3    1    3    3    0  502  0.16741500512E+02  0.14036660529E+02 -0.14651836610E+03  0.14813823707E+03  0.00000000000E+00 0.  1.
         11    1    5    5    0    0 -0.28085549271E+02 -0.34680099859E+03  0.19333876130E+02  0.34847314024E+03  0.00000000000E+00 0. -1.
        -11    1    5    5    0    0 -0.39593014011E+02 -0.54953069515E+02  0.21070394752E+02  0.70932419546E+02  0.00000000000E+00 0.  1.
          2    1    6    6  503    0 -0.29735913813E+02  0.25903905218E+02 -0.31998202804E+01  0.39566093132E+02  0.00000000000E+00 0.  1.
         -2    1    6    6    0  503 -0.12994080822E+03  0.45282314465E+03 -0.19100530398E+03  0.50834677153E+03  0.00000000000E+00 0. -1.
<mgrwt>
<rscale>  0 0.17180966E+04</rscale>
<asrwt>0</asrwt>
<pdfrwt beam="1">  1        2 0.27024048E+00 0.17180966E+04</pdfrwt>
<pdfrwt beam="2">  1       -1 0.64633556E-01 0.17180966E+04</pdfrwt>
<totfact> 0.23963181E+01</totfact>
</mgrwt>
</event>
<event>
12    6  0.1542110E-007  0.2885545E+04  0.7818608E-02  0.8277191E-01
          2   -1    0    0  501    0  0.00000000000E+00  0.00000000000E+00  0.27039254220E+04  0.27039254220E+04  0.00000000000E+00 0. -1.
         -1   -1    0    0    0  501 -0.00000000000E+00 -0.00000000000E+00 -0.76984086597E+03  0.76984086597E+03  0.00000000000E+00 0.  1.
         24    2    1    2    0    0  0.10333841122E+04 -0.78727496980E+03  0.81608937155E+03  0.15362485376E+04  0.79831732149E+02 0.  0.
        254    2    1    2    0    0 -0.10333841122E+04  0.78727496980E+03  0.11179951845E+04  0.19375177504E+04  0.90353594234E+03 0.  0.
         23    2    4    4    0    0 -0.80821846790E+03  0.97890966926E+03  0.90290883659E+03  0.15604863908E+04  0.91608822626E+02 0.  0.
         23    2    4    4    0    0 -0.22516564429E+03 -0.19163469946E+03  0.21508634787E+03  0.37703135952E+03  0.92016757277E+02 0.  0.
          2    1    3    3  502    0  0.56649225288E+03 -0.46256448888E+03  0.42239162758E+03  0.84456738393E+03  0.00000000000E+00 0. -1.
         -1    1    3    3    0  502  0.46689185930E+03 -0.32471048092E+03  0.39369774397E+03  0.69168115365E+03  0.00000000000E+00 0.  1.
         11    1    5    5    0    0 -0.12766446118E+03  0.14660573972E+03  0.17989886440E+03  0.26486800294E+03  0.00000000000E+00 0.  1.
        -11    1    5    5    0    0 -0.68055400672E+03  0.83230392954E+03  0.72300997219E+03  0.12956183879E+04  0.00000000000E+00 0. -1.
          2    1    6    6  503    0 -0.20027035930E+03 -0.18409739603E+03  0.22084626706E+03  0.35038998518E+03  0.00000000000E+00 0. -1.
         -2    1    6    6    0  503 -0.24895284989E+02 -0.75373034270E+01 -0.57599191960E+01  0.26641374341E+02  0.00000000000E+00 0.  1.
<mgrwt>
<rscale>  0 0.28855449E+04</rscale>
<asrwt>0</asrwt>
<pdfrwt beam="1">  1        2 0.41598852E+00 0.28855449E+04</pdfrwt>
<pdfrwt beam="2">  1       -1 0.11843706E+00 0.28855449E+04</pdfrwt>
<totfact> 0.16576304E+00</totfact>
</mgrwt>
</event>
<event>
12    6  0.1542110E-007  0.3448107E+04  0.7818608E-02  0.8126199E-01
          2   -1    0    0  501    0  0.00000000000E+00  0.00000000000E+00  0.26457602050E+04  0.26457602050E+04  0.00000000000E+00 0. -1.
         -1   -1    0    0    0  501 -0.00000000000E+00 -0.00000000000E+00 -0.11234427159E+04  0.11234427159E+04  0.00000000000E+00 0.  1.
         24    2    1    2    0    0 -0.12312947404E+04 -0.78631048136E+03  0.14275948330E+04  0.20442713947E+04  0.81532922048E+02 0.  0.
        254    2    1    2    0    0  0.12312947404E+04  0.78631048136E+03  0.94722656092E+02  0.17249315261E+04  0.91216526875E+03 0.  0.
         23    2    4    4    0    0  0.10760104870E+04  0.33757839799E+03  0.34253223435E+03  0.11819381694E+04  0.88835588298E+02 0.  0.
         23    2    4    4    0    0  0.15528425336E+03  0.44873208337E+03 -0.24780957826E+03  0.54299335674E+03  0.89210517331E+02 0.  0.
          4    1    3    3  502    0 -0.57819836914E+03 -0.33868225211E+03  0.61059682856E+03  0.90655805607E+03  0.00000000000E+00 0. -1.
         -3    1    3    3    0  502 -0.65309637124E+03 -0.44762822925E+03  0.81699800442E+03  0.11377133387E+04  0.00000000000E+00 0.  1.
         11    1    5    5    0    0  0.23661042274E+03  0.39839808547E+02  0.88991254030E+02  0.25591237912E+03  0.00000000000E+00 0.  1.
        -11    1    5    5    0    0  0.83940006429E+03  0.29773858944E+03  0.25354098032E+03  0.92602579028E+03  0.00000000000E+00 0. -1.
          4    1    6    6  503    0  0.13904886103E+03  0.44373049711E+03 -0.24554364225E+03  0.52585456171E+03  0.00000000000E+00 0. -1.
         -4    1    6    6    0  503  0.16235392330E+02  0.50015862585E+01 -0.22659360091E+01  0.17138795034E+02  0.00000000000E+00 0.  1.
<mgrwt>
<rscale>  0 0.34481067E+04</rscale>
<asrwt>0</asrwt>
<pdfrwt beam="1">  1        2 0.40704003E+00 0.34481067E+04</pdfrwt>
<pdfrwt beam="2">  1       -1 0.17283734E+00 0.34481067E+04</pdfrwt>
<totfact> 0.62875703E-01</totfact>
</mgrwt>
</event>
<event>
12    6  0.1542110E-007  0.1502848E+04  0.7818608E-02  0.8882561E-01
         -1   -1    0    0    0  501 -0.00000000000E+00  0.00000000000E+00  0.23531381686E+03  0.23531381686E+03  0.00000000000E+00 0.  1.
          2   -1    0    0  501    0  0.00000000000E+00 -0.00000000000E+00 -0.23995102240E+04  0.23995102240E+04  0.00000000000E+00 0. -1.
         24    2    1    2    0    0 -0.31351770986E+03  0.31228189174E+02 -0.33284930070E+02  0.32684274297E+03  0.80310260050E+02 0.  0.
        254    2    1    2    0    0  0.31351770986E+03 -0.31228189174E+02 -0.21309114771E+04  0.23079812979E+04  0.82868896100E+03 0.  0.
         23    2    4    4    0    0  0.47278853580E+03 -0.18314733939E+03 -0.19258938436E+04  0.19935791706E+04  0.90657956123E+02 0.  0.
         23    2    4    4    0    0 -0.15927082594E+03  0.15191915022E+03 -0.20501763343E+03  0.31440212728E+03  0.91486848344E+02 0.  0.
          4    1    3    3  502    0 -0.82533400286E+02 -0.27154632679E+02 -0.99901986304E+01  0.87458220353E+02  0.00000000000E+00 0. -1.
         -3    1    3    3    0  502 -0.23098430957E+03  0.58382821853E+02 -0.23294731440E+02  0.23938452262E+03  0.00000000000E+00 0.  1.
         11    1    5    5    0    0  0.59354843329E+02 -0.74487540766E+00 -0.15606908063E+03  0.16697637616E+03  0.00000000000E+00 0.  1.
        -11    1    5    5    0    0  0.41343369247E+03 -0.18240246399E+03 -0.17698247630E+04  0.18266027944E+04  0.00000000000E+00 0. -1.
          2    1    6    6  503    0 -0.21424084720E+02  0.79421426394E+02 -0.79088470040E+02  0.11411284095E+03  0.00000000000E+00 0.  1.
         -2    1    6    6    0  503 -0.13784674122E+03  0.72497723827E+02 -0.12592916339E+03  0.20028928633E+03  0.00000000000E+00 0. -1.
<mgrwt>
<rscale>  0 0.15028478E+04</rscale>
<asrwt>0</asrwt>
<pdfrwt beam="1">  1        2 0.36915543E+00 0.15028478E+04</pdfrwt>
<pdfrwt beam="2">  1       -1 0.36202124E-01 0.15028478E+04</pdfrwt>
<totfact> 0.32025857E+01</totfact>
</mgrwt>
</event>
<event>
12    6  0.1542110E-007  0.2090146E+04  0.7818608E-02  0.8565597E-01
         -1   -1    0    0    0  501 -0.00000000000E+00  0.00000000000E+00  0.20814844928E+04  0.20814844928E+04  0.00000000000E+00 0.  1.
          2   -1    0    0  501    0  0.00000000000E+00 -0.00000000000E+00 -0.52471084750E+03  0.52471084750E+03  0.00000000000E+00 0. -1.
         24    2    1    2    0    0 -0.29288254757E+02  0.79472646215E+02  0.16827658065E+04  0.16867799321E+04  0.79699914940E+02 0.  0.
        254    2    1    2    0    0  0.29288254757E+02 -0.79472646215E+02 -0.12599216118E+03  0.91941540822E+03  0.90679488576E+03 0.  0.
         23    2    4    4    0    0 -0.22698371095E+03  0.17801157137E+03  0.24716336541E+03  0.39130233301E+03  0.93904536841E+02 0.  0.
         23    2    4    4    0    0  0.25627196570E+03 -0.25748421758E+03 -0.37315552659E+03  0.52811307521E+03  0.87663735237E+02 0.  0.
          4    1    3    3  502    0 -0.50973704126E+02  0.26469260491E+02  0.70334010390E+03  0.70568140263E+03  0.00000000000E+00 0. -1.
         -3    1    3    3    0  502  0.21685449369E+02  0.53003385724E+02  0.97942570257E+03  0.98109852944E+03  0.00000000000E+00 0.  1.
         11    1    5    5    0    0 -0.19851623381E+03  0.18409507517E+03  0.20292910002E+03  0.33834880142E+03  0.00000000000E+00 0. -1.
        -11    1    5    5    0    0 -0.28467477140E+02 -0.60835037992E+01  0.44234265389E+02  0.52953531589E+02  0.00000000000E+00 0.  1.
          3    1    6    6  503    0  0.32426095231E+02 -0.80612213993E+02 -0.10815047528E+03  0.13873105637E+03  0.00000000000E+00 0. -1.
         -3    1    6    6    0  503  0.22384587047E+03 -0.17687200359E+03 -0.26500505131E+03  0.38938201885E+03  0.00000000000E+00 0.  1.
<mgrwt>
<rscale>  0 0.20901459E+04</rscale>
<asrwt>0</asrwt>
<pdfrwt beam="1">  1        2 0.80724747E-01 0.20901459E+04</pdfrwt>
<pdfrwt beam="2">  1       -1 0.32022838E+00 0.20901459E+04</pdfrwt>
<totfact> 0.14965439E+00</totfact>
</mgrwt>
</event>
<event>
12    6  0.1542110E-007  0.1533038E+04  0.7818608E-02  0.8862776E-01
         -1   -1    0    0    0  501 -0.00000000000E+00  0.00000000000E+00  0.29737770484E+03  0.29737770484E+03  0.00000000000E+00 0.  1.
          2   -1    0    0  501    0  0.00000000000E+00 -0.00000000000E+00 -0.19757739033E+04  0.19757739033E+04  0.00000000000E+00 0. -1.
         24    2    1    2    0    0 -0.39272283921E+03  0.36724447614E+02 -0.99968061358E+02  0.41493560014E+03  0.81228230823E+02 0.  0.
        254    2    1    2    0    0  0.39272283921E+03 -0.36724447614E+02 -0.15784281371E+04  0.18582160080E+04  0.89774797963E+03 0.  0.
         23    2    4    4    0    0 -0.18087981800E+02  0.19520146332E+03 -0.12669117779E+04  0.12851422701E+04  0.89968967190E+02 0.  0.
         23    2    4    4    0    0  0.41081082101E+03 -0.23192591093E+03 -0.31151635915E+03  0.57307373785E+03  0.93893067807E+02 0.  0.
          4    1    3    3  502    0 -0.31081030761E+03  0.28356808992E+02 -0.43556096595E+02  0.31512583119E+03  0.00000000000E+00 0. -1.
         -3    1    3    3    0  502 -0.81912531592E+02  0.83676386220E+01 -0.56411964763E+02  0.99809768942E+02  0.00000000000E+00 0.  1.
         11    1    5    5    0    0  0.31872813328E+02  0.32788306765E+02 -0.25791363835E+03  0.26193585882E+03  0.00000000000E+00 0. -1.
        -11    1    5    5    0    0 -0.49960795128E+02  0.16241315655E+03 -0.10089981396E+04  0.10232064113E+04  0.00000000000E+00 0.  1.
          1    1    6    6  503    0  0.10396319847E+02 -0.22537104329E+02 -0.10610932894E+01  0.24842110556E+02  0.00000000000E+00 0. -1.
         -1    1    6    6    0  503  0.40041450116E+03 -0.20938880660E+03 -0.31045526586E+03  0.54823162730E+03  0.00000000000E+00 0.  1.
<mgrwt>
<rscale>  0 0.15330376E+04</rscale>
<asrwt>0</asrwt>
<pdfrwt beam="1">  1        2 0.30396522E+00 0.15330376E+04</pdfrwt>
<pdfrwt beam="2">  1       -1 0.45750415E-01 0.15330376E+04</pdfrwt>
<totfact> 0.35933947E+01</totfact>
</mgrwt>
</event>
<event>
12    6  0.1542110E-007  0.1751474E+04  0.7818608E-02  0.8732539E-01
         -1   -1    0    0    0  501 -0.00000000000E+00  0.00000000000E+00  0.38551354975E+03  0.38551354975E+03  0.00000000000E+00 0.  1.
          2   -1    0    0  501    0  0.00000000000E+00 -0.00000000000E+00 -0.19893350454E+04  0.19893350454E+04  0.00000000000E+00 0. -1.
         24    2    1    2    0    0  0.23309469636E+03 -0.55381618511E+03 -0.87976899880E+03  0.10684569879E+04  0.81002095502E+02 0.  0.
        254    2    1    2    0    0 -0.23309469636E+03  0.55381618511E+03 -0.72405249682E+03  0.13063916072E+04  0.90628996947E+03 0.  0.
         23    2    4    4    0    0  0.30998874164E+03  0.27997597455E+03 -0.48398433220E+03  0.64578635597E+03  0.91211937097E+02 0.  0.
         23    2    4    4    0    0 -0.54308343800E+03  0.27384021056E+03 -0.24006816462E+03  0.66060525119E+03  0.94013258060E+02 0.  0.
          4    1    3    3  502    0  0.19567570270E+03 -0.46428589409E+03 -0.78530021123E+03  0.93303097153E+03  0.00000000000E+00 0. -1.
         -3    1    3    3    0  502  0.37418993662E+02 -0.89530291021E+02 -0.94468787575E+02  0.13542601642E+03  0.00000000000E+00 0.  1.
         11    1    5    5    0    0  0.27176243960E+03  0.19878191960E+03 -0.40034317275E+03  0.52310967407E+03  0.00000000000E+00 0.  1.
        -11    1    5    5    0    0  0.38226302037E+02  0.81194054956E+02 -0.83641159458E+02  0.12267668190E+03  0.00000000000E+00 0. -1.
          1    1    6    6  503    0 -0.26936052827E+03  0.90340939391E+02 -0.13633248679E+03  0.31512398588E+03  0.00000000000E+00 0. -1.
         -1    1    6    6    0  503 -0.27372290973E+03  0.18349927117E+03 -0.10373567783E+03  0.34548126532E+03  0.00000000000E+00 0.  1.
<mgrwt>
<rscale>  0 0.17514744E+04</rscale>
<asrwt>0</asrwt>
<pdfrwt beam="1">  1        2 0.30605155E+00 0.17514744E+04</pdfrwt>
<pdfrwt beam="2">  1       -1 0.59309776E-01 0.17514744E+04</pdfrwt>
<totfact> 0.21068669E+01</totfact>
</mgrwt>
</event>
<event>
12    6  0.1542110E-007  0.1384078E+04  0.7818608E-02  0.8965425E-01
          2   -1    0    0  501    0  0.00000000000E+00  0.00000000000E+00  0.98336032977E+03  0.98336032977E+03  0.00000000000E+00 0. -1.
         -1   -1    0    0    0  501 -0.00000000000E+00 -0.00000000000E+00 -0.48702197365E+03  0.48702197365E+03  0.00000000000E+00 0.  1.
         24    2    1    2    0    0 -0.29098146946E+03  0.74203104523E+02 -0.14535095370E+03  0.34279900706E+03  0.78790502049E+02 0.  0.
        254    2    1    2    0    0  0.29098146946E+03 -0.74203104523E+02  0.64168930982E+03  0.11275832964E+04  0.87721297506E+03 0.  0.
         23    2    4    4    0    0  0.40875345841E+03 -0.38991884134E+03  0.45808554435E+03  0.73295954407E+03  0.90946328683E+02 0.  0.
         23    2    4    4    0    0 -0.11777198896E+03  0.31571573682E+03  0.18360376546E+03  0.39462375229E+03  0.92037466948E+02 0.  0.
          4    1    3    3  502    0 -0.18548113996E+03  0.35269974097E+02 -0.49877224507E+02  0.19528174999E+03  0.00000000000E+00 0. -1.
         -3    1    3    3    0  502 -0.10550032949E+03  0.38933130426E+02 -0.95473729192E+02  0.14751725707E+03  0.00000000000E+00 0.  1.
         11    1    5    5    0    0  0.99070092151E+02 -0.47780964766E+02  0.74124565078E+02  0.13263617493E+03  0.00000000000E+00 0.  1.
        -11    1    5    5    0    0  0.30968336626E+03 -0.34213787657E+03  0.38396097928E+03  0.60032336914E+03  0.00000000000E+00 0. -1.
          1    1    6    6  503    0 -0.15554989755E+02  0.15904567407E+03  0.61481046624E+02  0.17122325555E+03  0.00000000000E+00 0. -1.
         -1    1    6    6    0  503 -0.10221699920E+03  0.15667006274E+03  0.12212271884E+03  0.22340049674E+03  0.00000000000E+00 0.  1.
<mgrwt>
<rscale>  0 0.13840782E+04</rscale>
<asrwt>0</asrwt>
<pdfrwt beam="1">  1        2 0.15128620E+00 0.13840782E+04</pdfrwt>
<pdfrwt beam="2">  1       -1 0.74926457E-01 0.13840782E+04</pdfrwt>
<totfact> 0.51439718E+01</totfact>
</mgrwt>
</event>
<event>
12    6  0.1542110E-007  0.2041022E+04  0.7818608E-02  0.8587678E-01
         -1   -1    0    0    0  501 -0.00000000000E+00  0.00000000000E+00  0.11991280784E+04  0.11991280784E+04  0.00000000000E+00 0.  1.
          2   -1    0    0  501    0  0.00000000000E+00 -0.00000000000E+00 -0.86850007733E+03  0.86850007733E+03  0.00000000000E+00 0. -1.
         24    2    1    2    0    0  0.20981749943E+03  0.20349083486E+03  0.90814030809E+03  0.95723231759E+03  0.78377214356E+02 0.  0.
        254    2    1    2    0    0 -0.20981749943E+03 -0.20349083486E+03 -0.57751230699E+03  0.11103958382E+04  0.90223419895E+03 0.  0.
         23    2    4    4    0    0 -0.53883727033E+03 -0.23950098055E+03 -0.42569456070E+03  0.73308088062E+03  0.92116203467E+02 0.  0.
         23    2    4    4    0    0  0.32901977090E+03  0.36010145684E+02 -0.15181774629E+03  0.37731495755E+03  0.98829190354E+02 0.  0.
          4    1    3    3  502    0  0.48687460569E+02  0.11837200684E+02  0.11325823969E+03  0.12384674802E+03  0.00000000000E+00 0. -1.
         -3    1    3    3    0  502  0.16113003886E+03  0.19165363418E+03  0.79488206839E+03  0.83338556957E+03  0.00000000000E+00 0.  1.
         11    1    5    5    0    0 -0.52223553392E+03 -0.21929569592E+03 -0.42271826744E+03  0.70676112568E+03  0.00000000000E+00 0.  1.
        -11    1    5    5    0    0 -0.16601736410E+02 -0.20205284632E+02 -0.29762932603E+01  0.26319754946E+02  0.00000000000E+00 0. -1.
          1    1    6    6  503    0  0.25820077808E+02  0.32186496918E+02 -0.27550925456E+02  0.49615526757E+02  0.00000000000E+00 0. -1.
         -1    1    6    6    0  503  0.30319969309E+03  0.38236487659E+01 -0.12426682083E+03  0.32769943079E+03  0.00000000000E+00 0.  1.
<mgrwt>
<rscale>  0 0.20410221E+04</rscale>
<asrwt>0</asrwt>
<pdfrwt beam="1">  1        2 0.13361540E+00 0.20410221E+04</pdfrwt>
<pdfrwt beam="2">  1       -1 0.18448124E+00 0.20410221E+04</pdfrwt>
<totfact> 0.62929073E+00</totfact>
</mgrwt>
</event>
<event>
12    6  0.1542110E-007  0.1669879E+04  0.7818608E-02  0.8778732E-01
          2   -1    0    0  501    0  0.00000000000E+00  0.00000000000E+00  0.18825662706E+04  0.18825662706E+04  0.00000000000E+00 0. -1.
         -1   -1    0    0    0  501 -0.00000000000E+00 -0.00000000000E+00 -0.37030521300E+03  0.37030521300E+03  0.00000000000E+00 0.  1.
         24    2    1    2    0    0 -0.35029602810E+03 -0.10167867501E+03 -0.84134669482E+02  0.38291902704E+03  0.80637946453E+02 0.  0.
        254    2    1    2    0    0  0.35029602810E+03  0.10167867501E+03  0.15963957271E+04  0.18699524566E+04  0.90288261260E+03 0.  0.
         23    2    4    4    0    0  0.62782023658E+03  0.17874427992E+03  0.94413537018E+03  0.11510915635E+04  0.86674236180E+02 0.  0.
         23    2    4    4    0    0 -0.27752420848E+03 -0.77065604905E+02  0.65226035691E+03  0.71886089310E+03  0.91425470638E+02 0.  0.
          4    1    3    3  502    0 -0.19443228776E+03 -0.46843347799E+02 -0.58444556370E+01  0.20008091218E+03  0.00000000000E+00 0. -1.
         -3    1    3    3    0  502 -0.15586374034E+03 -0.54835327216E+02 -0.78290213845E+02  0.18283811486E+03  0.00000000000E+00 0.  1.
         11    1    5    5    0    0  0.98892866951E+01 -0.45210485547E+01  0.35088793217E+02  0.36735014370E+02  0.00000000000E+00 0. -1.
        -11    1    5    5    0    0  0.61793094988E+03  0.18326532847E+03  0.90904657696E+03  0.11143565491E+04  0.00000000000E+00 0.  1.
          4    1    6    6  503    0 -0.12664322616E+03 -0.81762296944E+02  0.30543830793E+03  0.34061142066E+03  0.00000000000E+00 0. -1.
         -4    1    6    6    0  503 -0.15088098232E+03  0.46966920390E+01  0.34682204898E+03  0.37824947244E+03  0.00000000000E+00 0.  1.
<mgrwt>
<rscale>  0 0.16698792E+04</rscale>
<asrwt>0</asrwt>
<pdfrwt beam="1">  1        2 0.28962557E+00 0.16698792E+04</pdfrwt>
<pdfrwt beam="2">  1       -1 0.56970034E-01 0.16698792E+04</pdfrwt>
<totfact> 0.26314054E+01</totfact>
</mgrwt>
</event>
<event>
12    6  0.1542110E-007  0.1875651E+04  0.7818608E-02  0.8667072E-01
          2   -1    0    0  501    0  0.00000000000E+00  0.00000000000E+00  0.23216390254E+04  0.23216390254E+04  0.00000000000E+00 0. -1.
         -1   -1    0    0    0  501 -0.00000000000E+00 -0.00000000000E+00 -0.37883431182E+03  0.37883431182E+03  0.00000000000E+00 0.  1.
         24    2    1    2    0    0 -0.49129636120E+03  0.16019401149E+03  0.22379155834E+02  0.52353922226E+03  0.80983052416E+02 0.  0.
        254    2    1    2    0    0  0.49129636120E+03 -0.16019401149E+03  0.19204255577E+04  0.21769341150E+04  0.88542282681E+03 0.  0.
         23    2    4    4    0    0  0.49822698978E+03  0.11278639620E+03  0.47536355820E+03  0.70360010278E+03  0.90175870719E+02 0.  0.
         23    2    4    4    0    0 -0.69306285734E+01 -0.27298040770E+03  0.14450619996E+04  0.14733340122E+04  0.89121222711E+02 0.  0.
          2    1    3    3  502    0 -0.84066681294E+02  0.87702913864E+01  0.27974712738E+02  0.89032069882E+02  0.00000000000E+00 0. -1.
         -1    1    3    3    0  502 -0.40722967991E+03  0.15142372010E+03 -0.55955569037E+01  0.43450715238E+03  0.00000000000E+00 0.  1.
         11    1    5    5    0    0  0.23645229477E+03  0.80006470644E+02  0.28134457903E+03  0.37611899074E+03  0.00000000000E+00 0.  1.
        -11    1    5    5    0    0  0.26177469500E+03  0.32779925561E+02  0.19401897917E+03  0.32748111204E+03  0.00000000000E+00 0. -1.
          4    1    6    6  503    0  0.10682764406E+02 -0.73303027482E+02  0.22408198722E+03  0.23600888181E+03  0.00000000000E+00 0. -1.
         -4    1    6    6    0  503 -0.17613392979E+02 -0.19967738021E+03  0.12209800123E+04  0.12373251304E+04  0.00000000000E+00 0.  1.
<mgrwt>
<rscale>  0 0.18756508E+04</rscale>
<asrwt>0</asrwt>
<pdfrwt beam="1">  1        2 0.35717523E+00 0.18756508E+04</pdfrwt>
<pdfrwt beam="2">  1       -1 0.58282203E-01 0.18756508E+04</pdfrwt>
<totfact> 0.14051038E+01</totfact>
</mgrwt>
</event>
<event>
12    6  0.1542110E-007  0.1335425E+04  0.7818608E-02  0.9001935E-01
         -1   -1    0    0    0  501 -0.00000000000E+00  0.00000000000E+00  0.43393764903E+03  0.43393764903E+03  0.00000000000E+00 0.  1.
          2   -1    0    0  501    0  0.00000000000E+00 -0.00000000000E+00 -0.10274290335E+04  0.10274290335E+04  0.00000000000E+00 0. -1.
         24    2    1    2    0    0  0.48118994521E+01 -0.50805562770E+02 -0.55595591222E+03  0.56348584917E+03  0.76321466818E+02 0.  0.
        254    2    1    2    0    0 -0.48118994521E+01  0.50805562770E+02 -0.37535472231E+02  0.89788083333E+03  0.89564318766E+03 0.  0.
         23    2    4    4    0    0 -0.37555089618E+03  0.36590266885E+02 -0.24915089944E+03  0.46078881396E+03  0.88729009509E+02 0.  0.
         23    2    4    4    0    0  0.37073899672E+03  0.14215295886E+02  0.21161542721E+03  0.43709201937E+03  0.92837848092E+02 0.  0.
          4    1    3    3  502    0 -0.83300663011E+01 -0.29857235580E+02 -0.66111743564E+02  0.73017855064E+02  0.00000000000E+00 0. -1.
         -3    1    3    3    0  502  0.13141965753E+02 -0.20948327191E+02 -0.48984416865E+03  0.49046799410E+03  0.00000000000E+00 0.  1.
         11    1    5    5    0    0 -0.85193592948E+02  0.42400516911E+02 -0.82567377007E+02  0.12598858623E+03  0.00000000000E+00 0. -1.
        -11    1    5    5    0    0 -0.29035730323E+03 -0.58102500258E+01 -0.16658352244E+03  0.33480022773E+03  0.00000000000E+00 0.  1.
          4    1    6    6  503    0  0.18859141009E+03 -0.31422339540E+02  0.13616293050E+03  0.23472202074E+03  0.00000000000E+00 0. -1.
         -4    1    6    6    0  503  0.18214758664E+03  0.45637635426E+02  0.75452496712E+02  0.20236999863E+03  0.00000000000E+00 0.  1.
<mgrwt>
<rscale>  0 0.13354252E+04</rscale>
<asrwt>0</asrwt>
<pdfrwt beam="1">  1        2 0.15806600E+00 0.13354252E+04</pdfrwt>
<pdfrwt beam="2">  1       -1 0.66759638E-01 0.13354252E+04</pdfrwt>
<totfact> 0.61345145E+01</totfact>
</mgrwt>
</event>
<event>
12    6  0.1542110E-007  0.2136763E+04  0.7818608E-02  0.8545220E-01
          2   -1    0    0  501    0  0.00000000000E+00  0.00000000000E+00  0.74213707087E+03  0.74213707087E+03  0.00000000000E+00 0. -1.
         -1   -1    0    0    0  501 -0.00000000000E+00 -0.00000000000E+00 -0.15380428870E+04  0.15380428870E+04  0.00000000000E+00 0.  1.
         24    2    1    2    0    0 -0.23690577836E+02 -0.19164128112E+03 -0.12445691143E+04  0.12619823273E+04  0.79746411049E+02 0.  0.
        254    2    1    2    0    0  0.23690577836E+02  0.19164128112E+03  0.44866329817E+03  0.10181976306E+04  0.89338683428E+03 0.  0.
         23    2    4    4    0    0  0.31340620575E+03  0.23342961482E+02 -0.12262785051E+03  0.34966157670E+03  0.91963497362E+02 0.  0.
         23    2    4    4    0    0 -0.28971562791E+03  0.16829831964E+03  0.57129114867E+03  0.66853605387E+03  0.91144990624E+02 0.  0.
          2    1    3    3  502    0 -0.17309919917E+02 -0.35751577217E+02 -0.11451142485E+03  0.12120509487E+03  0.00000000000E+00 0. -1.
         -1    1    3    3    0  502 -0.63806579188E+01 -0.15588970390E+03 -0.11300576895E+04  0.11407772325E+04  0.00000000000E+00 0.  1.
         11    1    5    5    0    0  0.20923050574E+03 -0.28146483640E+02 -0.74319363551E+02  0.22381464848E+03  0.00000000000E+00 0. -1.
        -11    1    5    5    0    0  0.10417570001E+03  0.51489445122E+02 -0.48308486955E+02  0.12584692822E+03  0.00000000000E+00 0.  1.
          2    1    6    6  503    0 -0.28817812965E+03  0.14269612247E+03  0.53016666066E+03  0.62006895250E+03  0.00000000000E+00 0. -1.
         -2    1    6    6    0  503 -0.15374982653E+01  0.25602197168E+02  0.41124488016E+02  0.48467101372E+02  0.00000000000E+00 0.  1.
<mgrwt>
<rscale>  0 0.21367626E+04</rscale>
<asrwt>0</asrwt>
<pdfrwt beam="1">  1        2 0.11417493E+00 0.21367626E+04</pdfrwt>
<pdfrwt beam="2">  1       -1 0.23662198E+00 0.21367626E+04</pdfrwt>
<totfact> 0.34013202E+00</totfact>
</mgrwt>
</event>
<event>
12    6  0.1542110E-007  0.1482285E+04  0.7818608E-02  0.8896319E-01
         -1   -1    0    0    0  501 -0.00000000000E+00  0.00000000000E+00  0.12091154889E+03  0.12091154889E+03  0.00000000000E+00 0.  1.
          2   -1    0    0  501    0  0.00000000000E+00 -0.00000000000E+00 -0.45429257559E+04  0.45429257559E+04  0.00000000000E+00 0. -1.
         24    2    1    2    0    0  0.47467868121E+03 -0.19235901113E+03 -0.17076038976E+04  0.17841977069E+04  0.71613872729E+02 0.  0.
        254    2    1    2    0    0 -0.47467868121E+03  0.19235901113E+03 -0.27144103095E+04  0.28796395979E+04  0.81362094748E+03 0.  0.
         23    2    4    4    0    0  0.64919554467E+02 -0.19440820281E+03 -0.12341789646E+04  0.12547726749E+04  0.96164708323E+02 0.  0.
         23    2    4    4    0    0 -0.53959823568E+03  0.38676721394E+03 -0.14802313448E+04  0.16248669230E+04  0.91392283425E+02 0.  0.
          4    1    3    3  502    0  0.33679806487E+03 -0.11888798382E+03 -0.12820181005E+04  0.13308409745E+04  0.00000000000E+00 0. -1.
         -3    1    3    3    0  502  0.13788061634E+03 -0.73471027316E+02 -0.42558579705E+03  0.45335673246E+03  0.00000000000E+00 0.  1.
         11    1    5    5    0    0  0.34456350821E+02 -0.59048497400E+01 -0.16287864172E+03  0.16658799264E+03  0.00000000000E+00 0.  1.
        -11    1    5    5    0    0  0.30463203646E+02 -0.18850335307E+03 -0.10713003229E+04  0.10881846823E+04  0.00000000000E+00 0. -1.
          3    1    6    6  503    0 -0.51662946519E+03  0.37778641296E+03 -0.13731411619E+04  0.15149736726E+04  0.00000000000E+00 0. -1.
         -3    1    6    6    0  503 -0.22968770485E+02  0.89808009811E+01 -0.10709018291E+03  0.10989325039E+03  0.00000000000E+00 0.  1.
<mgrwt>
<rscale>  0 0.14822850E+04</rscale>
<asrwt>0</asrwt>
<pdfrwt beam="1">  1        2 0.69891151E+00 0.14822850E+04</pdfrwt>
<pdfrwt beam="2">  1       -1 0.18601781E-01 0.14822850E+04</pdfrwt>
<totfact> 0.29487197E+00</totfact>
</mgrwt>
</event>
<event>
12    6  0.1542110E-007  0.1351884E+04  0.7818608E-02  0.8989403E-01
         -1   -1    0    0    0  501 -0.00000000000E+00  0.00000000000E+00  0.65825512604E+03  0.65825512604E+03  0.00000000000E+00 0.  1.
          2   -1    0    0  501    0  0.00000000000E+00 -0.00000000000E+00 -0.69410460250E+03  0.69410460250E+03  0.00000000000E+00 0. -1.
         24    2    1    2    0    0 -0.27704438045E+03 -0.11811140419E+03 -0.26747593881E+03  0.41050936749E+03  0.79187564787E+02 0.  0.
        254    2    1    2    0    0  0.27704438045E+03  0.11811140419E+03  0.23162646236E+03  0.94185036104E+03  0.86181633310E+03 0.  0.
         23    2    4    4    0    0  0.56459012258E+03  0.18588026741E+03  0.11353583262E+03  0.61166479293E+03  0.89050285195E+02 0.  0.
         23    2    4    4    0    0 -0.28754574214E+03 -0.67768863227E+02  0.11809062973E+03  0.33018556811E+03  0.88328590567E+02 0.  0.
          4    1    3    3  502    0 -0.16781914395E+03 -0.43279228860E+02 -0.18972650438E+03  0.25696790303E+03  0.00000000000E+00 0. -1.
         -3    1    3    3    0  502 -0.10922523650E+03 -0.74832175326E+02 -0.77749434437E+02  0.15354146446E+03  0.00000000000E+00 0.  1.
         11    1    5    5    0    0  0.47599066408E+03  0.15858803630E+03  0.61821671449E+02  0.50550884919E+03  0.00000000000E+00 0.  1.
        -11    1    5    5    0    0  0.88599458501E+02  0.27292231114E+02  0.51714161173E+02  0.10615594374E+03  0.00000000000E+00 0. -1.
          3    1    6    6  503    0 -0.32189018943E+02 -0.25870051381E+02 -0.84179960626E+01  0.42145642203E+02  0.00000000000E+00 0. -1.
         -3    1    6    6    0  503 -0.25535672319E+03 -0.41898811846E+02  0.12650862580E+03  0.28803992590E+03  0.00000000000E+00 0.  1.
<mgrwt>
<rscale>  0 0.13518845E+04</rscale>
<asrwt>0</asrwt>
<pdfrwt beam="1">  1        2 0.10678532E+00 0.13518845E+04</pdfrwt>
<pdfrwt beam="2">  1       -1 0.10127002E+00 0.13518845E+04</pdfrwt>
<totfact> 0.42795649E+01</totfact>
</mgrwt>
</event>
<event>
12    6  0.1542110E-007  0.1656379E+04  0.7818608E-02  0.8786642E-01
         -1   -1    0    0    0  501 -0.00000000000E+00  0.00000000000E+00  0.85503509785E+03  0.85503509785E+03  0.00000000000E+00 0.  1.
          2   -1    0    0  501    0  0.00000000000E+00 -0.00000000000E+00 -0.80218664174E+03  0.80218664174E+03  0.00000000000E+00 0. -1.
         24    2    1    2    0    0  0.19474430427E+03 -0.15867284479E+03  0.53304466187E+03  0.59435533948E+03  0.77583775997E+02 0.  0.
        254    2    1    2    0    0 -0.19474430427E+03  0.15867284479E+03 -0.48019620577E+03  0.10628664001E+04  0.91432716942E+03 0.  0.
         23    2    4    4    0    0 -0.40682676139E+03  0.17239112044E+03  0.78598320496E+02  0.45794769436E+03  0.91168429857E+02 0.  0.
         23    2    4    4    0    0  0.21208245711E+03 -0.13718275650E+02 -0.55879452626E+03  0.60491870575E+03  0.92239678469E+02 0.  0.
          4    1    3    3  502    0  0.79846957139E+02 -0.82516214426E+02  0.16227273116E+03  0.19878858490E+03  0.00000000000E+00 0. -1.
         -3    1    3    3    0  502  0.11489734713E+03 -0.76156630360E+02  0.37077193071E+03  0.39556675458E+03  0.00000000000E+00 0.  1.
         11    1    5    5    0    0 -0.69555217634E+02  0.69438297416E+02  0.23245946395E+02  0.10099494775E+03  0.00000000000E+00 0.  1.
        -11    1    5    5    0    0 -0.33727154375E+03  0.10295282302E+03  0.55352374102E+02  0.35695274661E+03  0.00000000000E+00 0. -1.
          2    1    6    6  503    0  0.17896138442E+03  0.44789002010E+01 -0.35426128505E+03  0.39692353892E+03  0.00000000000E+00 0. -1.
         -2    1    6    6    0  503  0.33121072691E+02 -0.18197175851E+02 -0.20453324121E+03  0.20799516683E+03  0.00000000000E+00 0.  1.
<mgrwt>
<rscale>  0 0.16563789E+04</rscale>
<asrwt>0</asrwt>
<pdfrwt beam="1">  1        2 0.12341333E+00 0.16563789E+04</pdfrwt>
<pdfrwt beam="2">  1       -1 0.13154386E+00 0.16563789E+04</pdfrwt>
<totfact> 0.18415997E+01</totfact>
</mgrwt>
</event>
<event>
12    6  0.1542110E-007  0.1846949E+04  0.7818608E-02  0.8681724E-01
          2   -1    0    0  501    0  0.00000000000E+00  0.00000000000E+00  0.74143570331E+03  0.74143570331E+03  0.00000000000E+00 0. -1.
         -1   -1    0    0    0  501 -0.00000000000E+00 -0.00000000000E+00 -0.11502073728E+04  0.11502073728E+04  0.00000000000E+00 0.  1.
         24    2    1    2    0    0 -0.22436767657E+03 -0.37431046118E+03  0.40648409570E+03  0.59982093963E+03  0.64083257739E+02 0.  0.
        254    2    1    2    0    0  0.22436767657E+03  0.37431046118E+03 -0.81525576519E+03  0.12918221365E+04  0.90206058221E+03 0.  0.
         23    2    4    4    0    0  0.39470213007E+03 -0.15874005077E+03 -0.36829622751E+03  0.56987870600E+03  0.90174570478E+02 0.  0.
         23    2    4    4    0    0 -0.17033445349E+03  0.53305051195E+03 -0.44695953768E+03  0.72194343048E+03  0.90955011687E+02 0.  0.
          2    1    3    3  502    0 -0.22106489035E+03 -0.33479490454E+03  0.36411600894E+03  0.54179127145E+03  0.00000000000E+00 0. -1.
         -1    1    3    3    0  502 -0.33027862198E+01 -0.39515556647E+02  0.42368086762E+02  0.58029668187E+02  0.00000000000E+00 0.  1.
         11    1    5    5    0    0  0.38150676806E+02 -0.40581510317E+02 -0.25141191280E+02  0.61109840610E+02  0.00000000000E+00 0. -1.
        -11    1    5    5    0    0  0.35655145326E+03 -0.11815854045E+03 -0.34315503623E+03  0.50876886539E+03  0.00000000000E+00 0.  1.
          1    1    6    6  503    0 -0.53271599900E+02  0.63175153450E+02 -0.69252910074E+02  0.10781896365E+03  0.00000000000E+00 0. -1.
         -1    1    6    6    0  503 -0.11706285359E+03  0.46987535850E+03 -0.37770662761E+03  0.61412446683E+03  0.00000000000E+00 0.  1.
<mgrwt>
<rscale>  0 0.18469486E+04</rscale>
<asrwt>0</asrwt>
<pdfrwt beam="1">  1        2 0.11406703E+00 0.18469486E+04</pdfrwt>
<pdfrwt beam="2">  1       -1 0.17695498E+00 0.18469486E+04</pdfrwt>
<totfact> 0.89462780E+00</totfact>
</mgrwt>
</event>
<event>
12    6  0.1542110E-007  0.1328988E+04  0.7818608E-02  0.9006888E-01
          2   -1    0    0  501    0  0.00000000000E+00  0.00000000000E+00  0.41200988785E+04  0.41200988785E+04  0.00000000000E+00 0. -1.
         -1   -1    0    0    0  501 -0.00000000000E+00 -0.00000000000E+00 -0.10717023776E+03  0.10717023776E+03  0.00000000000E+00 0.  1.
         24    2    1    2    0    0  0.31725424923E+03 -0.76812652760E+02  0.15571180076E+04  0.15930547032E+04  0.81586491147E+02 0.  0.
        254    2    1    2    0    0 -0.31725424923E+03  0.76812652760E+02  0.24558106332E+04  0.26342144131E+04  0.89528166847E+03 0.  0.
         23    2    4    4    0    0  0.14626053626E+03  0.18809799605E+03  0.19071979223E+03  0.31774464012E+03  0.88400320120E+02 0.  0.
         23    2    4    4    0    0 -0.46351478548E+03 -0.11128534329E+03  0.22650908410E+04  0.23164697730E+04  0.90362090334E+02 0.  0.
          4    1    3    3  502    0  0.13864837774E+03 -0.33873106874E+02  0.87829032910E+03  0.88981158804E+03  0.00000000000E+00 0. -1.
         -3    1    3    3    0  502  0.17860587149E+03 -0.42939545886E+02  0.67882767846E+03  0.70324311513E+03  0.00000000000E+00 0.  1.
         11    1    5    5    0    0  0.43584039822E+02  0.12687858935E+03  0.11019798083E+03  0.17361261458E+03  0.00000000000E+00 0. -1.
        -11    1    5    5    0    0  0.10267649644E+03  0.61219406698E+02  0.80521811393E+02  0.14413202554E+03  0.00000000000E+00 0.  1.
          3    1    6    6  503    0 -0.24427145501E+03 -0.10371035262E+03  0.12881323135E+04  0.13151841080E+04  0.00000000000E+00 0. -1.
         -3    1    6    6    0  503 -0.21924333048E+03 -0.75749906704E+01  0.97695852749E+03  0.10012856650E+04  0.00000000000E+00 0.  1.
<mgrwt>
<rscale>  0 0.13289875E+04</rscale>
<asrwt>0</asrwt>
<pdfrwt beam="1">  1        2 0.63386124E+00 0.13289875E+04</pdfrwt>
<pdfrwt beam="2">  1       -1 0.16487732E-01 0.13289875E+04</pdfrwt>
<totfact> 0.88529515E+00</totfact>
</mgrwt>
</event>
<event>
12    6  0.1542110E-007  0.2849869E+04  0.7818608E-02  0.8287951E-01
         -1   -1    0    0    0  501 -0.00000000000E+00  0.00000000000E+00  0.67370705816E+03  0.67370705816E+03  0.00000000000E+00 0.  1.
          2   -1    0    0  501    0  0.00000000000E+00 -0.00000000000E+00 -0.30138306000E+04  0.30138306000E+04  0.00000000000E+00 0. -1.
         24    2    1    2    0    0 -0.81647609726E+03 -0.60627735725E+03 -0.59034935100E+02  0.10223490210E+04  0.86642633590E+02 0.  0.
        254    2    1    2    0    0  0.81647609726E+03  0.60627735725E+03 -0.22810886067E+04  0.26651886371E+04  0.93040839867E+03 0.  0.
         23    2    4    4    0    0  0.80288781868E+03  0.27098025752E+03 -0.89388473387E+03  0.12351347664E+04  0.92026215175E+02 0.  0.
         23    2    4    4    0    0  0.13588278579E+02  0.33529709973E+03 -0.13872038729E+04  0.14300538708E+04  0.90059435685E+02 0.  0.
          4    1    3    3  502    0 -0.37751614252E+03 -0.32945633096E+03 -0.46926027268E+02  0.50325139236E+03  0.00000000000E+00 0. -1.
         -3    1    3    3    0  502 -0.43895995473E+03 -0.27682102630E+03 -0.12108907832E+02  0.51909762869E+03  0.00000000000E+00 0.  1.
         11    1    5    5    0    0  0.60698908197E+03  0.18609471040E+03 -0.61496787339E+03  0.88388487496E+03  0.00000000000E+00 0.  1.
        -11    1    5    5    0    0  0.19589873671E+03  0.84885547125E+02 -0.27891686047E+03  0.35124989140E+03  0.00000000000E+00 0. -1.
          3    1    6    6  503    0 -0.12363370864E+02  0.31284665707E+03 -0.12434650498E+04  0.12822757947E+04  0.00000000000E+00 0. -1.
         -3    1    6    6    0  503  0.25951649443E+02  0.22450442659E+02 -0.14373882311E+03  0.14777807602E+03  0.00000000000E+00 0.  1.
<mgrwt>
<rscale>  0 0.28498694E+04</rscale>
<asrwt>0</asrwt>
<pdfrwt beam="1">  1        2 0.46366625E+00 0.28498694E+04</pdfrwt>
<pdfrwt beam="2">  1       -1 0.10364724E+00 0.28498694E+04</pdfrwt>
<totfact> 0.14741557E+00</totfact>
</mgrwt>
</event>
<event>
12    6  0.1542110E-007  0.2951856E+04  0.7818608E-02  0.8257614E-01
          2   -1    0    0  501    0  0.00000000000E+00  0.00000000000E+00  0.11494639187E+04  0.11494639187E+04  0.00000000000E+00 0. -1.
         -1   -1    0    0    0  501 -0.00000000000E+00 -0.00000000000E+00 -0.18951121651E+04  0.18951121651E+04  0.00000000000E+00 0.  1.
         24    2    1    2    0    0  0.93065420603E+03  0.17617269360E+03 -0.13096097710E+04  0.16182404150E+04  0.80437672261E+02 0.  0.
        254    2    1    2    0    0 -0.93065420603E+03 -0.17617269360E+03  0.56396152464E+03  0.14263356689E+04  0.90511146823E+03 0.  0.
         23    2    4    4    0    0 -0.82275051049E+03  0.24456755221E+03  0.41752535537E+03  0.95916421967E+03  0.94535114118E+02 0.  0.
         23    2    4    4    0    0 -0.10790369554E+03 -0.42074024581E+03  0.14643616926E+03  0.46717144923E+03  0.90222222037E+02 0.  0.
          4    1    3    3  502    0  0.12899660098E+03  0.51493572817E+02 -0.17519712958E+03  0.22357492104E+03  0.00000000000E+00 0. -1.
         -3    1    3    3    0  502  0.80165760505E+03  0.12467912078E+03 -0.11344126415E+04  0.13946654939E+04  0.00000000000E+00 0.  1.
         11    1    5    5    0    0 -0.28574154652E+03  0.10838989165E+03  0.10534384236E+03  0.32325520126E+03  0.00000000000E+00 0.  1.
        -11    1    5    5    0    0 -0.53700896397E+03  0.13617766056E+03  0.31218151301E+03  0.63590901841E+03  0.00000000000E+00 0. -1.
          4    1    6    6  503    0 -0.44766578652E+02 -0.32300053434E+03  0.92730804800E+02  0.33901680476E+03  0.00000000000E+00 0. -1.
         -4    1    6    6    0  503 -0.63137116890E+02 -0.97739711468E+02  0.53705364465E+02  0.12815464447E+03  0.00000000000E+00 0.  1.
<mgrwt>
<rscale>  0 0.29518557E+04</rscale>
<asrwt>0</asrwt>
<pdfrwt beam="1">  1        2 0.17684061E+00 0.29518557E+04</pdfrwt>
<pdfrwt beam="2">  1       -1 0.29155571E+00 0.29518557E+04</pdfrwt>
<totfact> 0.74521889E-01</totfact>
</mgrwt>
</event>
<event>
12    6  0.1542110E-007  0.2051902E+04  0.7818608E-02  0.8582732E-01
          2   -1    0    0  501    0  0.00000000000E+00  0.00000000000E+00  0.65267370832E+03  0.65267370832E+03  0.00000000000E+00 0. -1.
         -1   -1    0    0    0  501 -0.00000000000E+00 -0.00000000000E+00 -0.16127127439E+04  0.16127127439E+04  0.00000000000E+00 0.  1.
         24    2    1    2    0    0 -0.46899975200E+03 -0.53394588617E+03 -0.84640789460E+03  0.11082176382E+04  0.81737585684E+02 0.  0.
        254    2    1    2    0    0  0.46899975200E+03  0.53394588617E+03 -0.11363114094E+03  0.11571688139E+04  0.90612838552E+03 0.  0.
         23    2    4    4    0    0 -0.24688869947E+03  0.14509911936E+03 -0.14970784458E+03  0.33630805101E+03  0.93181983661E+02 0.  0.
         23    2    4    4    0    0  0.71588845147E+03  0.38884676681E+03  0.36076703642E+02  0.82086076293E+03  0.93876411142E+02 0.  0.
          2    1    3    3  502    0 -0.10601819999E+03 -0.90586359619E+02 -0.20752781078E+03  0.25002707758E+03  0.00000000000E+00 0. -1.
         -1    1    3    3    0  502 -0.36298155201E+03 -0.44335952655E+03 -0.63888008382E+03  0.85819056065E+03  0.00000000000E+00 0.  1.
         11    1    5    5    0    0 -0.20967637097E+02 -0.13517305764E+02 -0.15492695551E+02  0.29366357894E+02  0.00000000000E+00 0. -1.
        -11    1    5    5    0    0 -0.22592106238E+03  0.15861642512E+03 -0.13421514903E+03  0.30694169312E+03  0.00000000000E+00 0.  1.
          2    1    6    6  503    0  0.52783448524E+03  0.26766806840E+03  0.64580068589E+02  0.59533689950E+03  0.00000000000E+00 0.  1.
         -2    1    6    6    0  503  0.18805396623E+03  0.12117869841E+03 -0.28503364947E+02  0.22552386343E+03  0.00000000000E+00 0. -1.
<mgrwt>
<rscale>  0 0.20519018E+04</rscale>
<asrwt>0</asrwt>
<pdfrwt beam="1">  1        2 0.10041134E+00 0.20519018E+04</pdfrwt>
<pdfrwt beam="2">  1       -1 0.24810965E+00 0.20519018E+04</pdfrwt>
<totfact> 0.33892185E+00</totfact>
</mgrwt>
</event>
<event>
12    6  0.1542110E-007  0.1289772E+04  0.7818608E-02  0.9037716E-01
         -1   -1    0    0    0  501 -0.00000000000E+00  0.00000000000E+00  0.11164024702E+03  0.11164024702E+03  0.00000000000E+00 0.  1.
          2   -1    0    0  501    0  0.00000000000E+00 -0.00000000000E+00 -0.37251607733E+04  0.37251607733E+04  0.00000000000E+00 0. -1.
         24    2    1    2    0    0 -0.80248551120E+02  0.23837876093E+03 -0.35686902732E+03  0.44375873835E+03  0.79385461996E+02 0.  0.
        254    2    1    2    0    0  0.80248551120E+02 -0.23837876093E+03 -0.32566514990E+04  0.33930422820E+04  0.91852745087E+03 0.  0.
         23    2    4    4    0    0 -0.14798451892E+03 -0.12608048040E+02 -0.67534239410E+02  0.18613464619E+03  0.89592702308E+02 0.  0.
         23    2    4    4    0    0  0.22823307004E+03 -0.22577071289E+03 -0.31891172596E+04  0.32069076358E+04  0.10356128735E+03 0.  0.
          4    1    3    3  502    0  0.10533164389E+02  0.82727234701E+02 -0.12036635833E+03  0.14643361339E+03  0.00000000000E+00 0. -1.
         -3    1    3    3    0  502 -0.90781715509E+02  0.15565152623E+03 -0.23650266900E+03  0.29732512496E+03  0.00000000000E+00 0.  1.
         11    1    5    5    0    0 -0.14275774621E+03 -0.10005698648E+02 -0.27561671489E+02  0.14573789433E+03  0.00000000000E+00 0. -1.
        -11    1    5    5    0    0 -0.52267727109E+01 -0.26023493917E+01 -0.39972567921E+02  0.40396751869E+02  0.00000000000E+00 0.  1.
          3    1    6    6  503    0  0.22673863662E+03 -0.17932184706E+03 -0.26213004384E+04  0.26371922043E+04  0.00000000000E+00 0. -1.
         -3    1    6    6    0  503  0.14944334153E+01 -0.46448865827E+02 -0.56781682115E+03  0.56971543147E+03  0.00000000000E+00 0.  1.
<mgrwt>
<rscale>  0 0.12897719E+04</rscale>
<asrwt>0</asrwt>
<pdfrwt beam="1">  1        2 0.57310168E+00 0.12897719E+04</pdfrwt>
<pdfrwt beam="2">  1       -1 0.17175422E-01 0.12897719E+04</pdfrwt>
<totfact> 0.16903499E+01</totfact>
</mgrwt>
</event>
<event>
12    6  0.1542110E-007  0.1051119E+04  0.7818608E-02  0.9254189E-01
         -1   -1    0    0    0  501 -0.00000000000E+00  0.00000000000E+00  0.10376040875E+03  0.10376040875E+03  0.00000000000E+00 0.  1.
          2   -1    0    0  501    0  0.00000000000E+00 -0.00000000000E+00 -0.26620255024E+04  0.26620255024E+04  0.00000000000E+00 0. -1.
         24    2    1    2    0    0  0.67341468630E+02  0.67246771142E+02 -0.15577588210E+03  0.19916381665E+03  0.79643573450E+02 0.  0.
        254    2    1    2    0    0 -0.67341468630E+02 -0.67246771142E+02 -0.24024892116E+04  0.25666220945E+04  0.89807436368E+03 0.  0.
         23    2    4    4    0    0 -0.14008918656E+03  0.33982783031E+03 -0.56069753588E+03  0.67672537773E+03  0.92019430993E+02 0.  0.
         23    2    4    4    0    0  0.72747717929E+02 -0.40707460145E+03 -0.18417916757E+04  0.18898967168E+04  0.92255416290E+02 0.  0.
          2    1    3    3  502    0  0.41677500688E+02  0.83053770570E+01 -0.11606719487E+03  0.12360253669E+03  0.00000000000E+00 0. -1.
         -1    1    3    3    0  502  0.25663967941E+02  0.58941394085E+02 -0.39708687227E+02  0.75561279955E+02  0.00000000000E+00 0.  1.
         11    1    5    5    0    0 -0.36602045865E+02  0.62129555304E+02 -0.55399049826E+02  0.90933195948E+02  0.00000000000E+00 0.  1.
        -11    1    5    5    0    0 -0.10348714069E+03  0.27769827501E+03 -0.50529848605E+03  0.58579218178E+03  0.00000000000E+00 0. -1.
          1    1    6    6  503    0  0.62713435888E+02 -0.38547143867E+03 -0.16016395009E+04  0.16485661334E+04  0.00000000000E+00 0. -1.
         -1    1    6    6    0  503  0.10034282041E+02 -0.21603162787E+02 -0.24015217479E+03  0.24133058346E+03  0.00000000000E+00 0.  1.
<mgrwt>
<rscale>  0 0.10511191E+04</rscale>
<asrwt>0</asrwt>
<pdfrwt beam="1">  1        2 0.40954245E+00 0.10511191E+04</pdfrwt>
<pdfrwt beam="2">  1       -1 0.15963137E-01 0.10511191E+04</pdfrwt>
<totfact> 0.95569050E+01</totfact>
</mgrwt>
</event>
<event>
12    6  0.1542110E-007  0.1905713E+04  0.7818608E-02  0.8652018E-01
         -1   -1    0    0    0  501 -0.00000000000E+00  0.00000000000E+00  0.12929501653E+04  0.12929501653E+04  0.00000000000E+00 0.  1.
          2   -1    0    0  501    0  0.00000000000E+00 -0.00000000000E+00 -0.70222039755E+03  0.70222039755E+03  0.00000000000E+00 0. -1.
         24    2    1    2    0    0 -0.46499744973E+03  0.19886078909E+03 -0.32989844390E+03  0.60902971714E+03  0.79473085885E+02 0.  0.
        254    2    1    2    0    0  0.46499744973E+03 -0.19886078909E+03  0.92062821161E+03  0.13861408457E+04  0.90446774310E+03 0.  0.
         23    2    4    4    0    0  0.26489044358E+02 -0.89267421509E+02 -0.16279773661E+03  0.20868448956E+03  0.91519239085E+02 0.  0.
         23    2    4    4    0    0  0.43850840538E+03 -0.10959336758E+03  0.10834259482E+04  0.11774563561E+04  0.91056891389E+02 0.  0.
          4    1    3    3  502    0 -0.39575233896E+02 -0.30904019560E+01 -0.14574074155E+02  0.42286562401E+02  0.00000000000E+00 0. -1.
         -3    1    3    3    0  502 -0.42542221584E+03  0.20195119105E+03 -0.31532436974E+03  0.56674315474E+03  0.00000000000E+00 0.  1.
         11    1    5    5    0    0 -0.61565829603E+01 -0.95432632872E+02 -0.13457104898E+03  0.16508984873E+03  0.00000000000E+00 0.  1.
        -11    1    5    5    0    0  0.32645627318E+02  0.61652113631E+01 -0.28226687628E+02  0.43594640824E+02  0.00000000000E+00 0. -1.
          4    1    6    6  503    0  0.34923611937E+03 -0.81265875140E+02  0.75301233987E+03  0.83402493580E+03  0.00000000000E+00 0.  1.
         -4    1    6    6    0  503  0.89272286006E+02 -0.28327492441E+02  0.33041360835E+03  0.34343142032E+03  0.00000000000E+00 0. -1.
<mgrwt>
<rscale>  0 0.19057135E+04</rscale>
<asrwt>0</asrwt>
<pdfrwt beam="1">  1        2 0.10803391E+00 0.19057135E+04</pdfrwt>
<pdfrwt beam="2">  1       -1 0.19891541E+00 0.19057135E+04</pdfrwt>
<totfact> 0.66777079E+00</totfact>
</mgrwt>
</event>
<event>
12    6  0.1542110E-007  0.1740022E+04  0.7818608E-02  0.8738862E-01
          2   -1    0    0  501    0  0.00000000000E+00  0.00000000000E+00  0.83096212668E+03  0.83096212668E+03  0.00000000000E+00 0. -1.
         -1   -1    0    0    0  501 -0.00000000000E+00 -0.00000000000E+00 -0.91089516857E+03  0.91089516857E+03  0.00000000000E+00 0.  1.
         24    2    1    2    0    0  0.30728270409E+02 -0.54185801512E+03  0.29423832744E+03  0.62226001186E+03  0.77955075983E+02 0.  0.
        254    2    1    2    0    0 -0.30728270409E+02  0.54185801512E+03 -0.37417136933E+03  0.11195972834E+04  0.90495277679E+03 0.  0.
         23    2    4    4    0    0 -0.40119408966E+03  0.12379092300E+03 -0.34814661243E+03  0.55312410694E+03  0.91974582054E+02 0.  0.
         23    2    4    4    0    0  0.37046581925E+03  0.41806709212E+03 -0.26024756902E+02  0.56647317646E+03  0.90496159729E+02 0.  0.
          2    1    3    3  502    0  0.20753163871E+02 -0.26070570952E+03  0.18554552341E+03  0.32066384587E+03  0.00000000000E+00 0. -1.
         -1    1    3    3    0  502  0.99751065382E+01 -0.28115230560E+03  0.10869280403E+03  0.30159616599E+03  0.00000000000E+00 0.  1.
         11    1    5    5    0    0 -0.56658910573E+02  0.49778849634E+02 -0.82794673381E+02  0.11199608903E+03  0.00000000000E+00 0.  1.
        -11    1    5    5    0    0 -0.34453517908E+03  0.74012073361E+02 -0.26535193905E+03  0.44112801791E+03  0.00000000000E+00 0. -1.
          1    1    6    6  503    0  0.26209083309E+03  0.25473744963E+03 -0.50401646401E+02  0.36894864005E+03  0.00000000000E+00 0. -1.
         -1    1    6    6    0  503  0.10837498616E+03  0.16332964249E+03  0.24376889499E+02  0.19752453640E+03  0.00000000000E+00 0.  1.
<mgrwt>
<rscale>  0 0.17400223E+04</rscale>
<asrwt>0</asrwt>
<pdfrwt beam="1">  1        2 0.12784033E+00 0.17400223E+04</pdfrwt>
<pdfrwt beam="2">  1       -1 0.14013772E+00 0.17400223E+04</pdfrwt>
<totfact> 0.14818890E+01</totfact>
</mgrwt>
</event>
<event>
12    6  0.1542110E-007  0.2344061E+04  0.7818608E-02  0.8460748E-01
          2   -1    0    0  501    0  0.00000000000E+00  0.00000000000E+00  0.12262479777E+04  0.12262479777E+04  0.00000000000E+00 0. -1.
         -1   -1    0    0    0  501 -0.00000000000E+00 -0.00000000000E+00 -0.11202106484E+04  0.11202106484E+04  0.00000000000E+00 0.  1.
         24    2    1    2    0    0 -0.19028739518E+03 -0.60577211289E+03 -0.72428143727E+03  0.96641000030E+03  0.78711770390E+02 0.  0.
        254    2    1    2    0    0  0.19028739518E+03  0.60577211289E+03  0.83031876651E+03  0.13800486258E+04  0.90107480819E+03 0.  0.
         23    2    4    4    0    0  0.29898901526E+02  0.51891800463E+03  0.24441954399E+01  0.52716946016E+03  0.87930801154E+02 0.  0.
         23    2    4    4    0    0  0.16038849365E+03  0.86854108255E+02  0.82787457107E+03  0.85287916561E+03  0.93586648058E+02 0.  0.
          4    1    3    3  502    0 -0.15674087374E+03 -0.55694693823E+03 -0.63290874543E+03  0.85751447425E+03  0.00000000000E+00 0. -1.
         -3    1    3    3    0  502 -0.33546521435E+02 -0.48825174659E+02 -0.91372691838E+02  0.10889552605E+03  0.00000000000E+00 0.  1.
         11    1    5    5    0    0 -0.70724074657E+01  0.15019962703E+03 -0.35993575911E+02  0.15461398519E+03  0.00000000000E+00 0.  1.
        -11    1    5    5    0    0  0.36971308991E+02  0.36871837760E+03  0.38437771350E+02  0.37255547497E+03  0.00000000000E+00 0. -1.
          1    1    6    6  503    0  0.51129713045E+02  0.16165795081E+02  0.45086348437E+03  0.45404125586E+03  0.00000000000E+00 0. -1.
         -1    1    6    6    0  503  0.10925878061E+03  0.70688313174E+02  0.37701108670E+03  0.39883790975E+03  0.00000000000E+00 0.  1.
<mgrwt>
<rscale>  0 0.23440615E+04</rscale>
<asrwt>0</asrwt>
<pdfrwt beam="1">  1        2 0.18865354E+00 0.23440615E+04</pdfrwt>
<pdfrwt beam="2">  1       -1 0.17234010E+00 0.23440615E+04</pdfrwt>
<totfact> 0.44496313E+00</totfact>
</mgrwt>
</event>
<event>
12    6  0.1542110E-007  0.1881212E+04  0.7818608E-02  0.8664265E-01
          2   -1    0    0  501    0  0.00000000000E+00  0.00000000000E+00  0.70232492104E+03  0.70232492104E+03  0.00000000000E+00 0. -1.
         -1   -1    0    0    0  501 -0.00000000000E+00 -0.00000000000E+00 -0.12597301138E+04  0.12597301138E+04  0.00000000000E+00 0.  1.
         24    2    1    2    0    0  0.19859613370E+03 -0.53064566782E+03  0.24711232094E+03  0.62321338966E+03  0.79405168541E+02 0.  0.
        254    2    1    2    0    0 -0.19859613370E+03  0.53064566782E+03 -0.80451751366E+03  0.13388416451E+04  0.90786743078E+03 0.  0.
         23    2    4    4    0    0 -0.27859452187E+03  0.69329770251E+03 -0.32746729642E+03  0.82062140659E+03  0.88927221978E+02 0.  0.
         23    2    4    4    0    0  0.79998388163E+02 -0.16265203469E+03 -0.47705021723E+03  0.51822023854E+03  0.90110373291E+02 0.  0.
          2    1    3    3  502    0  0.77563271902E+02 -0.22390837129E+03  0.61508795332E+02  0.24481493375E+03  0.00000000000E+00 0. -1.
         -1    1    3    3    0  502  0.12103286180E+03 -0.30673729653E+03  0.18560352561E+03  0.37839845591E+03  0.00000000000E+00 0.  1.
         11    1    5    5    0    0 -0.19666958723E+03  0.55488950659E+03 -0.22685583584E+03  0.63090796581E+03  0.00000000000E+00 0. -1.
        -11    1    5    5    0    0 -0.81924934640E+02  0.13840819592E+03 -0.10061146058E+03  0.18971344078E+03  0.00000000000E+00 0.  1.
          4    1    6    6  503    0  0.81562467692E+02 -0.17070927056E+03 -0.47218860057E+03  0.50868080925E+03  0.00000000000E+00 0. -1.
         -4    1    6    6    0  503 -0.15640795295E+01  0.80572358711E+01 -0.48616166673E+01  0.95394292951E+01  0.00000000000E+00 0.  1.
<mgrwt>
<rscale>  0 0.18812122E+04</rscale>
<asrwt>0</asrwt>
<pdfrwt beam="1">  1        2 0.10804999E+00 0.18812122E+04</pdfrwt>
<pdfrwt beam="2">  1       -1 0.19380463E+00 0.18812122E+04</pdfrwt>
<totfact> 0.72601120E+00</totfact>
</mgrwt>
</event>
<event>
12    6  0.1542110E-007  0.1473304E+04  0.7818608E-02  0.8902402E-01
          2   -1    0    0  501    0  0.00000000000E+00  0.00000000000E+00  0.11824696642E+04  0.11824696642E+04  0.00000000000E+00 0. -1.
         -1   -1    0    0    0  501 -0.00000000000E+00 -0.00000000000E+00 -0.45891759377E+03  0.45891759377E+03  0.00000000000E+00 0.  1.
         24    2    1    2    0    0  0.20609346776E+03  0.28212574586E+03  0.54944390508E+03  0.65606783870E+03  0.80417350189E+02 0.  0.
        254    2    1    2    0    0 -0.20609346776E+03 -0.28212574586E+03  0.17410816538E+03  0.98531941930E+03  0.90469400952E+03 0.  0.
         23    2    4    4    0    0 -0.40897761574E+03  0.72713322970E+02  0.33104900116E+03  0.53795085491E+03  0.85133798314E+02 0.  0.
         23    2    4    4    0    0  0.20288414798E+03 -0.35483906883E+03 -0.15694083578E+03  0.44736856439E+03  0.91844783190E+02 0.  0.
          2    1    3    3  502    0  0.80646237992E+02  0.17748686697E+03  0.31011172623E+03  0.36629863008E+03  0.00000000000E+00 0. -1.
         -1    1    3    3    0  502  0.12544722977E+03  0.10463887889E+03  0.23933217885E+03  0.28976920862E+03  0.00000000000E+00 0.  1.
         11    1    5    5    0    0 -0.10664617619E+03  0.55045073641E+02  0.11232078049E+03  0.16437556010E+03  0.00000000000E+00 0. -1.
        -11    1    5    5    0    0 -0.30233143955E+03  0.17668249329E+02  0.21872822067E+03  0.37357529481E+03  0.00000000000E+00 0.  1.
          3    1    6    6  503    0  0.13020260820E+03 -0.30253995738E+03 -0.12547159112E+03  0.35245746576E+03  0.00000000000E+00 0. -1.
         -3    1    6    6    0  503  0.72681539778E+02 -0.52299111449E+02 -0.31469244667E+02  0.94911098628E+02  0.00000000000E+00 0.  1.
<mgrwt>
<rscale>  0 0.14733040E+04</rscale>
<asrwt>0</asrwt>
<pdfrwt beam="1">  1        2 0.18191841E+00 0.14733040E+04</pdfrwt>
<pdfrwt beam="2">  1       -1 0.70602707E-01 0.14733040E+04</pdfrwt>
<totfact> 0.43428874E+01</totfact>
</mgrwt>
</event>
<event>
12    6  0.1542110E-007  0.2288886E+04  0.7818608E-02  0.8482316E-01
          2   -1    0    0  501    0  0.00000000000E+00  0.00000000000E+00  0.14662246726E+04  0.14662246726E+04  0.00000000000E+00 0. -1.
         -1   -1    0    0    0  501 -0.00000000000E+00 -0.00000000000E+00 -0.89328067044E+03  0.89328067044E+03  0.00000000000E+00 0.  1.
         24    2    1    2    0    0 -0.60430364254E+03  0.72714744351E+03  0.46404718345E+02  0.95198032013E+03  0.10092985202E+03 0.  0.
        254    2    1    2    0    0  0.60430364254E+03 -0.72714744351E+03  0.52653928378E+03  0.14075250229E+04  0.89997598618E+03 0.  0.
         23    2    4    4    0    0  0.26302248230E+03 -0.73660314870E+03  0.66288174972E+03  0.10291643683E+04  0.89454223166E+02 0.  0.
         23    2    4    4    0    0  0.34128116025E+03  0.94557051927E+01 -0.13634246594E+03  0.37836065456E+03  0.89472209104E+02 0.  0.
          2    1    3    3  502    0 -0.24850677181E+03  0.27848907884E+03  0.65984260633E+02  0.37903259137E+03  0.00000000000E+00 0. -1.
         -1    1    3    3    0  502 -0.35579687074E+03  0.44865836467E+03 -0.19579542288E+02  0.57294772876E+03  0.00000000000E+00 0.  1.
         11    1    5    5    0    0  0.25101085531E+03 -0.60584473740E+03  0.54450151169E+03  0.85237092369E+03  0.00000000000E+00 0.  1.
        -11    1    5    5    0    0  0.12011626984E+02 -0.13075841130E+03  0.11838023803E+03  0.17679344463E+03  0.00000000000E+00 0. -1.
          4    1    6    6  503    0  0.27341983135E+03  0.36940802918E+02 -0.84168925271E+02  0.28845698999E+03  0.00000000000E+00 0.  1.
         -4    1    6    6    0  503  0.67861328896E+02 -0.27485097725E+02 -0.52173540670E+02  0.89903664567E+02  0.00000000000E+00 0. -1.
<mgrwt>
<rscale>  0 0.22888863E+04</rscale>
<asrwt>0</asrwt>
<pdfrwt beam="1">  1        2 0.22557303E+00 0.22888863E+04</pdfrwt>
<pdfrwt beam="2">  1       -1 0.13742780E+00 0.22888863E+04</pdfrwt>
<totfact> 0.60334237E+00</totfact>
</mgrwt>
</event>
<event>
12    6  0.1542110E-007  0.1110557E+04  0.7818608E-02  0.9194963E-01
          2   -1    0    0  501    0  0.00000000000E+00  0.00000000000E+00  0.74941976147E+03  0.74941976147E+03  0.00000000000E+00 0. -1.
         -1   -1    0    0    0  501 -0.00000000000E+00 -0.00000000000E+00 -0.41143025190E+03  0.41143025190E+03  0.00000000000E+00 0.  1.
         24    2    1    2    0    0  0.47554969100E+02  0.17731888828E+03  0.35218740416E+02  0.20093908127E+03  0.73706793968E+02 0.  0.
        254    2    1    2    0    0 -0.47554969100E+02 -0.17731888828E+03  0.30277076915E+03  0.95991093211E+03  0.89221936523E+03 0.  0.
         23    2    4    4    0    0 -0.36842090847E+03 -0.34531715908E+03  0.28256554601E+03  0.58567758753E+03  0.90537520319E+02 0.  0.
         23    2    4    4    0    0  0.32086593937E+03  0.16799827081E+03  0.20205223146E+02  0.37423334458E+03  0.91999864721E+02 0.  0.
          2    1    3    3  502    0  0.30487435288E+02  0.24629839878E+02 -0.10620362512E+02  0.40606709085E+02  0.00000000000E+00 0. -1.
         -1    1    3    3    0  502  0.17067533812E+02  0.15268904840E+03  0.45839102927E+02  0.16033237218E+03  0.00000000000E+00 0.  1.
         11    1    5    5    0    0 -0.15258163029E+03 -0.17326145288E+03  0.17388698175E+03  0.28902831587E+03  0.00000000000E+00 0. -1.
        -11    1    5    5    0    0 -0.21583927818E+03 -0.17205570621E+03  0.10867856426E+03  0.29664927166E+03  0.00000000000E+00 0.  1.
          2    1    6    6  503    0  0.80996275448E+02  0.65340105180E+02 -0.30488473242E+02  0.10844018158E+03  0.00000000000E+00 0. -1.
         -2    1    6    6    0  503  0.23986966392E+03  0.10265816563E+03  0.50693696388E+02  0.26579316299E+03  0.00000000000E+00 0.  1.
<mgrwt>
<rscale>  0 0.11105565E+04</rscale>
<asrwt>0</asrwt>
<pdfrwt beam="1">  1        2 0.11529535E+00 0.11105565E+04</pdfrwt>
<pdfrwt beam="2">  1       -1 0.63296962E-01 0.11105565E+04</pdfrwt>
<totfact> 0.10767984E+02</totfact>
</mgrwt>
</event>
<event>
12    6  0.1542110E-007  0.1197299E+04  0.7818608E-02  0.9115224E-01
          2   -1    0    0  501    0  0.00000000000E+00  0.00000000000E+00  0.17509872382E+04  0.17509872382E+04  0.00000000000E+00 0. -1.
         -1   -1    0    0    0  501 -0.00000000000E+00 -0.00000000000E+00 -0.20467392911E+03  0.20467392911E+03  0.00000000000E+00 0.  1.
         24    2    1    2    0    0 -0.44277973232E+02 -0.23424888323E+03  0.21638951212E+03  0.33189921156E+03  0.80620019054E+02 0.  0.
        254    2    1    2    0    0  0.44277973232E+02  0.23424888323E+03  0.13299237970E+04  0.16237619558E+04  0.90059563901E+03 0.  0.
         23    2    4    4    0    0  0.33601471622E+03  0.42453590820E+02  0.13489318980E+03  0.37558900276E+03  0.90347824800E+02 0.  0.
         23    2    4    4    0    0 -0.29173674299E+03  0.19179529241E+03  0.11950306072E+04  0.12481729530E+04  0.89116817288E+02 0.  0.
          4    1    3    3  502    0 -0.42480874122E+02 -0.74681547607E+02  0.11220796954E+03  0.14132440216E+03  0.00000000000E+00 0. -1.
         -3    1    3    3    0  502 -0.17970991101E+01 -0.15956733562E+03  0.10418154259E+03  0.19057480940E+03  0.00000000000E+00 0.  1.
         11    1    5    5    0    0  0.32152725267E+01 -0.75126563876E+01  0.17252834620E+02  0.19090266783E+02  0.00000000000E+00 0.  1.
        -11    1    5    5    0    0  0.33279944369E+03  0.49966247208E+02  0.11764035518E+03  0.35649873597E+03  0.00000000000E+00 0. -1.
          1    1    6    6  503    0 -0.13863202113E+03  0.10648276635E+03  0.44894787036E+03  0.48177962505E+03  0.00000000000E+00 0. -1.
         -1    1    6    6    0  503 -0.15310472186E+03  0.85312526055E+02  0.74608273681E+03  0.76639332795E+03  0.00000000000E+00 0.  1.
<mgrwt>
<rscale>  0 0.11972994E+04</rscale>
<asrwt>0</asrwt>
<pdfrwt beam="1">  1        2 0.26938264E+00 0.11972994E+04</pdfrwt>
<pdfrwt beam="2">  1       -1 0.31488298E-01 0.11972994E+04</pdfrwt>
<totfact> 0.96778666E+01</totfact>
</mgrwt>
</event>
<event>
12    6  0.1542110E-007  0.2960644E+04  0.7818608E-02  0.8255059E-01
         -1   -1    0    0    0  501 -0.00000000000E+00  0.00000000000E+00  0.13031318308E+04  0.13031318308E+04  0.00000000000E+00 0.  1.
          2   -1    0    0  501    0  0.00000000000E+00 -0.00000000000E+00 -0.16816048398E+04  0.16816048398E+04  0.00000000000E+00 0. -1.
         24    2    1    2    0    0 -0.62378701411E+03  0.11879509195E+04 -0.13634098094E+03  0.13507225944E+04  0.74330598625E+02 0.  0.
        254    2    1    2    0    0  0.62378701411E+03 -0.11879509195E+04 -0.24213202814E+03  0.16340140762E+04  0.90057562493E+03 0.  0.
         23    2    4    4    0    0  0.77656728642E+03 -0.67011924234E+03 -0.32561455298E+03  0.10798710828E+04  0.89331791887E+02 0.  0.
         23    2    4    4    0    0 -0.15278027231E+03 -0.51783167713E+03  0.83482524844E+02  0.55414299343E+03  0.92809847406E+02 0.  0.
          2    1    3    3  502    0 -0.23228495806E+03  0.47705693482E+03 -0.86671466920E+02  0.53763515880E+03  0.00000000000E+00 0. -1.
         -1    1    3    3    0  502 -0.39150205605E+03  0.71089398465E+03 -0.49669514019E+02  0.81308743559E+03  0.00000000000E+00 0.  1.
         11    1    5    5    0    0  0.57452265443E+03 -0.53403686419E+03 -0.22243389337E+03  0.81532109607E+03  0.00000000000E+00 0. -1.
        -11    1    5    5    0    0  0.20204463198E+03 -0.13608237815E+03 -0.10318065962E+03  0.26454998672E+03  0.00000000000E+00 0.  1.
          2    1    6    6  503    0 -0.56784068774E+02 -0.33780490213E+03  0.70387950731E+02  0.34970136685E+03  0.00000000000E+00 0. -1.
         -2    1    6    6    0  503 -0.95996203535E+02 -0.18002677500E+03  0.13094574112E+02  0.20444162659E+03  0.00000000000E+00 0.  1.
<mgrwt>
<rscale>  0 0.29606437E+04</rscale>
<asrwt>0</asrwt>
<pdfrwt beam="1">  1        2 0.25870844E+00 0.29606437E+04</pdfrwt>
<pdfrwt beam="2">  1       -1 0.20048182E+00 0.29606437E+04</pdfrwt>
<totfact> 0.14660351E+00</totfact>
</mgrwt>
</event>
<event>
12    6  0.1542110E-007  0.1817267E+04  0.7818608E-02  0.8697171E-01
         -1   -1    0    0    0  501 -0.00000000000E+00  0.00000000000E+00  0.53416936260E+03  0.53416936260E+03  0.00000000000E+00 0.  1.
          2   -1    0    0  501    0  0.00000000000E+00 -0.00000000000E+00 -0.15456044305E+04  0.15456044305E+04  0.00000000000E+00 0. -1.
         24    2    1    2    0    0  0.42742459870E+03 -0.41102384998E+03  0.58337376465E+01  0.59749918482E+03  0.73067438265E+02 0.  0.
        254    2    1    2    0    0 -0.42742459870E+03  0.41102384998E+03 -0.10172688056E+04  0.14822746083E+04  0.90037203357E+03 0.  0.
         23    2    4    4    0    0 -0.60197120029E+03  0.49506751628E+03 -0.99474661538E+03  0.12670024653E+04  0.91177006888E+02 0.  0.
         23    2    4    4    0    0  0.17454660158E+03 -0.84043666306E+02 -0.22522190184E+02  0.21527214302E+03  0.91131731786E+02 0.  0.
          4    1    3    3  502    0  0.12536671679E+03 -0.15321391479E+03  0.27074329582E+02  0.19981075218E+03  0.00000000000E+00 0. -1.
         -3    1    3    3    0  502  0.30205788192E+03 -0.25780993519E+03 -0.21240591936E+02  0.39768843264E+03  0.00000000000E+00 0.  1.
         11    1    5    5    0    0 -0.11010485728E+03  0.66400036516E+02 -0.21256387618E+03  0.24842593646E+03  0.00000000000E+00 0.  1.
        -11    1    5    5    0    0 -0.49186634300E+03  0.42866747977E+03 -0.78218273920E+03  0.10185765288E+04  0.00000000000E+00 0. -1.
          1    1    6    6  503    0  0.10550864891E+03 -0.78564214295E+02  0.21382654957E+02  0.13327276051E+03  0.00000000000E+00 0. -1.
         -1    1    6    6    0  503  0.69037952678E+02 -0.54794520105E+01 -0.43904845141E+02  0.81999382505E+02  0.00000000000E+00 0.  1.
<mgrwt>
<rscale>  0 0.18172667E+04</rscale>
<asrwt>0</asrwt>
<pdfrwt beam="1">  1        2 0.23778529E+00 0.18172667E+04</pdfrwt>
<pdfrwt beam="2">  1       -1 0.82179904E-01 0.18172667E+04</pdfrwt>
<totfact> 0.18924870E+01</totfact>
</mgrwt>
</event>
<event>
12    6  0.1542110E-007  0.3606714E+04  0.7818608E-02  0.8088956E-01
          2   -1    0    0  501    0  0.00000000000E+00  0.00000000000E+00  0.26156799982E+04  0.26156799982E+04  0.00000000000E+00 0. -1.
         -1   -1    0    0    0  501 -0.00000000000E+00 -0.00000000000E+00 -0.12433081069E+04  0.12433081069E+04  0.00000000000E+00 0.  1.
         24    2    1    2    0    0  0.76234967360E+03  0.10214227945E+04  0.18341108710E+04  0.22347811126E+04  0.76173383826E+02 0.  0.
        254    2    1    2    0    0 -0.76234967360E+03 -0.10214227945E+04 -0.46173897967E+03  0.16242069925E+04  0.89463060479E+03 0.  0.
         23    2    4    4    0    0 -0.32381484058E+03 -0.82158215097E+03 -0.64808285249E+03  0.10992917971E+04  0.92616357476E+02 0.  0.
         23    2    4    4    0    0 -0.43853483302E+03 -0.19984064356E+03  0.18634387282E+03  0.52491519538E+03  0.92535619177E+02 0.  0.
          4    1    3    3  502    0  0.72717287007E+03  0.94432298460E+03  0.17017008426E+04  0.20775735943E+04  0.00000000000E+00 0. -1.
         -1    1    3    3    0  502  0.35176803533E+02  0.77099809933E+02  0.13241002835E+03  0.15720751829E+03  0.00000000000E+00 0.  1.
         11    1    5    5    0    0 -0.13345043073E+03 -0.34269930231E+03 -0.32698520277E+03  0.49210888236E+03  0.00000000000E+00 0.  1.
        -11    1    5    5    0    0 -0.19036440984E+03 -0.47888284866E+03 -0.32109764972E+03  0.60718291473E+03  0.00000000000E+00 0. -1.
          4    1    6    6  503    0 -0.37618292957E+03 -0.13635515580E+03  0.16847603301E+03  0.43415492478E+03  0.00000000000E+00 0. -1.
         -4    1    6    6    0  503 -0.62351903447E+02 -0.63485487763E+02  0.17867839810E+02  0.90760270600E+02  0.00000000000E+00 0.  1.
<mgrwt>
<rscale>  0 0.36067138E+04</rscale>
<asrwt>0</asrwt>
<pdfrwt beam="1">  1        2 0.40241231E+00 0.36067138E+04</pdfrwt>
<pdfrwt beam="2">  1       -1 0.19127817E+00 0.36067138E+04</pdfrwt>
<totfact> 0.47718821E-01</totfact>
</mgrwt>
</event>
<event>
12    6  0.1542110E-007  0.1411848E+04  0.7818608E-02  0.8945287E-01
          2   -1    0    0  501    0  0.00000000000E+00  0.00000000000E+00  0.23849661945E+04  0.23849661945E+04  0.00000000000E+00 0. -1.
         -1   -1    0    0    0  501 -0.00000000000E+00 -0.00000000000E+00 -0.20894566926E+03  0.20894566926E+03  0.00000000000E+00 0.  1.
         24    2    1    2    0    0 -0.30653831854E+03 -0.22551457220E+03  0.95760230149E+03  0.10335314745E+04  0.79765768913E+02 0.  0.
        254    2    1    2    0    0  0.30653831854E+03  0.22551457220E+03  0.12184182238E+04  0.15603803893E+04  0.89745274436E+03 0.  0.
         23    2    4    4    0    0  0.35214104084E+03  0.10656931008E+03  0.13205351403E+04  0.13740040817E+04  0.93347893662E+02 0.  0.
         23    2    4    4    0    0 -0.45602722304E+02  0.11894526212E+03 -0.10211691654E+03  0.18637630762E+03  0.89892601121E+02 0.  0.
          4    1    3    3  502    0 -0.27331734696E+03 -0.21924981409E+03  0.91016001805E+03  0.97527642830E+03  0.00000000000E+00 0. -1.
         -3    1    3    3    0  502 -0.33220971575E+02 -0.62647581054E+01  0.47442283434E+02  0.58255046168E+02  0.00000000000E+00 0.  1.
         11    1    5    5    0    0  0.30529580749E+03  0.12012280207E+03  0.10869821503E+04  0.11354141151E+04  0.00000000000E+00 0. -1.
        -11    1    5    5    0    0  0.46845233355E+02 -0.13553491986E+02  0.23355298997E+03  0.23858996659E+03  0.00000000000E+00 0.  1.
          2    1    6    6  503    0 -0.72350455050E+02  0.83852578465E+02 -0.82427742818E+02  0.13805859643E+03  0.00000000000E+00 0. -1.
         -2    1    6    6    0  503  0.26747732746E+02  0.35092683652E+02 -0.19689173718E+02  0.48317711190E+02  0.00000000000E+00 0.  1.
<mgrwt>
<rscale>  0 0.14118475E+04</rscale>
<asrwt>0</asrwt>
<pdfrwt beam="1">  1        2 0.36691786E+00 0.14118475E+04</pdfrwt>
<pdfrwt beam="2">  1       -1 0.32145489E-01 0.14118475E+04</pdfrwt>
<totfact> 0.40675248E+01</totfact>
</mgrwt>
</event>
<event>
12    6  0.1542110E-007  0.2071103E+04  0.7818608E-02  0.8574081E-01
          2   -1    0    0  501    0  0.00000000000E+00  0.00000000000E+00  0.12336858540E+04  0.12336858540E+04  0.00000000000E+00 0. -1.
         -1   -1    0    0    0  501 -0.00000000000E+00 -0.00000000000E+00 -0.86923812562E+03  0.86923812562E+03  0.00000000000E+00 0.  1.
         24    2    1    2    0    0 -0.34798900006E+03 -0.74305957303E+03  0.30056880931E+03  0.87708948522E+03  0.75567735989E+02 0.  0.
        254    2    1    2    0    0  0.34798900006E+03  0.74305957303E+03  0.63878919065E+02  0.12258344944E+04  0.90849095655E+03 0.  0.
         23    2    4    4    0    0 -0.94194336856E+02 -0.10235707293E+03  0.19804205776E+03  0.25829478954E+03  0.90255183723E+02 0.  0.
         23    2    4    4    0    0  0.44218333691E+03  0.84541664596E+03 -0.13416313869E+03  0.96753970486E+03  0.88757670043E+02 0.  0.
          4    1    3    3  502    0 -0.12968595575E+03 -0.25639757810E+03  0.14283391783E+03  0.32087332899E+03  0.00000000000E+00 0. -1.
         -3    1    3    3    0  502 -0.21830304430E+03 -0.48666199493E+03  0.15773489148E+03  0.55621615623E+03  0.00000000000E+00 0.  1.
         11    1    5    5    0    0 -0.10429509874E+03 -0.68632741549E+02  0.17908640007E+03  0.21831138203E+03  0.00000000000E+00 0.  1.
        -11    1    5    5    0    0  0.10100761888E+02 -0.33724331380E+02  0.18955657690E+02  0.39983407511E+02  0.00000000000E+00 0. -1.
          1    1    6    6  503    0  0.84466233027E+02  0.19207939815E+03 -0.64059606695E+02  0.21939159721E+03  0.00000000000E+00 0. -1.
         -1    1    6    6    0  503  0.35771710388E+03  0.65333724781E+03 -0.70103531996E+02  0.74814810765E+03  0.00000000000E+00 0.  1.
<mgrwt>
<rscale>  0 0.20711029E+04</rscale>
<asrwt>0</asrwt>
<pdfrwt beam="1">  1        2 0.18979782E+00 0.20711029E+04</pdfrwt>
<pdfrwt beam="2">  1       -1 0.13372894E+00 0.20711029E+04</pdfrwt>
<totfact> 0.89888326E+00</totfact>
</mgrwt>
</event>
<event>
12    6  0.1542110E-007  0.1310853E+04  0.7818608E-02  0.9021002E-01
          2   -1    0    0  501    0  0.00000000000E+00  0.00000000000E+00  0.99214641326E+03  0.99214641326E+03  0.00000000000E+00 0. -1.
         -1   -1    0    0    0  501 -0.00000000000E+00 -0.00000000000E+00 -0.43298457319E+03  0.43298457319E+03  0.00000000000E+00 0.  1.
         24    2    1    2    0    0 -0.11157754608E+03  0.29985808472E+03  0.44316685756E+02  0.33248419827E+03  0.78850197839E+02 0.  0.
        254    2    1    2    0    0  0.11157754608E+03 -0.29985808472E+03  0.51484515431E+03  0.10926467882E+04  0.90909133261E+03 0.  0.
         23    2    4    4    0    0  0.27185988569E+03  0.16191355317E+03 -0.60888247800E+02  0.33179956925E+03  0.79118766993E+02 0.  0.
         23    2    4    4    0    0 -0.16028233961E+03 -0.46177163790E+03  0.57573340212E+03  0.76084721892E+03  0.92174108465E+02 0.  0.
          2    1    3    3  502    0  0.53184593689E+01  0.82747164023E+02  0.95913944128E+01  0.83470797353E+02  0.00000000000E+00 0. -1.
         -1    1    3    3    0  502 -0.11689600545E+03  0.21711092070E+03  0.34725291343E+02  0.24901340092E+03  0.00000000000E+00 0.  1.
         11    1    5    5    0    0  0.26713748321E+03  0.16421730977E+03 -0.69988460634E+02  0.32129136992E+03  0.00000000000E+00 0. -1.
        -11    1    5    5    0    0  0.47224024749E+01 -0.23037565964E+01  0.91002128333E+01  0.10508199332E+02  0.00000000000E+00 0.  1.
          3    1    6    6  503    0 -0.14288550711E+03 -0.32766254091E+03  0.46202315423E+03  0.58416128244E+03  0.00000000000E+00 0. -1.
         -3    1    6    6    0  503 -0.17396832493E+02 -0.13410909698E+03  0.11371024788E+03  0.17668593648E+03  0.00000000000E+00 0.  1.
<mgrwt>
<rscale>  0 0.13108533E+04</rscale>
<asrwt>0</asrwt>
<pdfrwt beam="1">  1        2 0.15263791E+00 0.13108533E+04</pdfrwt>
<pdfrwt beam="2">  1       -1 0.66613012E-01 0.13108533E+04</pdfrwt>
<totfact> 0.65031277E+01</totfact>
</mgrwt>
</event>
<event>
12    6  0.1542110E-007  0.2636607E+04  0.7818608E-02  0.8355872E-01
         -1   -1    0    0    0  501 -0.00000000000E+00  0.00000000000E+00  0.10022663365E+04  0.10022663365E+04  0.00000000000E+00 0.  1.
          2   -1    0    0  501    0  0.00000000000E+00 -0.00000000000E+00 -0.17339946821E+04  0.17339946821E+04  0.00000000000E+00 0. -1.
         24    2    1    2    0    0 -0.47941687596E+03  0.89224716439E+03  0.26453307996E+03  0.10497880475E+04  0.78304858575E+02 0.  0.
        254    2    1    2    0    0  0.47941687596E+03 -0.89224716439E+03 -0.99626142555E+03  0.16864729712E+04  0.90868515513E+03 0.  0.
         23    2    4    4    0    0  0.35325097461E+03 -0.10289137064E+04 -0.99861271574E+03  0.14794189718E+04  0.89462125459E+02 0.  0.
         23    2    4    4    0    0  0.12616590135E+03  0.13666654201E+03  0.23512901858E+01  0.20705399935E+03  0.90940924301E+02 0.  0.
          4    1    3    3  502    0 -0.11548929133E+03  0.24605290991E+03  0.38769923725E+02  0.27455949787E+03  0.00000000000E+00 0. -1.
         -3    1    3    3    0  502 -0.36392758463E+03  0.64619425448E+03  0.22576315624E+03  0.77522854959E+03  0.00000000000E+00 0.  1.
         11    1    5    5    0    0  0.35594089339E+03 -0.98247518803E+03 -0.95903258072E+03  0.14183423090E+04  0.00000000000E+00 0. -1.
        -11    1    5    5    0    0 -0.26899187783E+01 -0.46438518373E+02 -0.39580135014E+02  0.61076662805E+02  0.00000000000E+00 0.  1.
          4    1    6    6  503    0  0.10910628442E+03  0.14258991264E+03 -0.17287553906E+02  0.18037439953E+03  0.00000000000E+00 0. -1.
         -4    1    6    6    0  503  0.17059616925E+02 -0.59233706248E+01  0.19638844092E+02  0.26679599818E+02  0.00000000000E+00 0.  1.
<mgrwt>
<rscale>  0 0.26366073E+04</rscale>
<asrwt>0</asrwt>
<pdfrwt beam="1">  1        2 0.26676841E+00 0.26366073E+04</pdfrwt>
<pdfrwt beam="2">  1       -1 0.15419482E+00 0.26366073E+04</pdfrwt>
<totfact> 0.30512086E+00</totfact>
</mgrwt>
</event>
<event>
12    6  0.1542110E-007  0.1638719E+04  0.7818608E-02  0.8797108E-01
          2   -1    0    0  501    0  0.00000000000E+00  0.00000000000E+00  0.36124246775E+04  0.36124246775E+04  0.00000000000E+00 0. -1.
         -3   -1    0    0    0  501 -0.00000000000E+00 -0.00000000000E+00 -0.18584478901E+03  0.18584478901E+03  0.00000000000E+00 0.  1.
         24    2    1    2    0    0  0.90635216737E+02 -0.46948260324E+03  0.48828087015E+03  0.68852812901E+03  0.83810017450E+02 0.  0.
        254    2    1    2    0    0 -0.90635216737E+02  0.46948260324E+03  0.29382990184E+04  0.31097413375E+04  0.89903359656E+03 0.  0.
         23    2    4    4    0    0 -0.20486012457E+03  0.53903761414E+03  0.28791626429E+04  0.29376952811E+04  0.89144938377E+02 0.  0.
         23    2    4    4    0    0  0.11422490784E+03 -0.69555010900E+02  0.59136375482E+02  0.17204605648E+03  0.90650457981E+02 0.  0.
          4    1    3    3  502    0  0.20677139511E+02 -0.16232525460E+02  0.34306411039E+02  0.43220004854E+02  0.00000000000E+00 0. -1.
         -3    1    3    3    0  502  0.69958077226E+02 -0.45325007778E+03  0.45397445911E+03  0.64530812415E+03  0.00000000000E+00 0.  1.
         11    1    5    5    0    0 -0.20401509697E+03  0.45001634112E+03  0.24762585582E+04  0.25250729324E+04  0.00000000000E+00 0. -1.
        -11    1    5    5    0    0 -0.84502760490E+00  0.89021273016E+02  0.40290408468E+03  0.41262234861E+03  0.00000000000E+00 0.  1.
          3    1    6    6  503    0  0.11275723320E+03 -0.87692603617E+02  0.47904721923E+02  0.15066203487E+03  0.00000000000E+00 0. -1.
         -3    1    6    6    0  503  0.14676746343E+01  0.18137592717E+02  0.11231653559E+02  0.21384021606E+02  0.00000000000E+00 0.  1.
<mgrwt>
<rscale>  0 0.16387194E+04</rscale>
<asrwt>0</asrwt>
<pdfrwt beam="1">  1        2 0.55575759E+00 0.16387194E+04</pdfrwt>
<pdfrwt beam="2">  1       -3 0.28591509E-01 0.16387194E+04</pdfrwt>
<totfact> 0.50688253E+00</totfact>
</mgrwt>
</event>
<event>
12    6  0.1542110E-007  0.2793072E+04  0.7818608E-02  0.8305422E-01
          2   -1    0    0  501    0  0.00000000000E+00  0.00000000000E+00  0.81759370744E+03  0.81759370744E+03  0.00000000000E+00 0. -1.
         -1   -1    0    0    0  501 -0.00000000000E+00 -0.00000000000E+00 -0.23854304078E+04  0.23854304078E+04  0.00000000000E+00 0.  1.
         24    2    1    2    0    0 -0.79843397077E+02 -0.51232772151E+03 -0.20011849626E+04  0.20688772361E+04  0.81591059424E+02 0.  0.
        254    2    1    2    0    0  0.79843397077E+02  0.51232772151E+03  0.43334826230E+03  0.11341468791E+04  0.91084782743E+03 0.  0.
         23    2    4    4    0    0 -0.16231878022E+03  0.48619539678E+03 -0.10928307277E+03  0.53220816898E+03  0.92571026094E+02 0.  0.
         23    2    4    4    0    0  0.24216217730E+03  0.26132324727E+02  0.54263133507E+03  0.60193871015E+03  0.92498791739E+02 0.  0.
          4    1    3    3  502    0 -0.58039894621E+01 -0.11533381932E+02 -0.12258333030E+03  0.12326142162E+03  0.00000000000E+00 0. -1.
         -3    1    3    3    0  502 -0.74039407615E+02 -0.50079433958E+03 -0.18786016323E+04  0.19456158145E+04  0.00000000000E+00 0.  1.
         11    1    5    5    0    0 -0.83165323369E+01  0.15339296501E+03 -0.21237648155E+02  0.15507934783E+03  0.00000000000E+00 0. -1.
        -11    1    5    5    0    0 -0.15400224788E+03  0.33280243178E+03 -0.88045424611E+02  0.37712882115E+03  0.00000000000E+00 0.  1.
          2    1    6    6  503    0 -0.41735369298E+01 -0.10085495699E+02  0.15434392729E+02  0.18903865026E+02  0.00000000000E+00 0. -1.
         -2    1    6    6    0  503  0.24633571423E+03  0.36217820427E+02  0.52719694234E+03  0.58303484513E+03  0.00000000000E+00 0.  1.
<mgrwt>
<rscale>  0 0.27930721E+04</rscale>
<asrwt>0</asrwt>
<pdfrwt beam="1">  1        2 0.12578365E+00 0.27930721E+04</pdfrwt>
<pdfrwt beam="2">  1       -1 0.36698929E+00 0.27930721E+04</pdfrwt>
<totfact> 0.39747940E-01</totfact>
</mgrwt>
</event>
<event>
12    6  0.1542110E-007  0.2547087E+04  0.7818608E-02  0.8386400E-01
          2   -1    0    0  501    0  0.00000000000E+00  0.00000000000E+00  0.19710692227E+04  0.19710692227E+04  0.00000000000E+00 0. -1.
         -1   -1    0    0    0  501 -0.00000000000E+00 -0.00000000000E+00 -0.82285964820E+03  0.82285964820E+03  0.00000000000E+00 0.  1.
         24    2    1    2    0    0  0.47476863472E+03 -0.85063858631E+03  0.10579092511E+04  0.14415759055E+04  0.99889172527E+02 0.  0.
        254    2    1    2    0    0 -0.47476863472E+03  0.85063858631E+03  0.90300323419E+02  0.13523529654E+04  0.93365578966E+03 0.  0.
         23    2    4    4    0    0 -0.29145268578E+03  0.86123896700E+02 -0.32917100733E+03  0.45670066359E+03  0.88656361427E+02 0.  0.
         23    2    4    4    0    0 -0.18331594894E+03  0.76451468961E+03  0.41947133075E+03  0.89565230181E+03  0.90274030880E+02 0.  0.
          4    1    3    3  502    0  0.39116942594E+03 -0.76302919011E+03  0.94462365282E+03  0.12757511161E+04  0.00000000000E+00 0. -1.
         -3    1    3    3    0  502  0.83599208781E+02 -0.87609396198E+02  0.11328559828E+03  0.16582478943E+03  0.00000000000E+00 0.  1.
         11    1    5    5    0    0 -0.15283491434E+03  0.83509525017E+02 -0.14789814379E+03  0.22848678899E+03  0.00000000000E+00 0.  1.
        -11    1    5    5    0    0 -0.13861777145E+03  0.26143716828E+01 -0.18127286354E+03  0.22821387459E+03  0.00000000000E+00 0. -1.
          1    1    6    6  503    0 -0.16188293389E+03  0.74460210311E+03  0.40123170725E+03  0.86117667128E+03  0.00000000000E+00 0. -1.
         -1    1    6    6    0  503 -0.21433015058E+02  0.19912586496E+02  0.18239623500E+02  0.34475630536E+02  0.00000000000E+00 0.  1.
<mgrwt>
<rscale>  0 0.25470872E+04</rscale>
<asrwt>0</asrwt>
<pdfrwt beam="1">  1        2 0.30324142E+00 0.25470872E+04</pdfrwt>
<pdfrwt beam="2">  1       -1 0.12659379E+00 0.25470872E+04</pdfrwt>
<totfact> 0.38002296E+00</totfact>
</mgrwt>
</event>
<event>
12    6  0.1542110E-007  0.1334973E+04  0.7818608E-02  0.9002282E-01
          2   -1    0    0  501    0  0.00000000000E+00  0.00000000000E+00  0.21641290812E+04  0.21641290812E+04  0.00000000000E+00 0. -1.
         -1   -1    0    0    0  501 -0.00000000000E+00 -0.00000000000E+00 -0.20587422557E+03  0.20587422557E+03  0.00000000000E+00 0.  1.
         24    2    1    2    0    0  0.22108769828E+03  0.95751542741E+02  0.96857306852E+03  0.10013927929E+04  0.81274893558E+02 0.  0.
        254    2    1    2    0    0 -0.22108769828E+03 -0.95751542741E+02  0.98968178714E+03  0.13686105139E+04  0.91409877514E+03 0.  0.
         23    2    4    4    0    0 -0.86219160594E+02  0.39999195484E+03  0.49238202779E+03  0.64645489524E+03  0.89646877755E+02 0.  0.
         23    2    4    4    0    0 -0.13486853768E+03 -0.49574349758E+03  0.49729975935E+03  0.72215561867E+03  0.10124499532E+03 0.  0.
          4    1    3    3  502    0  0.18395562258E+03  0.71060271455E+02  0.88459498812E+03  0.90630984010E+03  0.00000000000E+00 0. -1.
         -3    1    3    3    0  502  0.37132075697E+02  0.24691271286E+02  0.83978080402E+02  0.95082952790E+02  0.00000000000E+00 0.  1.
         11    1    5    5    0    0 -0.82970075097E+02  0.35532626538E+03  0.47367664241E+03  0.59792169203E+03  0.00000000000E+00 0. -1.
        -11    1    5    5    0    0 -0.32490854967E+01  0.44665689459E+02  0.18705385382E+02  0.48533203209E+02  0.00000000000E+00 0.  1.
          4    1    6    6  503    0 -0.13626652186E+03 -0.50008563381E+03  0.49601726755E+03  0.71741712820E+03  0.00000000000E+00 0. -1.
         -4    1    6    6    0  503  0.13979841796E+01  0.43421362271E+01  0.12824918072E+01  0.47384904787E+01  0.00000000000E+00 0.  1.
<mgrwt>
<rscale>  0 0.13349733E+04</rscale>
<asrwt>0</asrwt>
<pdfrwt beam="1">  1        2 0.33294292E+00 0.13349733E+04</pdfrwt>
<pdfrwt beam="2">  1       -1 0.31672959E-01 0.13349733E+04</pdfrwt>
<totfact> 0.55955585E+01</totfact>
</mgrwt>
</event>
<event>
12    6  0.1542110E-007  0.2166940E+04  0.7818608E-02  0.8532316E-01
          2   -1    0    0  501    0  0.00000000000E+00  0.00000000000E+00  0.14260662838E+04  0.14260662838E+04  0.00000000000E+00 0. -1.
         -1   -1    0    0    0  501 -0.00000000000E+00 -0.00000000000E+00 -0.82317869938E+03  0.82317869938E+03  0.00000000000E+00 0.  1.
         24    2    1    2    0    0  0.14908307109E+03 -0.44402853485E+03  0.10471540315E+04  0.11499519690E+04  0.80441677677E+02 0.  0.
        254    2    1    2    0    0 -0.14908307109E+03  0.44402853485E+03 -0.44426644707E+03  0.10992930142E+04  0.88976702184E+03 0.  0.
         23    2    4    4    0    0  0.18999291796E+03  0.41725104101E+01 -0.49055307466E+03  0.53414523547E+03  0.92488349564E+02 0.  0.
         23    2    4    4    0    0 -0.33907598905E+03  0.43985602444E+03  0.46286627583E+02  0.56514777869E+03  0.93828094289E+02 0.  0.
          2    1    3    3  502    0  0.14069344259E+03 -0.42262748627E+03  0.93780922625E+03  0.10382171169E+04  0.00000000000E+00 0. -1.
         -1    1    3    3    0  502  0.83896285058E+01 -0.21401048586E+02  0.10934480528E+03  0.11173485217E+03  0.00000000000E+00 0.  1.
         11    1    5    5    0    0  0.29826174308E+02  0.21072412228E+02 -0.18679550285E+03  0.19033183422E+03  0.00000000000E+00 0. -1.
        -11    1    5    5    0    0  0.16016674365E+03 -0.16899901818E+02 -0.30375757180E+03  0.34381340125E+03  0.00000000000E+00 0.  1.
          1    1    6    6  503    0 -0.33807382610E+02  0.10414655710E+03  0.95958374571E+01  0.10991598870E+03  0.00000000000E+00 0. -1.
         -1    1    6    6    0  503 -0.30526860644E+03  0.33570946734E+03  0.36690790126E+02  0.45523179000E+03  0.00000000000E+00 0.  1.
<mgrwt>
<rscale>  0 0.21669401E+04</rscale>
<asrwt>0</asrwt>
<pdfrwt beam="1">  1        2 0.21939481E+00 0.21669401E+04</pdfrwt>
<pdfrwt beam="2">  1       -1 0.12664288E+00 0.21669401E+04</pdfrwt>
<totfact> 0.79097986E+00</totfact>
</mgrwt>
</event>
<event>
12    6  0.1542110E-007  0.1858460E+04  0.7818608E-02  0.8675814E-01
          2   -1    0    0  501    0  0.00000000000E+00  0.00000000000E+00  0.19315211933E+04  0.19315211933E+04  0.00000000000E+00 0. -1.
         -1   -1    0    0    0  501 -0.00000000000E+00 -0.00000000000E+00 -0.44704053319E+03  0.44704053319E+03  0.00000000000E+00 0.  1.
         24    2    1    2    0    0  0.27532778849E+03  0.40053555595E+03  0.12375212091E+04  0.13319682165E+04  0.80289875995E+02 0.  0.
        254    2    1    2    0    0 -0.27532778849E+03 -0.40053555595E+03  0.24695945101E+03  0.10465935099E+04  0.89338394990E+03 0.  0.
         23    2    4    4    0    0  0.98143803480E+02 -0.57126233973E+03  0.21400330048E+03  0.62471239297E+03  0.92169921061E+02 0.  0.
         23    2    4    4    0    0 -0.37347159197E+03  0.17072678378E+03  0.32956150524E+02  0.42188111698E+03  0.90933515817E+02 0.  0.
          2    1    3    3  502    0  0.24144561031E+03  0.38197688218E+03  0.11690980395E+04  0.12533924155E+04  0.00000000000E+00 0. -1.
         -1    1    3    3    0  502  0.33882178177E+02  0.18558673768E+02  0.68423169552E+02  0.78575800992E+02  0.00000000000E+00 0.  1.
         11    1    5    5    0    0  0.90727483657E+02 -0.48566367788E+03  0.14614322625E+03  0.51522667524E+03  0.00000000000E+00 0.  1.
        -11    1    5    5    0    0  0.74163198225E+01 -0.85598661857E+02  0.67860074231E+02  0.10948571773E+03  0.00000000000E+00 0. -1.
          4    1    6    6  503    0 -0.24687167097E+03  0.70821223595E+02 -0.21231658675E+01  0.25683803354E+03  0.00000000000E+00 0.  1.
         -4    1    6    6    0  503 -0.12659992100E+03  0.99905560190E+02  0.35079316391E+02  0.16504308345E+03  0.00000000000E+00 0. -1.
<mgrwt>
<rscale>  0 0.18584599E+04</rscale>
<asrwt>0</asrwt>
<pdfrwt beam="1">  1        2 0.29715710E+00 0.18584599E+04</pdfrwt>
<pdfrwt beam="2">  1       -1 0.68775468E-01 0.18584599E+04</pdfrwt>
<totfact> 0.16696279E+01</totfact>
</mgrwt>
</event>
<event>
12    6  0.1542110E-007  0.1285677E+04  0.7818608E-02  0.9041001E-01
          2   -1    0    0  501    0  0.00000000000E+00  0.00000000000E+00  0.67162423379E+03  0.67162423379E+03  0.00000000000E+00 0. -1.
         -1   -1    0    0    0  501 -0.00000000000E+00 -0.00000000000E+00 -0.61528635266E+03  0.61528635266E+03  0.00000000000E+00 0.  1.
         24    2    1    2    0    0 -0.91687303625E+02  0.30856942980E+03  0.34286509603E+02  0.33316398801E+03  0.78746577769E+02 0.  0.
        254    2    1    2    0    0  0.91687303625E+02 -0.30856942980E+03  0.22051371524E+02  0.95374659844E+03  0.89751025420E+03 0.  0.
         23    2    4    4    0    0  0.30993490660E+03 -0.38962412273E+03 -0.26759489232E+03  0.57269839801E+03  0.92248714612E+02 0.  0.
         23    2    4    4    0    0 -0.21824760297E+03  0.81054692930E+02  0.28964626384E+03  0.38104820043E+03  0.84266799169E+02 0.  0.
          4    1    3    3  502    0 -0.99217177170E+02  0.21017006613E+03  0.30491434791E+02  0.23440399429E+03  0.00000000000E+00 0. -1.
         -3    1    3    3    0  502  0.75298735450E+01  0.98399363676E+02  0.37950748125E+01  0.98759993723E+02  0.00000000000E+00 0.  1.
         11    1    5    5    0    0  0.38724954357E+02 -0.10934041026E+03 -0.70035449552E+02  0.13549875129E+03  0.00000000000E+00 0.  1.
        -11    1    5    5    0    0  0.27120995224E+03 -0.28028371247E+03 -0.19755944277E+03  0.43719964673E+03  0.00000000000E+00 0. -1.
          3    1    6    6  503    0 -0.11018075465E+03  0.55795670403E+02  0.90660735844E+02  0.15320680323E+03  0.00000000000E+00 0. -1.
         -3    1    6    6    0  503 -0.10806684832E+03  0.25259022527E+02  0.19898552800E+03  0.22784139720E+03  0.00000000000E+00 0.  1.
<mgrwt>
<rscale>  0 0.12856768E+04</rscale>
<asrwt>0</asrwt>
<pdfrwt beam="1">  1        2 0.10332680E+00 0.12856768E+04</pdfrwt>
<pdfrwt beam="2">  1       -1 0.94659439E-01 0.12856768E+04</pdfrwt>
<totfact> 0.52252687E+01</totfact>
</mgrwt>
</event>
<event>
12    6  0.1542110E-007  0.1073188E+04  0.7818608E-02  0.9231726E-01
         -1   -1    0    0    0  501 -0.00000000000E+00  0.00000000000E+00  0.94799230652E+03  0.94799230652E+03  0.00000000000E+00 0.  1.
          2   -1    0    0  501    0  0.00000000000E+00 -0.00000000000E+00 -0.30372913517E+03  0.30372913517E+03  0.00000000000E+00 0. -1.
         24    2    1    2    0    0 -0.12222251295E+03  0.31127822626E+02  0.18050242787E+03  0.23740188471E+03  0.88720033724E+02 0.  0.
        254    2    1    2    0    0  0.12222251295E+03 -0.31127822626E+02  0.46376074348E+03  0.10143195570E+04  0.89323169024E+03 0.  0.
         23    2    4    4    0    0  0.41571870489E+03  0.23783461855E+03  0.18965979407E+03  0.52268102012E+03  0.88528322768E+02 0.  0.
         23    2    4    4    0    0 -0.29349619194E+03 -0.26896244118E+03  0.27410094941E+03  0.49163853685E+03  0.89979503192E+02 0.  0.
          4    1    3    3  502    0 -0.11700856779E+02  0.26088288324E+02  0.36917283737E+01  0.28829458813E+02  0.00000000000E+00 0. -1.
         -3    1    3    3    0  502 -0.11052165617E+03  0.50395343021E+01  0.17681069949E+03  0.20857242590E+03  0.00000000000E+00 0.  1.
         11    1    5    5    0    0  0.35251279314E+03  0.23508779947E+03  0.16181365859E+03  0.45355837870E+03  0.00000000000E+00 0. -1.
        -11    1    5    5    0    0  0.63205911758E+02  0.27468190819E+01  0.27846135477E+02  0.69122641423E+02  0.00000000000E+00 0.  1.
          1    1    6    6  503    0 -0.20071550563E+03 -0.20834075632E+03  0.15221309381E+03  0.32689663638E+03  0.00000000000E+00 0. -1.
         -1    1    6    6    0  503 -0.92780686309E+02 -0.60621684853E+02  0.12188785561E+03  0.16474190047E+03  0.00000000000E+00 0.  1.
<mgrwt>
<rscale>  0 0.10731876E+04</rscale>
<asrwt>0</asrwt>
<pdfrwt beam="1">  1        2 0.46727560E-01 0.10731876E+04</pdfrwt>
<pdfrwt beam="2">  1       -1 0.14584497E+00 0.10731876E+04</pdfrwt>
<totfact> 0.46432080E+01</totfact>
</mgrwt>
</event>
<event>
12    6  0.1542110E-007  0.1482865E+04  0.7818608E-02  0.8895928E-01
          2   -1    0    0  501    0  0.00000000000E+00  0.00000000000E+00  0.15934325996E+04  0.15934325996E+04  0.00000000000E+00 0. -1.
         -1   -1    0    0    0  501 -0.00000000000E+00 -0.00000000000E+00 -0.34499254557E+03  0.34499254557E+03  0.00000000000E+00 0.  1.
         24    2    1    2    0    0  0.28751832875E+03  0.13488165987E+03 -0.44524150243E+02  0.33045004642E+03  0.79718139042E+02 0.  0.
        254    2    1    2    0    0 -0.28751832875E+03 -0.13488165987E+03  0.12929642043E+04  0.16079750988E+04  0.90164717773E+03 0.  0.
         23    2    4    4    0    0 -0.48896618023E+03 -0.12805254486E+03  0.31000354113E+03  0.60043372488E+03  0.94514987162E+02 0.  0.
         23    2    4    4    0    0  0.20144785148E+03 -0.68291150075E+01  0.98296066316E+03  0.10075413739E+04  0.91104780812E+02 0.  0.
          4    1    3    3  502    0  0.21378956038E+03  0.69032287501E+02 -0.54259634511E+02  0.23111802349E+03  0.00000000000E+00 0. -1.
         -3    1    3    3    0  502  0.73728768369E+02  0.65849372368E+02  0.97354842673E+01  0.99332022935E+02  0.00000000000E+00 0.  1.
         11    1    5    5    0    0 -0.35985596733E+03 -0.13542440894E+03  0.24215458365E+03  0.45439512557E+03  0.00000000000E+00 0. -1.
        -11    1    5    5    0    0 -0.12911021290E+03  0.73718640803E+01  0.67848957484E+02  0.14603859931E+03  0.00000000000E+00 0.  1.
          4    1    6    6  503    0  0.15259384305E+03 -0.43660990361E+02  0.75581393933E+03  0.77229908320E+03  0.00000000000E+00 0.  1.
         -4    1    6    6    0  503  0.48854008438E+02  0.36831875353E+02  0.22714672383E+03  0.23524229069E+03  0.00000000000E+00 0. -1.
<mgrwt>
<rscale>  0 0.14828653E+04</rscale>
<asrwt>0</asrwt>
<pdfrwt beam="1">  1        2 0.24514347E+00 0.14828653E+04</pdfrwt>
<pdfrwt beam="2">  1       -1 0.53075777E-01 0.14828653E+04</pdfrwt>
<totfact> 0.44372314E+01</totfact>
</mgrwt>
</event>
<event>
12    6  0.1542110E-007  0.1241884E+04  0.7818608E-02  0.9076966E-01
         -1   -1    0    0    0  501 -0.00000000000E+00  0.00000000000E+00  0.21448250049E+03  0.21448250049E+03  0.00000000000E+00 0.  1.
          2   -1    0    0  501    0  0.00000000000E+00 -0.00000000000E+00 -0.17976703960E+04  0.17976703960E+04  0.00000000000E+00 0. -1.
         24    2    1    2    0    0  0.19346886684E+03 -0.47056015787E+01 -0.69417161832E+03  0.72510157670E+03  0.80285214819E+02 0.  0.
        254    2    1    2    0    0 -0.19346886684E+03  0.47056015787E+01 -0.88901627723E+03  0.12870513198E+04  0.91032895901E+03 0.  0.
         23    2    4    4    0    0 -0.22771852231E+03  0.26049442513E+03 -0.31356413713E+01  0.35981058724E+03  0.98695265922E+02 0.  0.
         23    2    4    4    0    0  0.34249655475E+02 -0.25578882355E+03 -0.88588063586E+03  0.92724073260E+03  0.91596474034E+02 0.  0.
          4    1    3    3  502    0  0.65374091997E+02  0.24968945891E+02 -0.34426364771E+03  0.35130425460E+03  0.00000000000E+00 0. -1.
         -3    1    3    3    0  502  0.12809477484E+03 -0.29674547470E+02 -0.34990797061E+03  0.37379732210E+03  0.00000000000E+00 0.  1.
         11    1    5    5    0    0 -0.13179511368E+03  0.77185297458E+02  0.41870528496E+01  0.15279088175E+03  0.00000000000E+00 0.  1.
        -11    1    5    5    0    0 -0.95923408632E+02  0.18330912767E+03 -0.73226942209E+01  0.20701970549E+03  0.00000000000E+00 0. -1.
          3    1    6    6  503    0  0.15221927010E+02 -0.23268109373E+03 -0.67266780604E+03  0.71193691836E+03  0.00000000000E+00 0. -1.
         -3    1    6    6    0  503  0.19027728466E+02 -0.23107729817E+02 -0.21321282982E+03  0.21530381424E+03  0.00000000000E+00 0.  1.
<mgrwt>
<rscale>  0 0.12418838E+04</rscale>
<asrwt>0</asrwt>
<pdfrwt beam="1">  1        2 0.27656468E+00 0.12418838E+04</pdfrwt>
<pdfrwt beam="2">  1       -1 0.32997307E-01 0.12418838E+04</pdfrwt>
<totfact> 0.83663721E+01</totfact>
</mgrwt>
</event>
<event>
12    6  0.1542110E-007  0.1515936E+04  0.7818608E-02  0.8873924E-01
         -1   -1    0    0    0  501 -0.00000000000E+00  0.00000000000E+00  0.24332465595E+03  0.24332465595E+03  0.00000000000E+00 0.  1.
          2   -1    0    0  501    0  0.00000000000E+00 -0.00000000000E+00 -0.23611062014E+04  0.23611062014E+04  0.00000000000E+00 0. -1.
         24    2    1    2    0    0  0.23198688979E+03  0.63391436368E-01  0.45977565909E+02  0.24841497889E+03  0.76014104718E+02 0.  0.
        254    2    1    2    0    0 -0.23198688979E+03 -0.63391436368E-01 -0.21637591114E+04  0.23560158785E+04  0.90285071109E+03 0.  0.
         23    2    4    4    0    0 -0.15863763875E+03  0.40907714341E+03 -0.69733808572E+03  0.82909067060E+03  0.92741169896E+02 0.  0.
         23    2    4    4    0    0 -0.73349251042E+02 -0.40914053485E+03 -0.14664210257E+04  0.15269252079E+04  0.91290065536E+02 0.  0.
          4    1    3    3  502    0  0.52745280023E+02 -0.29369054730E+02 -0.24763765119E+01  0.60421340444E+02  0.00000000000E+00 0. -1.
         -3    1    3    3    0  502  0.17924160977E+03  0.29432446166E+02  0.48453942421E+02  0.18799363845E+03  0.00000000000E+00 0.  1.
         11    1    5    5    0    0 -0.16117069720E+03  0.40217207496E+03 -0.69817801589E+03  0.82168784425E+03  0.00000000000E+00 0. -1.
        -11    1    5    5    0    0  0.25330584458E+01  0.69050684508E+01  0.83993016548E+00  0.74028263578E+01  0.00000000000E+00 0.  1.
          3    1    6    6  503    0 -0.43891382819E+02 -0.38257287649E+03 -0.12995192356E+04  0.13553740085E+04  0.00000000000E+00 0. -1.
         -3    1    6    6    0  503 -0.29457868223E+02 -0.26567658356E+02 -0.16690179005E+03  0.17155119933E+03  0.00000000000E+00 0.  1.
<mgrwt>
<rscale>  0 0.15159358E+04</rscale>
<asrwt>0</asrwt>
<pdfrwt beam="1">  1        2 0.36324712E+00 0.15159358E+04</pdfrwt>
<pdfrwt beam="2">  1       -1 0.37434561E-01 0.15159358E+04</pdfrwt>
<totfact> 0.31668381E+01</totfact>
</mgrwt>
</event>
<event>
12    6  0.1542110E-007  0.2022284E+04  0.7818608E-02  0.8596272E-01
         -1   -1    0    0    0  501 -0.00000000000E+00  0.00000000000E+00  0.93153477080E+03  0.93153477080E+03  0.00000000000E+00 0.  1.
          2   -1    0    0  501    0  0.00000000000E+00 -0.00000000000E+00 -0.10975526046E+04  0.10975526046E+04  0.00000000000E+00 0. -1.
         24    2    1    2    0    0 -0.38607919550E+03  0.68467249802E+03 -0.19295494212E+03  0.81322344801E+03  0.79165598365E+02 0.  0.
        254    2    1    2    0    0  0.38607919550E+03 -0.68467249802E+03  0.26937108301E+02  0.12158639274E+04  0.92723562671E+03 0.  0.
         23    2    4    4    0    0  0.16268754224E+03  0.10807705781E+03 -0.25961293926E+03  0.33768513322E+03  0.92111259574E+02 0.  0.
         23    2    4    4    0    0  0.22339165325E+03 -0.79274955582E+03  0.28655004756E+03  0.87817879420E+03  0.10359235407E+03 0.  0.
          4    1    3    3  502    0 -0.23996440964E+03  0.47540470310E+03 -0.15887281885E+03  0.55572756112E+03  0.00000000000E+00 0. -1.
         -3    1    3    3    0  502 -0.14611478586E+03  0.20926779492E+03 -0.34082123271E+02  0.25749588688E+03  0.00000000000E+00 0.  1.
         11    1    5    5    0    0  0.27029146866E+02  0.30546785448E+02 -0.12486252542E+03  0.13135574268E+03  0.00000000000E+00 0. -1.
        -11    1    5    5    0    0  0.13565839538E+03  0.77530272357E+02 -0.13475041383E+03  0.20632939053E+03  0.00000000000E+00 0.  1.
          4    1    6    6  503    0  0.19643097998E+03 -0.64620456010E+03  0.27325164246E+03  0.72858213229E+03  0.00000000000E+00 0.  1.
         -4    1    6    6    0  503  0.26960673268E+02 -0.14654499572E+03  0.13298405098E+02  0.14959666190E+03  0.00000000000E+00 0. -1.
<mgrwt>
<rscale>  0 0.20222843E+04</rscale>
<asrwt>0</asrwt>
<pdfrwt beam="1">  1        2 0.16885425E+00 0.20222843E+04</pdfrwt>
<pdfrwt beam="2">  1       -1 0.14331304E+00 0.20222843E+04</pdfrwt>
<totfact> 0.91135773E+00</totfact>
</mgrwt>
</event>
<event>
12    6  0.1542110E-007  0.1630747E+04  0.7818608E-02  0.8801878E-01
         -1   -1    0    0    0  501 -0.00000000000E+00  0.00000000000E+00  0.58718632444E+03  0.58718632444E+03  0.00000000000E+00 0.  1.
          2   -1    0    0  501    0  0.00000000000E+00 -0.00000000000E+00 -0.11322370786E+04  0.11322370786E+04  0.00000000000E+00 0. -1.
         24    2    1    2    0    0  0.36175993355E+03  0.23662777666E+03 -0.56561097654E+03  0.71633341329E+03  0.79717175069E+02 0.  0.
        254    2    1    2    0    0 -0.36175993355E+03 -0.23662777666E+03  0.20560222389E+02  0.10030899897E+04  0.90493306414E+03 0.  0.
         23    2    4    4    0    0  0.19427408711E+03 -0.36120232199E+03 -0.41575021178E+02  0.42286714886E+03  0.94226349082E+02 0.  0.
         23    2    4    4    0    0 -0.55603402066E+03  0.12457454533E+03  0.62135243567E+02  0.58022284089E+03  0.90028368422E+02 0.  0.
          2    1    3    3  502    0  0.30855941413E+03  0.17601270453E+03 -0.42185055288E+03  0.55149548790E+03  0.00000000000E+00 0. -1.
         -3    1    3    3    0  502  0.53200519412E+02  0.60615072135E+02 -0.14376042366E+03  0.16483792539E+03  0.00000000000E+00 0.  1.
         11    1    5    5    0    0  0.24943802238E+02 -0.37267250093E+01 -0.39733754777E+01  0.25531734411E+02  0.00000000000E+00 0. -1.
        -11    1    5    5    0    0  0.16933028487E+03 -0.35747559698E+03 -0.37601645700E+02  0.39733541444E+03  0.00000000000E+00 0.  1.
          2    1    6    6  503    0 -0.15857641733E+03  0.28520178339E+02 -0.22417220081E+02  0.16267271579E+03  0.00000000000E+00 0. -1.
         -2    1    6    6    0  503 -0.39745760332E+03  0.96054366986E+02  0.84552463648E+02  0.41755012509E+03  0.00000000000E+00 0.  1.
<mgrwt>
<rscale>  0 0.16307472E+04</rscale>
<asrwt>0</asrwt>
<pdfrwt beam="1">  1        2 0.17419032E+00 0.16307472E+04</pdfrwt>
<pdfrwt beam="2">  1       -1 0.90336358E-01 0.16307472E+04</pdfrwt>
<totfact> 0.27211750E+01</totfact>
</mgrwt>
</event>
<event>
12    6  0.1542110E-007  0.1392996E+04  0.7818608E-02  0.8958904E-01
          2   -1    0    0  501    0  0.00000000000E+00  0.00000000000E+00  0.13659196538E+04  0.13659196538E+04  0.00000000000E+00 0. -1.
         -1   -1    0    0    0  501 -0.00000000000E+00 -0.00000000000E+00 -0.35515216819E+03  0.35515216819E+03  0.00000000000E+00 0.  1.
         24    2    1    2    0    0  0.27584221481E+02 -0.33469551080E+03  0.57302530233E+03  0.66889186398E+03  0.79223445779E+02 0.  0.
        254    2    1    2    0    0 -0.27584221481E+02  0.33469551080E+03  0.43774218324E+03  0.10521799580E+04  0.89592548282E+03 0.  0.
         23    2    4    4    0    0  0.32035130792E+02  0.62012793044E+03  0.18243043817E+03  0.65383077895E+03  0.92891996510E+02 0.  0.
         23    2    4    4    0    0 -0.59619352273E+02 -0.28543241963E+03  0.25531174507E+03  0.39834917904E+03  0.92042641874E+02 0.  0.
          4    1    3    3  502    0 -0.48699054789E+01 -0.27541234531E+03  0.42935982437E+03  0.51012305840E+03  0.00000000000E+00 0. -1.
         -3    1    3    3    0  502  0.32454126960E+02 -0.59283165494E+02  0.14366547796E+03  0.15876880558E+03  0.00000000000E+00 0.  1.
         11    1    5    5    0    0  0.19294245692E+02  0.26899349392E+02  0.19835495048E+02  0.38591317396E+02  0.00000000000E+00 0.  1.
        -11    1    5    5    0    0  0.12740885099E+02  0.59322858104E+03  0.16259494312E+03  0.61523946155E+03  0.00000000000E+00 0. -1.
          2    1    6    6  503    0 -0.44268422017E+01  0.59747953741E+01  0.70955341465E+00  0.74698445559E+01  0.00000000000E+00 0.  1.
         -2    1    6    6    0  503 -0.55192510071E+02 -0.29140721501E+03  0.25460219166E+03  0.39087933448E+03  0.00000000000E+00 0. -1.
<mgrwt>
<rscale>  0 0.13929958E+04</rscale>
<asrwt>0</asrwt>
<pdfrwt beam="1">  1        2 0.21014148E+00 0.13929958E+04</pdfrwt>
<pdfrwt beam="2">  1       -1 0.54638796E-01 0.13929958E+04</pdfrwt>
<totfact> 0.56852445E+01</totfact>
</mgrwt>
</event>
<event>
12    6  0.1542110E-007  0.1830030E+04  0.7818608E-02  0.8690491E-01
          2   -1    0    0  501    0  0.00000000000E+00  0.00000000000E+00  0.13230160741E+04  0.13230160741E+04  0.00000000000E+00 0. -1.
         -1   -1    0    0    0  501 -0.00000000000E+00 -0.00000000000E+00 -0.63283626807E+03  0.63283626807E+03  0.00000000000E+00 0.  1.
         24    2    1    2    0    0 -0.61926300111E+03  0.16309759783E+03  0.55737186411E+03  0.85302461982E+03  0.83066937818E+02 0.  0.
        254    2    1    2    0    0  0.61926300111E+03 -0.16309759783E+03  0.13280794192E+03  0.11028277223E+04  0.88797722086E+03 0.  0.
         23    2    4    4    0    0  0.62524954414E+03 -0.32583900961E+03  0.36948940632E+03  0.80124109262E+03  0.91415614056E+02 0.  0.
         23    2    4    4    0    0 -0.59865430284E+01  0.16274141178E+03 -0.23668146440E+03  0.30158662972E+03  0.91737526831E+02 0.  0.
          4    1    3    3  502    0 -0.44900605632E+03  0.14857718081E+03  0.37961082191E+03  0.60645362014E+03  0.00000000000E+00 0. -1.
         -3    1    3    3    0  502 -0.17025694479E+03  0.14520417016E+02  0.17776104220E+03  0.24657099968E+03  0.00000000000E+00 0.  1.
         11    1    5    5    0    0  0.38723400690E+03 -0.24419377174E+03  0.21305329320E+03  0.50494799732E+03  0.00000000000E+00 0.  1.
        -11    1    5    5    0    0  0.23801553724E+03 -0.81645237873E+02  0.15643611313E+03  0.29629309531E+03  0.00000000000E+00 0. -1.
          3    1    6    6  503    0 -0.74277084427E+01  0.74186249620E+01 -0.80968600617E+02  0.81646317339E+02  0.00000000000E+00 0. -1.
         -3    1    6    6    0  503  0.14411654143E+01  0.15532278682E+03 -0.15571286379E+03  0.21994031238E+03  0.00000000000E+00 0.  1.
<mgrwt>
<rscale>  0 0.18300301E+04</rscale>
<asrwt>0</asrwt>
<pdfrwt beam="1">  1        2 0.20354093E+00 0.18300301E+04</pdfrwt>
<pdfrwt beam="2">  1       -1 0.97359426E-01 0.18300301E+04</pdfrwt>
<totfact> 0.17433607E+01</totfact>
</mgrwt>
</event>
<event>
12    6  0.1542110E-007  0.1590361E+04  0.7818608E-02  0.8826491E-01
         -1   -1    0    0    0  501 -0.00000000000E+00  0.00000000000E+00  0.56362003599E+03  0.56362003599E+03  0.00000000000E+00 0.  1.
          2   -1    0    0  501    0  0.00000000000E+00 -0.00000000000E+00 -0.11218768110E+04  0.11218768110E+04  0.00000000000E+00 0. -1.
         24    2    1    2    0    0  0.25209977789E+03  0.38192717573E+03 -0.47802373735E+03  0.66888301826E+03  0.97340295281E+02 0.  0.
        254    2    1    2    0    0 -0.25209977789E+03 -0.38192717573E+03 -0.80233037643E+02  0.10166138287E+04  0.90423651266E+03 0.  0.
         23    2    4    4    0    0 -0.52618934517E+02  0.19796393213E+03 -0.28572522713E+03  0.36328332686E+03  0.91528134806E+02 0.  0.
         23    2    4    4    0    0 -0.19948084337E+03 -0.57989110786E+03  0.20549218949E+03  0.65333050185E+03  0.92452154464E+02 0.  0.
          4    1    3    3  502    0  0.20947857956E+03  0.24940477182E+03 -0.36808624075E+03  0.49149923309E+03  0.00000000000E+00 0. -1.
         -3    1    3    3    0  502  0.42621198330E+02  0.13252240391E+03 -0.10993749660E+03  0.17738378518E+03  0.00000000000E+00 0.  1.
         11    1    5    5    0    0  0.23108171897E+02  0.18622545264E+02 -0.38590569615E+02  0.48682839520E+02  0.00000000000E+00 0. -1.
        -11    1    5    5    0    0 -0.75727106414E+02  0.17934138687E+03 -0.24713465751E+03  0.31460048734E+03  0.00000000000E+00 0.  1.
          3    1    6    6  503    0  0.72263552318E+01 -0.42621546162E+02  0.39587488373E+01  0.43410691074E+02  0.00000000000E+00 0. -1.
         -3    1    6    6    0  503 -0.20670719860E+03 -0.53726956170E+03  0.20153344065E+03  0.60991981078E+03  0.00000000000E+00 0.  1.
<mgrwt>
<rscale>  0 0.15903613E+04</rscale>
<asrwt>0</asrwt>
<pdfrwt beam="1">  1        2 0.17259643E+00 0.15903613E+04</pdfrwt>
<pdfrwt beam="2">  1       -1 0.86710776E-01 0.15903613E+04</pdfrwt>
<totfact> 0.30309081E+01</totfact>
</mgrwt>
</event>
<event>
12    6  0.1542110E-007  0.1618817E+04  0.7818608E-02  0.8809071E-01
         -1   -1    0    0    0  501 -0.00000000000E+00  0.00000000000E+00  0.56201009291E+03  0.56201009291E+03  0.00000000000E+00 0.  1.
          2   -1    0    0  501    0  0.00000000000E+00 -0.00000000000E+00 -0.11657120784E+04  0.11657120784E+04  0.00000000000E+00 0. -1.
         24    2    1    2    0    0 -0.76589201990E+02 -0.21412515845E+03 -0.73618331045E+03  0.77456891223E+03  0.79218961585E+02 0.  0.
        254    2    1    2    0    0  0.76589201990E+02  0.21412515845E+03  0.13248132500E+03  0.95315325904E+03  0.91609734440E+03 0.  0.
         23    2    4    4    0    0 -0.26015301480E+03  0.42028629190E+03 -0.57560948582E+02  0.50584522030E+03  0.90807300515E+02 0.  0.
         23    2    4    4    0    0  0.33674221679E+03 -0.20616113345E+03  0.19004227358E+03  0.44730803875E+03  0.89836976069E+02 0.  0.
          4    1    3    3  502    0 -0.83105578439E+02 -0.17222553124E+03 -0.51498592264E+03  0.54934385524E+03  0.00000000000E+00 0. -1.
         -3    1    3    3    0  502  0.65163764492E+01 -0.41899627210E+02 -0.22119738781E+03  0.22522505699E+03  0.00000000000E+00 0.  1.
         11    1    5    5    0    0 -0.14913036195E+03  0.25755221707E+03 -0.78350340800E+02  0.30775279898E+03  0.00000000000E+00 0. -1.
        -11    1    5    5    0    0 -0.11102265285E+03  0.16273407483E+03  0.20789392218E+02  0.19809242132E+03  0.00000000000E+00 0.  1.
          4    1    6    6  503    0  0.31381611753E+03 -0.20585774208E+03  0.19629283345E+03  0.42354319975E+03  0.00000000000E+00 0. -1.
         -4    1    6    6    0  503  0.22926099264E+02 -0.30339136154E+00 -0.62505598670E+01  0.23764838995E+02  0.00000000000E+00 0.  1.
<mgrwt>
<rscale>  0 0.16188168E+04</rscale>
<asrwt>0</asrwt>
<pdfrwt beam="1">  1        2 0.17934032E+00 0.16188168E+04</pdfrwt>
<pdfrwt beam="2">  1       -1 0.86463091E-01 0.16188168E+04</pdfrwt>
<totfact> 0.28614797E+01</totfact>
</mgrwt>
</event>
<event>
12    6  0.1542110E-007  0.1780948E+04  0.7818608E-02  0.8716497E-01
         -3   -1    0    0    0  501 -0.00000000000E+00  0.00000000000E+00  0.17482122100E+04  0.17482122100E+04  0.00000000000E+00 0.  1.
          4   -1    0    0  501    0  0.00000000000E+00 -0.00000000000E+00 -0.45357442759E+03  0.45357442759E+03  0.00000000000E+00 0. -1.
         24    2    1    2    0    0  0.72295521900E+02  0.42907766392E+03  0.10986004428E+04  0.11843084206E+04  0.79556383292E+02 0.  0.
        254    2    1    2    0    0 -0.72295521900E+02 -0.42907766392E+03  0.19603733960E+03  0.10174782169E+04  0.89860836811E+03 0.  0.
         23    2    4    4    0    0 -0.14358057502E+03 -0.12305187647E+03  0.51787417412E+03  0.55885242727E+03  0.91461628126E+02 0.  0.
         23    2    4    4    0    0  0.71285053122E+02 -0.30602578746E+03 -0.32183683452E+03  0.45862578965E+03  0.89584181041E+02 0.  0.
          2    1    3    3  502    0 -0.14255131127E+02  0.39563964734E+02  0.80803940882E+02  0.91092222121E+02  0.00000000000E+00 0. -1.
         -1    1    3    3    0  502  0.86550653027E+02  0.38951369919E+03  0.10177965019E+04  0.10932161985E+04  0.00000000000E+00 0.  1.
         11    1    5    5    0    0 -0.44538476284E+02  0.64515491775E+01  0.82895357641E+02  0.94323584935E+02  0.00000000000E+00 0. -1.
        -11    1    5    5    0    0 -0.99042098738E+02 -0.12950342564E+03  0.43497881648E+03  0.46452884234E+03  0.00000000000E+00 0.  1.
          1    1    6    6  503    0  0.42939005086E+02 -0.74430298957E+02 -0.46428085956E+02  0.97668801191E+02  0.00000000000E+00 0. -1.
         -1    1    6    6    0  503  0.28346048036E+02 -0.23159548850E+03 -0.27540874857E+03  0.36095698846E+03  0.00000000000E+00 0.  1.
<mgrwt>
<rscale>  0 0.17809485E+04</rscale>
<asrwt>0</asrwt>
<pdfrwt beam="1">  1        4 0.69780682E-01 0.17809485E+04</pdfrwt>
<pdfrwt beam="2">  1       -3 0.26895572E+00 0.17809485E+04</pdfrwt>
<totfact> 0.23263492E-01</totfact>
</mgrwt>
</event>
<event>
12    6  0.1542110E-007  0.1934350E+04  0.7818608E-02  0.8637944E-01
          2   -1    0    0  501    0  0.00000000000E+00  0.00000000000E+00  0.16917654044E+04  0.16917654044E+04  0.00000000000E+00 0. -1.
         -1   -1    0    0    0  501 -0.00000000000E+00 -0.00000000000E+00 -0.55292991947E+03  0.55292991947E+03  0.00000000000E+00 0.  1.
         24    2    1    2    0    0  0.17812313480E+03  0.64996245759E+03  0.53781382494E+02  0.68073405342E+03  0.79544748146E+02 0.  0.
        254    2    1    2    0    0 -0.17812313480E+03 -0.64996245759E+03  0.10850541024E+04  0.15639612705E+04  0.90247072132E+03 0.  0.
         23    2    4    4    0    0 -0.44506668884E+03 -0.68369445338E+03  0.66171238999E+03  0.10542999163E+04  0.90346905121E+02 0.  0.
         23    2    4    4    0    0  0.26694355404E+03  0.33731995792E+02  0.42334171246E+03  0.50966135420E+03  0.90220739743E+02 0.  0.
          2    1    3    3  502    0  0.58061397700E+02  0.26892456957E+03 -0.14193595803E+02  0.27548685665E+03  0.00000000000E+00 0. -1.
         -1    1    3    3    0  502  0.12006173710E+03  0.38103788802E+03  0.67974978298E+02  0.40524719677E+03  0.00000000000E+00 0.  1.
         11    1    5    5    0    0 -0.96961886590E+02 -0.21851891650E+03  0.21313203583E+03  0.32027705040E+03  0.00000000000E+00 0.  1.
        -11    1    5    5    0    0 -0.34810480225E+03 -0.46517553688E+03  0.44858035416E+03  0.73402286585E+03  0.00000000000E+00 0. -1.
          2    1    6    6  503    0  0.21586393143E+02 -0.14298800307E+02  0.12560121115E+02  0.28778198372E+02  0.00000000000E+00 0. -1.
         -2    1    6    6    0  503  0.24535716089E+03  0.48030796099E+02  0.41078159134E+03  0.48088315583E+03  0.00000000000E+00 0.  1.
<mgrwt>
<rscale>  0 0.19343502E+04</rscale>
<asrwt>0</asrwt>
<pdfrwt beam="1">  1        2 0.26027160E+00 0.19343502E+04</pdfrwt>
<pdfrwt beam="2">  1       -1 0.85066142E-01 0.19343502E+04</pdfrwt>
<totfact> 0.14410258E+01</totfact>
</mgrwt>
</event>
<event>
12    6  0.1542110E-007  0.1715354E+04  0.7818608E-02  0.8752656E-01
         -1   -1    0    0    0  501 -0.00000000000E+00  0.00000000000E+00  0.38197348662E+03  0.38197348662E+03  0.00000000000E+00 0.  1.
          2   -1    0    0  501    0  0.00000000000E+00 -0.00000000000E+00 -0.19258128830E+04  0.19258128830E+04  0.00000000000E+00 0. -1.
         24    2    1    2    0    0  0.59673531804E+03 -0.83460211728E+02 -0.32204670647E+03  0.68794959808E+03  0.80634493986E+02 0.  0.
        254    2    1    2    0    0 -0.59673531804E+03  0.83460211728E+02 -0.12217926899E+04  0.16198367715E+04  0.87637614216E+03 0.  0.
         23    2    4    4    0    0 -0.51705121062E+03 -0.33733609787E+03 -0.76107618546E+03  0.98429491947E+03  0.91988755306E+02 0.  0.
         23    2    4    4    0    0 -0.79684107423E+02  0.42079630960E+03 -0.46071650442E+03  0.63554185203E+03  0.90745011408E+02 0.  0.
          4    1    3    3  502    0  0.99819994715E+02  0.12180384410E+02 -0.70728246824E+02  0.12294258013E+03  0.00000000000E+00 0. -1.
         -3    1    3    3    0  502  0.49691532333E+03 -0.95640596138E+02 -0.25131845964E+03  0.56500701796E+03  0.00000000000E+00 0.  1.
         11    1    5    5    0    0 -0.12559302068E+03 -0.37458057206E+02 -0.16005194439E+03  0.20686550654E+03  0.00000000000E+00 0.  1.
        -11    1    5    5    0    0 -0.39145818993E+03 -0.29987804066E+03 -0.60102424107E+03  0.77742941293E+03  0.00000000000E+00 0. -1.
          1    1    6    6  503    0 -0.18159583976E+02  0.15452285496E+03 -0.23111222079E+03  0.27860355668E+03  0.00000000000E+00 0. -1.
         -1    1    6    6    0  503 -0.61524523448E+02  0.26627345464E+03 -0.22960428363E+03  0.35693829535E+03  0.00000000000E+00 0.  1.
<mgrwt>
<rscale>  0 0.17153536E+04</rscale>
<asrwt>0</asrwt>
<pdfrwt beam="1">  1        2 0.29627891E+00 0.17153536E+04</pdfrwt>
<pdfrwt beam="2">  1       -1 0.58765151E-01 0.17153536E+04</pdfrwt>
<totfact> 0.23340776E+01</totfact>
</mgrwt>
</event>
<event>
12    6  0.1542110E-007  0.2503867E+04  0.7818608E-02  0.8401609E-01
         -1   -1    0    0    0  501 -0.00000000000E+00  0.00000000000E+00  0.12842478290E+04  0.12842478290E+04  0.00000000000E+00 0.  1.
          2   -1    0    0  501    0  0.00000000000E+00 -0.00000000000E+00 -0.12204324182E+04  0.12204324182E+04  0.00000000000E+00 0. -1.
         24    2    1    2    0    0  0.63844632269E+03 -0.60750106340E+03 -0.61214317911E+03  0.10759026882E+04  0.78587999794E+02 0.  0.
        254    2    1    2    0    0 -0.63844632269E+03  0.60750106340E+03  0.67595858983E+03  0.14287775590E+04  0.89878476236E+03 0.  0.
         23    2    4    4    0    0 -0.37307333222E+03 -0.17818029233E+03  0.24347934969E+03  0.48925099856E+03  0.95668270962E+02 0.  0.
         23    2    4    4    0    0 -0.26537299047E+03  0.78568135573E+03  0.43247924014E+03  0.93952656048E+03  0.89184347723E+02 0.  0.
          4    1    3    3  502    0  0.58038999905E+03 -0.51788011992E+03 -0.54469665336E+03  0.94960350346E+03  0.00000000000E+00 0. -1.
         -3    1    3    3    0  502  0.58056323647E+02 -0.89620943477E+02 -0.67446525749E+02  0.12629918472E+03  0.00000000000E+00 0.  1.
         11    1    5    5    0    0 -0.26794684196E+03 -0.11840593744E+03  0.21927783754E+03  0.36592109282E+03  0.00000000000E+00 0. -1.
        -11    1    5    5    0    0 -0.10512649026E+03 -0.59774354891E+02  0.24201512159E+02  0.12332990573E+03  0.00000000000E+00 0.  1.
          1    1    6    6  503    0 -0.25193253227E+03  0.77419614060E+03  0.41197977508E+03  0.91245657431E+03  0.00000000000E+00 0. -1.
         -1    1    6    6    0  503 -0.13440458202E+02  0.11485215139E+02  0.20499465064E+02  0.27069986173E+02  0.00000000000E+00 0.  1.
<mgrwt>
<rscale>  0 0.25038672E+04</rscale>
<asrwt>0</asrwt>
<pdfrwt beam="1">  1        2 0.18775883E+00 0.25038672E+04</pdfrwt>
<pdfrwt beam="2">  1       -1 0.19757659E+00 0.25038672E+04</pdfrwt>
<totfact> 0.29272718E+00</totfact>
</mgrwt>
</event>
<event>
12    6  0.1542110E-007  0.1912202E+04  0.7818608E-02  0.8648806E-01
          2   -1    0    0  501    0  0.00000000000E+00  0.00000000000E+00  0.14480049031E+04  0.14480049031E+04  0.00000000000E+00 0. -1.
         -1   -1    0    0    0  501 -0.00000000000E+00 -0.00000000000E+00 -0.63130282754E+03  0.63130282754E+03  0.00000000000E+00 0.  1.
         24    2    1    2    0    0  0.62972373154E+02  0.63711874514E+03  0.72841153721E+03  0.97300925099E+03  0.79232693926E+02 0.  0.
        254    2    1    2    0    0 -0.62972373154E+02 -0.63711874514E+03  0.88290538301E+02  0.11062984796E+04  0.89789492238E+03 0.  0.
         23    2    4    4    0    0  0.70116531076E+02 -0.78342131695E+03  0.25517104832E+03  0.83198047293E+03  0.91727616703E+02 0.  0.
         23    2    4    4    0    0 -0.13308890423E+03  0.14630257181E+03 -0.16688051002E+03  0.27431800667E+03  0.91017389613E+02 0.  0.
          2    1    3    3  502    0  0.21638150628E+02  0.44859295101E+03  0.46519263108E+03  0.64661273516E+03  0.00000000000E+00 0. -1.
         -1    1    3    3    0  502  0.41334222526E+02  0.18852579413E+03  0.26321890613E+03  0.32639651583E+03  0.00000000000E+00 0.  1.
         11    1    5    5    0    0  0.15935577250E+02 -0.53000142354E+03  0.20212975366E+03  0.56746091397E+03  0.00000000000E+00 0. -1.
        -11    1    5    5    0    0  0.54180953826E+02 -0.25341989341E+03  0.53041294661E+02  0.26451955896E+03  0.00000000000E+00 0.  1.
          4    1    6    6  503    0 -0.82078480130E+02  0.11629644639E+03 -0.16091305388E+03  0.21483656870E+03  0.00000000000E+00 0. -1.
         -4    1    6    6    0  503 -0.51010424099E+02  0.30006125423E+02 -0.59674561354E+01  0.59481437965E+02  0.00000000000E+00 0.  1.
<mgrwt>
<rscale>  0 0.19122025E+04</rscale>
<asrwt>0</asrwt>
<pdfrwt beam="1">  1        2 0.22276998E+00 0.19122025E+04</pdfrwt>
<pdfrwt beam="2">  1       -1 0.97123512E-01 0.19122025E+04</pdfrwt>
<totfact> 0.14755404E+01</totfact>
</mgrwt>
</event>
<event>
12    6  0.1542110E-007  0.1674376E+04  0.7818608E-02  0.8776115E-01
          2   -1    0    0  501    0  0.00000000000E+00  0.00000000000E+00  0.10287336244E+04  0.10287336244E+04  0.00000000000E+00 0. -1.
         -1   -1    0    0    0  501 -0.00000000000E+00 -0.00000000000E+00 -0.68130715902E+03  0.68130715902E+03  0.00000000000E+00 0.  1.
         24    2    1    2    0    0 -0.56682330847E+03 -0.18084459369E+03  0.24026060927E+03  0.64685184302E+03  0.81845686226E+02 0.  0.
        254    2    1    2    0    0  0.56682330847E+03  0.18084459369E+03  0.10716585611E+03  0.10631889404E+04  0.87458148401E+03 0.  0.
         23    2    4    4    0    0 -0.11958035808E+01  0.28460402459E+03 -0.24039130076E+03  0.38365560165E+03  0.91666583012E+02 0.  0.
         23    2    4    4    0    0  0.56801911205E+03 -0.10375943090E+03  0.34755715687E+03  0.67953333875E+03  0.86935896019E+02 0.  0.
          2    1    3    3  502    0 -0.63558869556E+02 -0.13915687234E+02  0.54986801275E+02  0.85187584570E+02  0.00000000000E+00 0. -1.
         -1    1    3    3    0  502 -0.50326443892E+03 -0.16692890645E+03  0.18527380800E+03  0.56166425845E+03  0.00000000000E+00 0.  1.
         11    1    5    5    0    0 -0.18621297116E+02  0.29072499411E+02 -0.63835626802E+02  0.72573756810E+02  0.00000000000E+00 0. -1.
        -11    1    5    5    0    0  0.17425493535E+02  0.25553152518E+03 -0.17655567395E+03  0.31108184484E+03  0.00000000000E+00 0.  1.
          2    1    6    6  503    0  0.12836260299E+03  0.12677765912E+02  0.82670559830E+02  0.15320608688E+03  0.00000000000E+00 0. -1.
         -2    1    6    6    0  503  0.43965650907E+03 -0.11643719682E+03  0.26488659704E+03  0.52632725187E+03  0.00000000000E+00 0.  1.
<mgrwt>
<rscale>  0 0.16743758E+04</rscale>
<asrwt>0</asrwt>
<pdfrwt beam="1">  1        2 0.15826671E+00 0.16743758E+04</pdfrwt>
<pdfrwt beam="2">  1       -1 0.10481649E+00 0.16743758E+04</pdfrwt>
<totfact> 0.22454791E+01</totfact>
</mgrwt>
</event>
<event>
12    6  0.1542110E-007  0.1942541E+04  0.7818608E-02  0.8633966E-01
         -1   -1    0    0    0  501 -0.00000000000E+00  0.00000000000E+00  0.18338201487E+04  0.18338201487E+04  0.00000000000E+00 0.  1.
          2   -1    0    0  501    0  0.00000000000E+00 -0.00000000000E+00 -0.51442685281E+03  0.51442685281E+03  0.00000000000E+00 0. -1.
         24    2    1    2    0    0 -0.17857351206E+02  0.11054668434E+02  0.14377335994E+04  0.14401057657E+04  0.79910091802E+02 0.  0.
        254    2    1    2    0    0  0.17857351206E+02 -0.11054668434E+02 -0.11834030352E+03  0.90814123583E+03  0.90015275708E+03 0.  0.
         23    2    4    4    0    0  0.18455392084E+03 -0.26262484621E+03 -0.37393639228E+03  0.50229272809E+03  0.97147309158E+02 0.  0.
         23    2    4    4    0    0 -0.16669656963E+03  0.25157017778E+03  0.25559608876E+03  0.40584850774E+03  0.91150150684E+02 0.  0.
          4    1    3    3  502    0 -0.69727196706E+01 -0.18984510052E+02  0.10176787104E+03  0.10375803592E+03  0.00000000000E+00 0. -1.
         -3    1    3    3    0  502 -0.10884631535E+02  0.30039178486E+02  0.13359657284E+04  0.13363477298E+04  0.00000000000E+00 0.  1.
         11    1    5    5    0    0  0.16431646690E+03 -0.15525529363E+03 -0.24832950069E+03  0.33581490201E+03  0.00000000000E+00 0. -1.
        -11    1    5    5    0    0  0.20237453937E+02 -0.10736955258E+03 -0.12560689158E+03  0.16647782608E+03  0.00000000000E+00 0.  1.
          1    1    6    6  503    0 -0.83592405637E+02  0.20161728825E+03  0.17956593333E+03  0.28263252753E+03  0.00000000000E+00 0. -1.
         -1    1    6    6    0  503 -0.83104163997E+02  0.49952889529E+02  0.76030155423E+02  0.12321598021E+03  0.00000000000E+00 0.  1.
<mgrwt>
<rscale>  0 0.19425409E+04</rscale>
<asrwt>0</asrwt>
<pdfrwt beam="1">  1        2 0.79142594E-01 0.19425409E+04</pdfrwt>
<pdfrwt beam="2">  1       -1 0.28212617E+00 0.19425409E+04</pdfrwt>
<totfact> 0.27400424E+00</totfact>
</mgrwt>
</event>
<event>
12    6  0.1542110E-007  0.1244182E+04  0.7818608E-02  0.9075039E-01
          2   -1    0    0  501    0  0.00000000000E+00  0.00000000000E+00  0.58008232962E+03  0.58008232962E+03  0.00000000000E+00 0. -1.
         -1   -1    0    0    0  501 -0.00000000000E+00 -0.00000000000E+00 -0.66714209184E+03  0.66714209184E+03  0.00000000000E+00 0.  1.
         24    2    1    2    0    0  0.84538553095E+02  0.27939109865E+03 -0.37402750092E+02  0.30562018914E+03  0.82453510133E+02 0.  0.
        254    2    1    2    0    0 -0.84538553095E+02 -0.27939109865E+03 -0.49657012130E+02  0.94160423231E+03  0.89383810530E+03 0.  0.
         23    2    4    4    0    0  0.11044719471E+03  0.10702028674E+03 -0.35918803536E+03  0.40184553373E+03  0.93871527346E+02 0.  0.
         23    2    4    4    0    0 -0.19498574780E+03 -0.38641138538E+03  0.30953102323E+03  0.53975869858E+03  0.90536168181E+02 0.  0.
          2    1    3    3  502    0  0.77543857895E+02  0.28347000565E+03 -0.31434494965E+02  0.29556119752E+03  0.00000000000E+00 0. -1.
         -1    1    3    3    0  502  0.69946951996E+01 -0.40789070053E+01 -0.59682551266E+01  0.10058991627E+02  0.00000000000E+00 0.  1.
         11    1    5    5    0    0  0.97824913473E+02  0.38803813141E+02 -0.16569073440E+03  0.19628772014E+03  0.00000000000E+00 0. -1.
        -11    1    5    5    0    0  0.12622281234E+02  0.68216473594E+02 -0.19349730096E+03  0.20555781360E+03  0.00000000000E+00 0.  1.
          1    1    6    6  503    0 -0.27927651729E+02 -0.14960998922E+03  0.11423568113E+03  0.19029685613E+03  0.00000000000E+00 0. -1.
         -1    1    6    6    0  503 -0.16705809607E+03 -0.23680139616E+03  0.19529534209E+03  0.34946184245E+03  0.00000000000E+00 0.  1.
<mgrwt>
<rscale>  0 0.12441822E+04</rscale>
<asrwt>0</asrwt>
<pdfrwt beam="1">  1        2 0.89243436E-01 0.12441822E+04</pdfrwt>
<pdfrwt beam="2">  1       -1 0.10263724E+00 0.12441822E+04</pdfrwt>
<totfact> 0.52172722E+01</totfact>
</mgrwt>
</event>
<event>
12    6  0.1542110E-007  0.1604611E+04  0.7818608E-02  0.8817720E-01
         -1   -1    0    0    0  501 -0.00000000000E+00  0.00000000000E+00  0.44058756449E+03  0.44058756449E+03  0.00000000000E+00 0.  1.
          2   -1    0    0  501    0  0.00000000000E+00 -0.00000000000E+00 -0.14609901278E+04  0.14609901278E+04  0.00000000000E+00 0. -1.
         24    2    1    2    0    0 -0.10820514866E+03 -0.13487752285E+03  0.26252322409E+03  0.32427078989E+03  0.79578901886E+02 0.  0.
        254    2    1    2    0    0  0.10820514866E+03  0.13487752285E+03 -0.12829257874E+04  0.15773069024E+04  0.90116490611E+03 0.  0.
         23    2    4    4    0    0  0.44561247612E+03 -0.31972274312E+02 -0.37280320524E+03  0.58923858276E+03  0.92882573068E+02 0.  0.
         23    2    4    4    0    0 -0.33740732746E+03  0.16684979716E+03 -0.91012258219E+03  0.98806831965E+03  0.79204357560E+02 0.  0.
          4    1    3    3  502    0 -0.46126560256E+02 -0.25253190224E+02  0.31969018089E+02  0.61541866198E+02  0.00000000000E+00 0. -1.
         -3    1    3    3    0  502 -0.62078588403E+02 -0.10962433262E+03  0.23055420600E+03  0.26272892369E+03  0.00000000000E+00 0.  1.
         11    1    5    5    0    0  0.15241848117E+03  0.15477320863E+02 -0.82876041242E+02  0.17418202857E+03  0.00000000000E+00 0.  1.
        -11    1    5    5    0    0  0.29319399495E+03 -0.47449595175E+02 -0.28992716400E+03  0.41505655420E+03  0.00000000000E+00 0. -1.
          3    1    6    6  503    0 -0.29528960952E+03  0.16005098897E+03 -0.73965850801E+03  0.81234658923E+03  0.00000000000E+00 0. -1.
         -3    1    6    6    0  503 -0.42117717939E+02  0.67988081850E+01 -0.17046407418E+03  0.17572173042E+03  0.00000000000E+00 0.  1.
<mgrwt>
<rscale>  0 0.16046110E+04</rscale>
<asrwt>0</asrwt>
<pdfrwt beam="1">  1        2 0.22476771E+00 0.16046110E+04</pdfrwt>
<pdfrwt beam="2">  1       -1 0.67782703E-01 0.16046110E+04</pdfrwt>
<totfact> 0.32156256E+01</totfact>
</mgrwt>
</event>
<event>
12    6  0.1542110E-007  0.1384974E+04  0.7818608E-02  0.8964768E-01
          2   -1    0    0  501    0  0.00000000000E+00  0.00000000000E+00  0.21770902855E+04  0.21770902855E+04  0.00000000000E+00 0. -1.
         -1   -1    0    0    0  501 -0.00000000000E+00 -0.00000000000E+00 -0.22026551388E+03  0.22026551388E+03  0.00000000000E+00 0.  1.
         24    2    1    2    0    0 -0.10453060059E+03  0.22371020941E+03  0.34800214901E+02  0.26103050224E+03  0.77155452739E+02 0.  0.
        254    2    1    2    0    0  0.10453060059E+03 -0.22371020941E+03  0.19220245567E+04  0.21363252972E+04  0.89929665537E+03 0.  0.
         23    2    4    4    0    0 -0.14639735318E+03 -0.39780938985E+03  0.42789329068E+03  0.60903522159E+03  0.90259277972E+02 0.  0.
         23    2    4    4    0    0  0.25092795377E+03  0.17409918045E+03  0.14941312661E+04  0.15272900756E+04  0.83134662557E+02 0.  0.
          4    1    3    3  502    0 -0.35693412110E+02  0.13868011641E+03  0.47551395673E+02  0.15088846737E+03  0.00000000000E+00 0. -1.
         -3    1    3    3    0  502 -0.68837188477E+02  0.85030092999E+02 -0.12751180771E+02  0.11014203486E+03  0.00000000000E+00 0.  1.
         11    1    5    5    0    0 -0.49432121278E+02 -0.26138535007E+03  0.26381038884E+03  0.37464884506E+03  0.00000000000E+00 0. -1.
        -11    1    5    5    0    0 -0.96965231902E+02 -0.13642403979E+03  0.16408290184E+03  0.23438637653E+03  0.00000000000E+00 0.  1.
          2    1    6    6  503    0  0.11103061042E+03  0.11066691308E+03  0.90419928435E+03  0.91768802320E+03  0.00000000000E+00 0. -1.
         -2    1    6    6    0  503  0.13989734335E+03  0.63432267365E+02  0.58993198171E+03  0.60960205238E+03  0.00000000000E+00 0.  1.
<mgrwt>
<rscale>  0 0.13849735E+04</rscale>
<asrwt>0</asrwt>
<pdfrwt beam="1">  1        2 0.33493695E+00 0.13849735E+04</pdfrwt>
<pdfrwt beam="2">  1       -1 0.33887004E-01 0.13849735E+04</pdfrwt>
<totfact> 0.48612370E+01</totfact>
</mgrwt>
</event>
<event>
12    6  0.1542110E-007  0.1344206E+04  0.7818608E-02  0.8995226E-01
         -1   -1    0    0    0  501 -0.00000000000E+00  0.00000000000E+00  0.28284363661E+03  0.28284363661E+03  0.00000000000E+00 0.  1.
          2   -1    0    0  501    0  0.00000000000E+00 -0.00000000000E+00 -0.15970752968E+04  0.15970752968E+04  0.00000000000E+00 0. -1.
         24    2    1    2    0    0  0.19775762995E+03 -0.24008752928E+03 -0.69107473052E+03  0.76202095279E+03  0.79633833272E+02 0.  0.
        254    2    1    2    0    0 -0.19775762995E+03  0.24008752928E+03 -0.62315692970E+03  0.11178979807E+04  0.87442623142E+03 0.  0.
         23    2    4    4    0    0  0.32604532196E+03  0.20256785672E+03 -0.22142768929E+03  0.45027382319E+03  0.79856156442E+02 0.  0.
         23    2    4    4    0    0 -0.52380295191E+03  0.37519672569E+02 -0.40172924041E+03  0.66762415746E+03  0.92511484481E+02 0.  0.
          2    1    3    3  502    0  0.25119755191E+02 -0.21757259245E+02 -0.14902466004E+03  0.15268506715E+03  0.00000000000E+00 0. -1.
         -1    1    3    3    0  502  0.17263787476E+03 -0.21833027004E+03 -0.54205007048E+03  0.60933588563E+03  0.00000000000E+00 0.  1.
         11    1    5    5    0    0  0.24309044232E+03  0.10865769435E+03 -0.13991721307E+03  0.30079275956E+03  0.00000000000E+00 0. -1.
        -11    1    5    5    0    0  0.82954879640E+02  0.93910162369E+02 -0.81510476216E+02  0.14948106363E+03  0.00000000000E+00 0.  1.
          1    1    6    6  503    0 -0.51582570032E+03  0.46732413986E+02 -0.37886666329E+03  0.64171646401E+03  0.00000000000E+00 0. -1.
         -1    1    6    6    0  503 -0.79772515952E+01 -0.92127414172E+01 -0.22862577122E+02  0.25907693454E+02  0.00000000000E+00 0.  1.
<mgrwt>
<rscale>  0 0.13442062E+04</rscale>
<asrwt>0</asrwt>
<pdfrwt beam="1">  1        2 0.24570390E+00 0.13442062E+04</pdfrwt>
<pdfrwt beam="2">  1       -1 0.43514404E-01 0.13442062E+04</pdfrwt>
<totfact> 0.64968200E+01</totfact>
</mgrwt>
</event>
<event>
12    6  0.1542110E-007  0.3342632E+04  0.7818608E-02  0.8152132E-01
          2   -1    0    0  501    0  0.00000000000E+00  0.00000000000E+00  0.29175924645E+04  0.29175924645E+04  0.00000000000E+00 0. -1.
         -1   -1    0    0    0  501 -0.00000000000E+00 -0.00000000000E+00 -0.95739772651E+03  0.95739772651E+03  0.00000000000E+00 0.  1.
         24    2    1    2    0    0 -0.56063775608E+03 -0.18857301557E+03 -0.74974986609E+03  0.95828486146E+03  0.79438896388E+02 0.  0.
        254    2    1    2    0    0  0.56063775608E+03  0.18857301557E+03  0.27099446041E+04  0.29167053296E+04  0.90193999054E+03 0.  0.
         23    2    4    4    0    0 -0.23668829028E+03  0.10041387154E+03  0.67834398868E+03  0.73057453223E+03  0.86511778437E+02 0.  0.
         23    2    4    4    0    0  0.79732604637E+03  0.88159144029E+02  0.20316006154E+04  0.21861307973E+04  0.90917235174E+02 0.  0.
          2    1    3    3  502    0 -0.19490054414E+03 -0.58989751893E+02 -0.20023513057E+03  0.28558732543E+03  0.00000000000E+00 0. -1.
         -1    1    3    3    0  502 -0.36573721195E+03 -0.12958326367E+03 -0.54951473552E+03  0.67269753603E+03  0.00000000000E+00 0.  1.
         11    1    5    5    0    0 -0.33283395360E+02  0.42013666500E+02  0.20835713545E+03  0.21514095025E+03  0.00000000000E+00 0.  1.
        -11    1    5    5    0    0 -0.20340489492E+03  0.58400205037E+02  0.46998685323E+03  0.51543358198E+03  0.00000000000E+00 0. -1.
          2    1    6    6  503    0  0.79663926457E+03  0.90402197689E+02  0.20312557573E+04  0.21837597457E+04  0.00000000000E+00 0. -1.
         -2    1    6    6    0  503  0.68678179576E+00 -0.22430536601E+01  0.34485811226E+00  0.23710516811E+01  0.00000000000E+00 0.  1.
<mgrwt>
<rscale>  0 0.33426315E+04</rscale>
<asrwt>0</asrwt>
<pdfrwt beam="1">  1        2 0.44886038E+00 0.33426315E+04</pdfrwt>
<pdfrwt beam="2">  1       -1 0.14729196E+00 0.33426315E+04</pdfrwt>
<totfact> 0.67833790E-01</totfact>
</mgrwt>
</event>
<event>
12    6  0.1542110E-007  0.1631127E+04  0.7818608E-02  0.8801651E-01
          2   -1    0    0  501    0  0.00000000000E+00  0.00000000000E+00  0.18450556083E+04  0.18450556083E+04  0.00000000000E+00 0. -1.
         -1   -1    0    0    0  501 -0.00000000000E+00 -0.00000000000E+00 -0.36050050238E+03  0.36050050238E+03  0.00000000000E+00 0.  1.
         24    2    1    2    0    0 -0.38817132188E+03 -0.19912486609E+03  0.10146676156E+04  0.11074412717E+04  0.80920409975E+02 0.  0.
        254    2    1    2    0    0  0.38817132188E+03  0.19912486609E+03  0.46988749028E+03  0.10981148389E+04  0.89147869212E+03 0.  0.
         23    2    4    4    0    0  0.71839883320E+02 -0.13013345583E+03  0.59240998497E+03  0.61690851325E+03  0.86780402495E+02 0.  0.
         23    2    4    4    0    0  0.31633143856E+03  0.32925832192E+03 -0.12252249469E+03  0.48120632568E+03  0.89839549131E+02 0.  0.
          4    1    3    3  502    0 -0.14442379512E+03 -0.95201980410E+02  0.49043856372E+03  0.52004964614E+03  0.00000000000E+00 0. -1.
         -3    1    3    3    0  502 -0.24374752676E+03 -0.10392288568E+03  0.52422905190E+03  0.58739162561E+03  0.00000000000E+00 0.  1.
         11    1    5    5    0    0 -0.13264102179E+02  0.24183493165E+01  0.30709599161E+02  0.33538996716E+02  0.00000000000E+00 0.  1.
        -11    1    5    5    0    0  0.85103985499E+02 -0.13255180514E+03  0.56170038581E+03  0.58336951653E+03  0.00000000000E+00 0. -1.
          2    1    6    6  503    0  0.22215953600E+03  0.23822741359E+03 -0.12831160602E+03  0.35010145424E+03  0.00000000000E+00 0. -1.
         -2    1    6    6    0  503  0.94171902566E+02  0.91030908326E+02  0.57891113326E+01  0.13110487143E+03  0.00000000000E+00 0.  1.
<mgrwt>
<rscale>  0 0.16311266E+04</rscale>
<asrwt>0</asrwt>
<pdfrwt beam="1">  1        2 0.28385470E+00 0.16311266E+04</pdfrwt>
<pdfrwt beam="2">  1       -1 0.55461617E-01 0.16311266E+04</pdfrwt>
<totfact> 0.29179653E+01</totfact>
</mgrwt>
</event>
<event>
12    6  0.1542110E-007  0.1123920E+04  0.7818608E-02  0.9182186E-01
         -1   -1    0    0    0  501 -0.00000000000E+00  0.00000000000E+00  0.11264568109E+03  0.11264568109E+03  0.00000000000E+00 0.  1.
          2   -1    0    0  501    0  0.00000000000E+00 -0.00000000000E+00 -0.28034741664E+04  0.28034741664E+04  0.00000000000E+00 0. -1.
         24    2    1    2    0    0  0.13962338684E+03 -0.12934233055E+02 -0.81573502826E+03  0.83141664238E+03  0.78536694416E+02 0.  0.
        254    2    1    2    0    0 -0.13962338684E+03  0.12934233055E+02 -0.18750934571E+04  0.20847032051E+04  0.90019442132E+03 0.  0.
         23    2    4    4    0    0  0.19299766755E+03 -0.24947142375E+03 -0.14116663773E+04  0.14494221026E+04  0.92403352588E+02 0.  0.
         23    2    4    4    0    0 -0.33262105440E+03  0.26240565680E+03 -0.46342707973E+03  0.63528110255E+03  0.96560480954E+02 0.  0.
          2    1    3    3  502    0  0.97361429554E+02  0.25547832875E+02 -0.44055735874E+03  0.45191008626E+03  0.00000000000E+00 0. -1.
         -1    1    3    3    0  502  0.42261957290E+02 -0.38482065930E+02 -0.37517766952E+03  0.37950655612E+03  0.00000000000E+00 0.  1.
         11    1    5    5    0    0  0.20289662511E+03 -0.23308532674E+03 -0.13085936883E+04  0.13445866469E+04  0.00000000000E+00 0. -1.
        -11    1    5    5    0    0 -0.98989575550E+01 -0.16386097005E+02 -0.10307268904E+03  0.10483545565E+03  0.00000000000E+00 0.  1.
          2    1    6    6  503    0 -0.25852171655E+03  0.18454758838E+03 -0.28378915659E+03  0.42594316017E+03  0.00000000000E+00 0. -1.
         -2    1    6    6    0  503 -0.74099337853E+02  0.77858068425E+02 -0.17963792314E+03  0.20933794237E+03  0.00000000000E+00 0.  1.
<mgrwt>
<rscale>  0 0.11239204E+04</rscale>
<asrwt>0</asrwt>
<pdfrwt beam="1">  1        2 0.43130369E+00 0.11239204E+04</pdfrwt>
<pdfrwt beam="2">  1       -1 0.17330106E-01 0.11239204E+04</pdfrwt>
<totfact> 0.68389407E+01</totfact>
</mgrwt>
</event>
<event>
12    6  0.1542110E-007  0.1548239E+04  0.7818608E-02  0.8852994E-01
          2   -1    0    0  501    0  0.00000000000E+00  0.00000000000E+00  0.19168258973E+04  0.19168258973E+04  0.00000000000E+00 0. -1.
         -1   -1    0    0    0  501 -0.00000000000E+00 -0.00000000000E+00 -0.31263175227E+03  0.31263175227E+03  0.00000000000E+00 0.  1.
         24    2    1    2    0    0  0.34428803813E+03  0.26927048008E+03  0.15025552823E+03  0.46963404537E+03  0.83298068195E+02 0.  0.
        254    2    1    2    0    0 -0.34428803813E+03 -0.26927048008E+03  0.14539386168E+04  0.17598236042E+04  0.88994425209E+03 0.  0.
         23    2    4    4    0    0  0.41531483105E+02 -0.45161890989E+03  0.37619059798E+03  0.59618414861E+03  0.90728546721E+02 0.  0.
         23    2    4    4    0    0 -0.38581952123E+03  0.18234842980E+03  0.10777480188E+04  0.11636394556E+04  0.10202126112E+03 0.  0.
          2    1    3    3  502    0  0.52643222901E+02  0.20118461168E+02  0.44316015879E+02  0.71693588699E+02  0.00000000000E+00 0. -1.
         -1    1    3    3    0  502  0.29164481523E+03  0.24915201892E+03  0.10593951235E+03  0.39794045667E+03  0.00000000000E+00 0.  1.
         11    1    5    5    0    0  0.17966928101E+02 -0.36090702909E+03  0.33860118642E+03  0.49520446040E+03  0.00000000000E+00 0. -1.
        -11    1    5    5    0    0  0.23564555004E+02 -0.90711880800E+02  0.37589411560E+02  0.10097968822E+03  0.00000000000E+00 0.  1.
          1    1    6    6  503    0 -0.37302388373E+03  0.19473599332E+03  0.10273825551E+04  0.11102179243E+04  0.00000000000E+00 0. -1.
         -1    1    6    6    0  503 -0.12795637498E+02 -0.12387563516E+02  0.50365463727E+02  0.53421531289E+02  0.00000000000E+00 0.  1.
<mgrwt>
<rscale>  0 0.15482385E+04</rscale>
<asrwt>0</asrwt>
<pdfrwt beam="1">  1        2 0.29489628E+00 0.15482385E+04</pdfrwt>
<pdfrwt beam="2">  1       -1 0.48097194E-01 0.15482385E+04</pdfrwt>
<totfact> 0.35219901E+01</totfact>
</mgrwt>
</event>
<event>
12    6  0.1542110E-007  0.2141277E+04  0.7818608E-02  0.8543275E-01
         -1   -1    0    0    0  501 -0.00000000000E+00  0.00000000000E+00  0.23873441314E+03  0.23873441314E+03  0.00000000000E+00 0.  1.
          2   -1    0    0  501    0  0.00000000000E+00 -0.00000000000E+00 -0.48014312458E+04  0.48014312458E+04  0.00000000000E+00 0. -1.
         24    2    1    2    0    0  0.67997019084E+03  0.99700352629E+02 -0.58549171663E+03  0.90647685020E+03  0.81241054588E+02 0.  0.
        254    2    1    2    0    0 -0.67997019084E+03 -0.99700352629E+02 -0.39772051160E+04  0.41336888087E+04  0.89270544517E+03 0.  0.
         23    2    4    4    0    0 -0.35733655964E+03  0.23999169663E+03 -0.73371267397E+03  0.85523598276E+03  0.88367793640E+02 0.  0.
         23    2    4    4    0    0 -0.32263363121E+03 -0.33969204926E+03 -0.32434924420E+04  0.32784528260E+04  0.92339386125E+02 0.  0.
          2    1    3    3  502    0  0.15421243900E+03 -0.55033877633E+01 -0.15672619351E+03  0.21994286383E+03  0.00000000000E+00 0. -1.
         -1    1    3    3    0  502  0.52575775184E+03  0.10520374039E+03 -0.42876552312E+03  0.68653398636E+03  0.00000000000E+00 0.  1.
         11    1    5    5    0    0 -0.17631680024E+02 -0.10499479083E+01 -0.10223164847E+02  0.20408126582E+02  0.00000000000E+00 0. -1.
        -11    1    5    5    0    0 -0.33970487961E+03  0.24104164454E+03 -0.72348950912E+03  0.83482785617E+03  0.00000000000E+00 0.  1.
          1    1    6    6  503    0 -0.49617079008E+02 -0.10954077906E+03 -0.77999630508E+03  0.78921180475E+03  0.00000000000E+00 0. -1.
         -1    1    6    6    0  503 -0.27301655220E+03 -0.23015127020E+03 -0.24634961369E+04  0.24892410212E+04  0.00000000000E+00 0.  1.
<mgrwt>
<rscale>  0 0.21412771E+04</rscale>
<asrwt>0</asrwt>
<pdfrwt beam="1">  1        2 0.73868176E+00 0.21412771E+04</pdfrwt>
<pdfrwt beam="2">  1       -1 0.36728370E-01 0.21412771E+04</pdfrwt>
<totfact> 0.44852925E-01</totfact>
</mgrwt>
</event>
<event>
12    6  0.1542110E-007  0.2417438E+04  0.7818608E-02  0.8433004E-01
         -1   -1    0    0    0  501 -0.00000000000E+00  0.00000000000E+00  0.54014286330E+03  0.54014286330E+03  0.00000000000E+00 0.  1.
          2   -1    0    0  501    0  0.00000000000E+00 -0.00000000000E+00 -0.27048431604E+04  0.27048431604E+04  0.00000000000E+00 0. -1.
         24    2    1    2    0    0  0.87269419815E+03 -0.21717919296E+02 -0.17701792319E+03  0.89453528609E+03  0.82408745982E+02 0.  0.
        254    2    1    2    0    0 -0.87269419815E+03  0.21717919296E+02 -0.19876823739E+04  0.23504507376E+04  0.90092764357E+03 0.  0.
         23    2    4    4    0    0 -0.24044285888E+03 -0.15227590970E+03 -0.50788944369E+02  0.30352774579E+03  0.92460015856E+02 0.  0.
         23    2    4    4    0    0 -0.63225133927E+03  0.17399382900E+03 -0.19368934296E+04  0.20469229918E+04  0.91224824221E+02 0.  0.
          4    1    3    3  502    0  0.49608188346E+03 -0.42485805482E+02 -0.72589611935E+02  0.50316153522E+03  0.00000000000E+00 0. -1.
         -3    1    3    3    0  502  0.37661231470E+03  0.20767886185E+02 -0.10442831126E+03  0.39137375087E+03  0.00000000000E+00 0.  1.
         11    1    5    5    0    0 -0.11181684128E+03 -0.93651005576E+02 -0.68367868455E+02  0.16108284290E+03  0.00000000000E+00 0. -1.
        -11    1    5    5    0    0 -0.12862601761E+03 -0.58624904126E+02  0.17578924085E+02  0.14244490289E+03  0.00000000000E+00 0.  1.
          4    1    6    6  503    0 -0.61475737259E+02  0.43927356633E+02 -0.18618414559E+03  0.20093136888E+03  0.00000000000E+00 0. -1.
         -4    1    6    6    0  503 -0.57077560201E+03  0.13006647237E+03 -0.17507092840E+04  0.18459916230E+04  0.00000000000E+00 0.  1.
<mgrwt>
<rscale>  0 0.24174381E+04</rscale>
<asrwt>0</asrwt>
<pdfrwt beam="1">  1        2 0.41612972E+00 0.24174381E+04</pdfrwt>
<pdfrwt beam="2">  1       -1 0.83098901E-01 0.24174381E+04</pdfrwt>
<totfact> 0.38738743E+00</totfact>
</mgrwt>
</event>
<event>
12    6  0.1542110E-007  0.3397217E+04  0.7818608E-02  0.8138590E-01
         -1   -1    0    0    0  501 -0.00000000000E+00  0.00000000000E+00  0.11011351917E+04  0.11011351917E+04  0.00000000000E+00 0.  1.
          2   -1    0    0  501    0  0.00000000000E+00 -0.00000000000E+00 -0.26202690692E+04  0.26202690692E+04  0.00000000000E+00 0. -1.
         24    2    1    2    0    0  0.13525417734E+04 -0.48962682512E+03 -0.14220870770E+04  0.20244472877E+04  0.83375593033E+02 0.  0.
        254    2    1    2    0    0 -0.13525417734E+04  0.48962682512E+03 -0.97046800591E+02  0.16969569732E+04  0.89506491973E+03 0.  0.
         23    2    4    4    0    0 -0.98003301722E+03  0.13431541379E+03 -0.42403165466E+03  0.10802252333E+04  0.92619465123E+02 0.  0.
         23    2    4    4    0    0 -0.37250875620E+03  0.35531141133E+03  0.32698485407E+03  0.61673173984E+03  0.91814877192E+02 0.  0.
          2    1    3    3  502    0  0.84745104933E+03 -0.28985732782E+03 -0.93695208138E+03  0.12961750477E+04  0.00000000000E+00 0. -1.
         -1    1    3    3    0  502  0.50509072409E+03 -0.19976949730E+03 -0.48513499562E+03  0.72827224003E+03  0.00000000000E+00 0.  1.
         11    1    5    5    0    0 -0.86659493728E+03  0.12864230245E+03 -0.40455625921E+03  0.96498776892E+03  0.00000000000E+00 0. -1.
        -11    1    5    5    0    0 -0.11343807995E+03  0.56731113406E+01 -0.19475395450E+02  0.11523746440E+03  0.00000000000E+00 0.  1.
          4    1    6    6  503    0 -0.34199661200E+03  0.35418152142E+03  0.30950171020E+03  0.58154754006E+03  0.00000000000E+00 0. -1.
         -4    1    6    6    0  503 -0.30512144197E+02  0.11298899104E+01  0.17483143870E+02  0.35184199782E+02  0.00000000000E+00 0.  1.
<mgrwt>
<rscale>  0 0.33972168E+04</rscale>
<asrwt>0</asrwt>
<pdfrwt beam="1">  1        2 0.40311832E+00 0.33972168E+04</pdfrwt>
<pdfrwt beam="2">  1       -1 0.16940542E+00 0.33972168E+04</pdfrwt>
<totfact> 0.69268522E-01</totfact>
</mgrwt>
</event>
<event>
12    6  0.1542110E-007  0.2184958E+04  0.7818608E-02  0.8524715E-01
          2   -1    0    0  501    0  0.00000000000E+00  0.00000000000E+00  0.23550419294E+04  0.23550419294E+04  0.00000000000E+00 0. -1.
         -1   -1    0    0    0  501 -0.00000000000E+00 -0.00000000000E+00 -0.50678938025E+03  0.50678938025E+03  0.00000000000E+00 0.  1.
         24    2    1    2    0    0 -0.38722780978E+03  0.13101418827E+03  0.18224014425E+04  0.18695501542E+04  0.83430611944E+02 0.  0.
        254    2    1    2    0    0  0.38722780978E+03 -0.13101418827E+03  0.25851106617E+02  0.99228115547E+03  0.90379395749E+03 0.  0.
         23    2    4    4    0    0 -0.25310973817E+03 -0.10861593391E+03 -0.14164841165E+03  0.32354162035E+03  0.93557185274E+02 0.  0.
         23    2    4    4    0    0  0.64033754796E+03 -0.22398254355E+02  0.16749951827E+03  0.66873953512E+03  0.92858064254E+02 0.  0.
          2    1    3    3  502    0 -0.33660841874E+03  0.97729117821E+02  0.14203208603E+04  0.14629311516E+04  0.00000000000E+00 0. -1.
         -1    1    3    3    0  502 -0.50619391040E+02  0.33285070445E+02  0.40208058219E+03  0.40661900256E+03  0.00000000000E+00 0.  1.
         11    1    5    5    0    0 -0.34249356522E+02  0.51144395977E+01 -0.49143522636E+02  0.60118730290E+02  0.00000000000E+00 0. -1.
        -11    1    5    5    0    0 -0.21886038165E+03 -0.11373037351E+03 -0.92504889018E+02  0.26342289006E+03  0.00000000000E+00 0.  1.
          4    1    6    6  503    0  0.47626476813E+02  0.23097721636E+02  0.15647092352E+02  0.55196173215E+02  0.00000000000E+00 0. -1.
         -4    1    6    6    0  503  0.59271107114E+03 -0.45495975991E+02  0.15185242592E+03  0.61354336191E+03  0.00000000000E+00 0.  1.
<mgrwt>
<rscale>  0 0.21849579E+04</rscale>
<asrwt>0</asrwt>
<pdfrwt beam="1">  1        2 0.36231414E+00 0.21849579E+04</pdfrwt>
<pdfrwt beam="2">  1       -1 0.77967598E-01 0.21849579E+04</pdfrwt>
<totfact> 0.72379070E+00</totfact>
</mgrwt>
</event>
<event>
12    6  0.1542110E-007  0.1691039E+04  0.7818608E-02  0.8766492E-01
          2   -1    0    0  501    0  0.00000000000E+00  0.00000000000E+00  0.18376881688E+04  0.18376881688E+04  0.00000000000E+00 0. -1.
         -1   -1    0    0    0  501 -0.00000000000E+00 -0.00000000000E+00 -0.38902293477E+03  0.38902293477E+03  0.00000000000E+00 0.  1.
         24    2    1    2    0    0  0.33172521691E+03 -0.35743887546E+03  0.58731935092E+02  0.49762649860E+03  0.79865653979E+02 0.  0.
        254    2    1    2    0    0 -0.33172521691E+03  0.35743887546E+03  0.13899332990E+04  0.17290846050E+04  0.90554670032E+03 0.  0.
         23    2    4    4    0    0  0.23039446835E+03 -0.11396712133E+03  0.52515661253E+03  0.59189654833E+03  0.92097450880E+02 0.  0.
         23    2    4    4    0    0 -0.56211968526E+03  0.47140599679E+03  0.86477668644E+03  0.11371880567E+04  0.84591988134E+02 0.  0.
          2    1    3    3  502    0  0.21938419948E+03 -0.19256374626E+03  0.91674740895E+01  0.29205182063E+03  0.00000000000E+00 0. -1.
         -1    1    3    3    0  502  0.11234101743E+03 -0.16487512920E+03  0.49564461003E+02  0.20557467796E+03  0.00000000000E+00 0.  1.
         11    1    5    5    0    0  0.65489443037E+02 -0.79534919377E+02  0.23061429218E+03  0.25258191207E+03  0.00000000000E+00 0. -1.
        -11    1    5    5    0    0  0.16490502531E+03 -0.34432201955E+02  0.29454232035E+03  0.33931463626E+03  0.00000000000E+00 0.  1.
          3    1    6    6  503    0 -0.48650469537E+03  0.43924961535E+03  0.75041744422E+03  0.99637010382E+03  0.00000000000E+00 0. -1.
         -3    1    6    6    0  503 -0.75614989888E+02  0.32156381446E+02  0.11435924222E+03  0.14081795285E+03  0.00000000000E+00 0.  1.
<mgrwt>
<rscale>  0 0.16910386E+04</rscale>
<asrwt>0</asrwt>
<pdfrwt beam="1">  1        2 0.28272125E+00 0.16910386E+04</pdfrwt>
<pdfrwt beam="2">  1       -1 0.59849683E-01 0.16910386E+04</pdfrwt>
<totfact> 0.25244874E+01</totfact>
</mgrwt>
</event>
<event>
12    6  0.1542110E-007  0.1747146E+04  0.7818608E-02  0.8734923E-01
          2   -1    0    0  501    0  0.00000000000E+00  0.00000000000E+00  0.10098645324E+04  0.10098645324E+04  0.00000000000E+00 0. -1.
         -1   -1    0    0    0  501 -0.00000000000E+00 -0.00000000000E+00 -0.75567567077E+03  0.75567567077E+03  0.00000000000E+00 0.  1.
         24    2    1    2    0    0  0.25793148732E+03 -0.37459444532E+02 -0.49404146741E+03  0.56432307769E+03  0.80322489768E+02 0.  0.
        254    2    1    2    0    0 -0.25793148732E+03  0.37459444532E+02  0.74823032903E+03  0.12012171255E+04  0.90285220003E+03 0.  0.
         23    2    4    4    0    0 -0.42784253319E+03  0.35464808272E+03  0.38810583389E+03  0.68390249490E+03  0.90950472486E+02 0.  0.
         23    2    4    4    0    0  0.16991104587E+03 -0.31718863819E+03  0.36012449514E+03  0.51731463057E+03  0.91904185399E+02 0.  0.
          2    1    3    3  502    0  0.10249086118E+03 -0.29362914766E+02 -0.12815008689E+03  0.16670033641E+03  0.00000000000E+00 0. -1.
         -1    1    3    3    0  502  0.15544062614E+03 -0.80965297659E+01 -0.36589138051E+03  0.39762274128E+03  0.00000000000E+00 0.  1.
         11    1    5    5    0    0 -0.11375475482E+03  0.11582918188E+03  0.16099306115E+03  0.22863794383E+03  0.00000000000E+00 0.  1.
        -11    1    5    5    0    0 -0.31408777837E+03  0.23881890085E+03  0.22711277274E+03  0.45526455107E+03  0.00000000000E+00 0. -1.
          1    1    6    6  503    0  0.13661713160E+03 -0.24640404787E+03  0.22247321374E+03  0.35898959078E+03  0.00000000000E+00 0. -1.
         -1    1    6    6    0  503  0.33293914269E+02 -0.70784590322E+02  0.13765128140E+03  0.15832503979E+03  0.00000000000E+00 0.  1.
<mgrwt>
<rscale>  0 0.17471463E+04</rscale>
<asrwt>0</asrwt>
<pdfrwt beam="1">  1        2 0.15536377E+00 0.17471463E+04</pdfrwt>
<pdfrwt beam="2">  1       -1 0.11625780E+00 0.17471463E+04</pdfrwt>
<totfact> 0.17955467E+01</totfact>
</mgrwt>
</event>
<event>
12    6  0.1542110E-007  0.4194561E+04  0.7818608E-02  0.7966408E-01
         -1   -1    0    0    0  501 -0.00000000000E+00  0.00000000000E+00  0.19085518236E+04  0.19085518236E+04  0.00000000000E+00 0.  1.
          2   -1    0    0  501    0  0.00000000000E+00 -0.00000000000E+00 -0.23046722392E+04  0.23046722392E+04  0.00000000000E+00 0. -1.
         24    2    1    2    0    0  0.13114309708E+04  0.11013765957E+04 -0.12288241521E+04  0.21092654433E+04  0.78168514381E+02 0.  0.
        254    2    1    2    0    0 -0.13114309708E+04 -0.11013765957E+04  0.83270373646E+03  0.21039586195E+04  0.89463107666E+03 0.  0.
         23    2    4    4    0    0 -0.11812098735E+04 -0.99538108706E+03  0.10063517220E+04  0.18454781166E+04  0.83698366055E+02 0.  0.
         23    2    4    4    0    0 -0.13022109728E+03 -0.10599550863E+03 -0.17364798559E+03  0.25848050297E+03  0.92010681411E+02 0.  0.
          2    1    3    3  502    0  0.10631493510E+04  0.87829521384E+03 -0.10242354592E+04  0.17177739377E+04  0.00000000000E+00 0. -1.
         -1    1    3    3    0  502  0.24828161975E+03  0.22308138184E+03 -0.20458869292E+03  0.39149150553E+03  0.00000000000E+00 0.  1.
         11    1    5    5    0    0 -0.77214621093E+03 -0.63454377401E+03  0.69604148112E+03  0.12179200777E+04  0.00000000000E+00 0. -1.
        -11    1    5    5    0    0 -0.40906366259E+03 -0.36083731305E+03  0.31031024093E+03  0.62755803888E+03  0.00000000000E+00 0.  1.
          2    1    6    6  503    0 -0.21831728187E+02  0.14727611492E+02 -0.41874454598E+02  0.49467128922E+02  0.00000000000E+00 0.  1.
         -2    1    6    6    0  503 -0.10838936909E+03 -0.12072312012E+03 -0.13177353099E+03  0.20901337405E+03  0.00000000000E+00 0. -1.
<mgrwt>
<rscale>  0 0.41945614E+04</rscale>
<asrwt>0</asrwt>
<pdfrwt beam="1">  1        2 0.35456496E+00 0.41945614E+04</pdfrwt>
<pdfrwt beam="2">  1       -1 0.29362336E+00 0.41945614E+04</pdfrwt>
<totfact> 0.14455092E-01</totfact>
</mgrwt>
</event>
<event>
12    6  0.1542110E-007  0.2674190E+04  0.7818608E-02  0.8343428E-01
         -1   -1    0    0    0  501 -0.00000000000E+00  0.00000000000E+00  0.18046491605E+04  0.18046491605E+04  0.00000000000E+00 0.  1.
          2   -1    0    0  501    0  0.00000000000E+00 -0.00000000000E+00 -0.99067635251E+03  0.99067635251E+03  0.00000000000E+00 0. -1.
         24    2    1    2    0    0  0.27215150089E+03 -0.91795065241E+03  0.10859802762E+04  0.14498653162E+04  0.77823100599E+02 0.  0.
        254    2    1    2    0    0 -0.27215150089E+03  0.91795065241E+03 -0.27200746827E+03  0.13454601968E+04  0.90530394823E+03 0.  0.
         23    2    4    4    0    0 -0.39175913225E+03  0.99795104384E+03 -0.38813269485E+03  0.11437002872E+04  0.89564806630E+02 0.  0.
         23    2    4    4    0    0  0.11960763136E+03 -0.80000391428E+02  0.11612522657E+03  0.20175990958E+03  0.80721402110E+02 0.  0.
          4    1    3    3  502    0 -0.25496710410E+01 -0.94946033780E+01  0.22019231689E+02  0.24114204941E+02  0.00000000000E+00 0. -1.
         -3    1    3    3    0  502  0.27470117193E+03 -0.90845604903E+03  0.10639610445E+04  0.14257511112E+04  0.00000000000E+00 0.  1.
         11    1    5    5    0    0 -0.18497068886E+03  0.37256634270E+03 -0.17646012521E+03  0.45183847915E+03  0.00000000000E+00 0. -1.
        -11    1    5    5    0    0 -0.20678844339E+03  0.62538470113E+03 -0.21167256964E+03  0.69186180807E+03  0.00000000000E+00 0.  1.
          3    1    6    6  503    0  0.44125410948E+02  0.26919815331E+01  0.65166256920E+02  0.78746045595E+02  0.00000000000E+00 0. -1.
         -3    1    6    6    0  503  0.75482220409E+02 -0.82692372961E+02  0.50958969654E+02  0.12301386398E+03  0.00000000000E+00 0.  1.
<mgrwt>
<rscale>  0 0.26741902E+04</rscale>
<asrwt>0</asrwt>
<pdfrwt beam="1">  1        2 0.15241175E+00 0.26741902E+04</pdfrwt>
<pdfrwt beam="2">  1       -1 0.27763833E+00 0.26741902E+04</pdfrwt>
<totfact> 0.11799493E+00</totfact>
</mgrwt>
</event>
<event>
12    6  0.1542110E-007  0.2644554E+04  0.7818608E-02  0.8353223E-01
          2   -1    0    0  501    0  0.00000000000E+00  0.00000000000E+00  0.77943518141E+03  0.77943518141E+03  0.00000000000E+00 0. -1.
         -1   -1    0    0    0  501 -0.00000000000E+00 -0.00000000000E+00 -0.22431831281E+04  0.22431831281E+04  0.00000000000E+00 0.  1.
         24    2    1    2    0    0 -0.91726729985E+03 -0.26561964410E+03  0.85525235988E+02  0.96248519202E+03  0.84439825674E+02 0.  0.
        254    2    1    2    0    0  0.91726729985E+03  0.26561964410E+03 -0.15492731827E+04  0.20601331175E+04  0.96538488309E+03 0.  0.
         23    2    4    4    0    0  0.10056938908E+04 -0.51579354737E+02 -0.12313346660E+04  0.15932523815E+04  0.90484581258E+02 0.  0.
         23    2    4    4    0    0 -0.88426590959E+02  0.31719899883E+03 -0.31793851666E+03  0.46688073602E+03  0.91968768862E+02 0.  0.
          4    1    3    3  502    0 -0.63846422546E+03 -0.14401503761E+03  0.57151633414E+02  0.65699559166E+03  0.00000000000E+00 0. -1.
         -3    1    3    3    0  502 -0.27880307439E+03 -0.12160460649E+03  0.28373602574E+02  0.30548960037E+03  0.00000000000E+00 0.  1.
         11    1    5    5    0    0  0.44086144513E+03 -0.67310916662E+02 -0.53522244204E+03  0.69667254559E+03  0.00000000000E+00 0.  1.
        -11    1    5    5    0    0  0.56483244568E+03  0.15731561925E+02 -0.69611222399E+03  0.89657983589E+03  0.00000000000E+00 0. -1.
          1    1    6    6  503    0 -0.98411839720E+02  0.31305940376E+03 -0.31659845627E+03  0.45598866542E+03  0.00000000000E+00 0.  1.
         -1    1    6    6    0  503  0.99852487610E+01  0.41395950752E+01 -0.13400603877E+01  0.10892070604E+02  0.00000000000E+00 0. -1.
<mgrwt>
<rscale>  0 0.26445535E+04</rscale>
<asrwt>0</asrwt>
<pdfrwt beam="1">  1        2 0.11991311E+00 0.26445535E+04</pdfrwt>
<pdfrwt beam="2">  1       -1 0.34510509E+00 0.26445535E+04</pdfrwt>
<totfact> 0.60001649E-01</totfact>
</mgrwt>
</event>
<event>
12    6  0.1542110E-007  0.2491067E+04  0.7818608E-02  0.8406175E-01
          2   -1    0    0  501    0  0.00000000000E+00  0.00000000000E+00  0.30364355996E+04  0.30364355996E+04  0.00000000000E+00 0. -1.
         -1   -1    0    0    0  501 -0.00000000000E+00 -0.00000000000E+00 -0.51091260897E+03  0.51091260897E+03  0.00000000000E+00 0.  1.
         24    2    1    2    0    0 -0.15914492012E+03 -0.88915564778E+03  0.24457467493E+03  0.93918383721E+03  0.79527585714E+02 0.  0.
        254    2    1    2    0    0  0.15914492012E+03  0.88915564778E+03  0.22809483157E+04  0.26081643713E+04  0.88536506456E+03 0.  0.
         23    2    4    4    0    0  0.29869051472E+03  0.67914393154E+02  0.11905102087E+04  0.12328314343E+04  0.93436608972E+02 0.  0.
         23    2    4    4    0    0 -0.13954559460E+03  0.82124125463E+03  0.10904381069E+04  0.13753329370E+04  0.92602653214E+02 0.  0.
          4    1    3    3  502    0 -0.19864308393E+02 -0.31032925954E+03  0.98272167092E+02  0.32612307324E+03  0.00000000000E+00 0. -1.
         -3    1    3    3    0  502 -0.13928061172E+03 -0.57882638824E+03  0.14630250784E+03  0.61306076398E+03  0.00000000000E+00 0.  1.
         11    1    5    5    0    0  0.12374272904E+02 -0.15896794360E+02  0.48963732354E+02  0.52945989337E+02  0.00000000000E+00 0. -1.
        -11    1    5    5    0    0  0.28631624181E+03  0.83811187514E+02  0.11415464764E+04  0.11798854449E+04  0.00000000000E+00 0.  1.
          1    1    6    6  503    0 -0.14890551795E+02  0.32759338093E+03  0.39359202352E+03  0.51230248168E+03  0.00000000000E+00 0. -1.
         -1    1    6    6    0  503 -0.12465504281E+03  0.49364787370E+03  0.69684608343E+03  0.86303045537E+03  0.00000000000E+00 0.  1.
<mgrwt>
<rscale>  0 0.24910666E+04</rscale>
<asrwt>0</asrwt>
<pdfrwt beam="1">  1        2 0.46714393E+00 0.24910666E+04</pdfrwt>
<pdfrwt beam="2">  1       -1 0.78601942E-01 0.24910666E+04</pdfrwt>
<totfact> 0.27156603E+00</totfact>
</mgrwt>
</event>
<event>
12    6  0.1542110E-007  0.2647020E+04  0.7818608E-02  0.8352403E-01
          2   -1    0    0  501    0  0.00000000000E+00  0.00000000000E+00  0.23300972917E+04  0.23300972917E+04  0.00000000000E+00 0. -1.
         -1   -1    0    0    0  501 -0.00000000000E+00 -0.00000000000E+00 -0.75176221701E+03  0.75176221701E+03  0.00000000000E+00 0.  1.
         24    2    1    2    0    0 -0.41608742465E+03 -0.49330495086E+03 -0.43212030685E+03  0.78429057364E+03  0.10911106637E+03 0.  0.
        254    2    1    2    0    0  0.41608742465E+03  0.49330495086E+03  0.20104553815E+04  0.22975689351E+04  0.90576688543E+03 0.  0.
         23    2    4    4    0    0  0.34180146118E+02 -0.23911019587E+03  0.30366153809E+03  0.39915893002E+03  0.93677924545E+02 0.  0.
         23    2    4    4    0    0  0.38190727854E+03  0.73241514673E+03  0.17067938434E+04  0.18984100050E+04  0.92359117857E+02 0.  0.
          4    1    3    3  502    0 -0.17575414602E+03 -0.22606307890E+03 -0.25577188485E+03  0.38394438733E+03  0.00000000000E+00 0. -1.
         -3    1    3    3    0  502 -0.24033327863E+03 -0.26724187196E+03 -0.17634842201E+03  0.40034618631E+03  0.00000000000E+00 0.  1.
         11    1    5    5    0    0  0.63792792572E+02 -0.18492872390E+03  0.24933002100E+03  0.31691262625E+03  0.00000000000E+00 0.  1.
        -11    1    5    5    0    0 -0.29612646454E+02 -0.54181471976E+02  0.54331517090E+02  0.82246303776E+02  0.00000000000E+00 0. -1.
          1    1    6    6  503    0  0.11282876321E+03  0.14097976763E+03  0.40678646889E+03  0.44506275508E+03  0.00000000000E+00 0. -1.
         -1    1    6    6    0  503  0.26907851533E+03  0.59143537910E+03  0.13000073745E+04  0.14533472500E+04  0.00000000000E+00 0.  1.
<mgrwt>
<rscale>  0 0.26470203E+04</rscale>
<asrwt>0</asrwt>
<pdfrwt beam="1">  1        2 0.35847650E+00 0.26470203E+04</pdfrwt>
<pdfrwt beam="2">  1       -1 0.11565573E+00 0.26470203E+04</pdfrwt>
<totfact> 0.29565792E+00</totfact>
</mgrwt>
</event>
<event>
12    6  0.1542110E-007  0.1827899E+04  0.7818608E-02  0.8691602E-01
         -1   -1    0    0    0  501 -0.00000000000E+00  0.00000000000E+00  0.50685496299E+03  0.50685496299E+03  0.00000000000E+00 0.  1.
          2   -1    0    0  501    0  0.00000000000E+00 -0.00000000000E+00 -0.16480134924E+04  0.16480134924E+04  0.00000000000E+00 0. -1.
         24    2    1    2    0    0 -0.13727582251E+03 -0.25695250380E+03 -0.11795460095E+04  0.12182852914E+04  0.89560159617E+02 0.  0.
        254    2    1    2    0    0  0.13727582251E+03  0.25695250380E+03  0.38387480027E+02  0.93658316400E+03  0.88929476767E+03 0.  0.
         23    2    4    4    0    0 -0.46332961878E+02  0.44359852988E+03  0.30776851458E+03  0.54934031948E+03  0.90149481241E+02 0.  0.
         23    2    4    4    0    0  0.18360878439E+03 -0.18664602608E+03 -0.26938103455E+03  0.38724284452E+03  0.94031665408E+02 0.  0.
          4    1    3    3  502    0 -0.12159648690E+03 -0.14289473200E+03 -0.66113304767E+03  0.68724196378E+03  0.00000000000E+00 0. -1.
         -3    1    3    3    0  502 -0.15679335610E+02 -0.11405777180E+03 -0.51841296180E+03  0.53104332764E+03  0.00000000000E+00 0.  1.
         11    1    5    5    0    0 -0.43134384973E+02  0.24002505390E+03  0.21694983898E+03  0.32640440300E+03  0.00000000000E+00 0.  1.
        -11    1    5    5    0    0 -0.31985769047E+01  0.20357347598E+03  0.90818675605E+02  0.22293591647E+03  0.00000000000E+00 0. -1.
          4    1    6    6  503    0  0.53721120610E+02 -0.12144593706E+03 -0.13268707152E+03  0.18772568651E+03  0.00000000000E+00 0. -1.
         -4    1    6    6    0  503  0.12988766378E+03 -0.65200089022E+02 -0.13669396303E+03  0.19951715801E+03  0.00000000000E+00 0.  1.
<mgrwt>
<rscale>  0 0.18278991E+04</rscale>
<asrwt>0</asrwt>
<pdfrwt beam="1">  1        2 0.25354054E+00 0.18278991E+04</pdfrwt>
<pdfrwt beam="2">  1       -1 0.77977686E-01 0.18278991E+04</pdfrwt>
<totfact> 0.18528601E+01</totfact>
</mgrwt>
</event>
<event>
12    6  0.1542110E-007  0.2822522E+04  0.7818608E-02  0.8296310E-01
         -1   -1    0    0    0  501 -0.00000000000E+00  0.00000000000E+00  0.18045032617E+04  0.18045032617E+04  0.00000000000E+00 0.  1.
          2   -1    0    0  501    0  0.00000000000E+00 -0.00000000000E+00 -0.11037150422E+04  0.11037150422E+04  0.00000000000E+00 0. -1.
         24    2    1    2    0    0 -0.12232407056E+02  0.11485104147E+04 -0.26329013285E+03  0.11806429702E+04  0.73282499409E+02 0.  0.
        254    2    1    2    0    0  0.12232407056E+02 -0.11485104147E+04  0.96407835236E+03  0.17275753338E+04  0.85781330131E+03 0.  0.
         23    2    4    4    0    0 -0.13695763710E+03 -0.12037126919E+04  0.68776671361E+03  0.13960908910E+04  0.91460837212E+02 0.  0.
         23    2    4    4    0    0  0.14919004416E+03  0.55202277204E+02  0.27631163875E+03  0.33148444271E+03  0.90713027552E+02 0.  0.
          4    1    3    3  502    0 -0.24690289145E+02  0.10857808525E+04 -0.25916459619E+03  0.11165553985E+04  0.00000000000E+00 0. -1.
         -3    1    3    3    0  502  0.12457882089E+02  0.62729562186E+02 -0.41255366597E+01  0.64087571735E+02  0.00000000000E+00 0.  1.
         11    1    5    5    0    0 -0.55389491295E+02 -0.21803822295E+03  0.10666775201E+03  0.24897122671E+03  0.00000000000E+00 0.  1.
        -11    1    5    5    0    0 -0.81568145807E+02 -0.98567446893E+03  0.58109896160E+03  0.11471196643E+04  0.00000000000E+00 0. -1.
          2    1    6    6  503    0  0.37575285590E+02  0.58348133269E+02  0.82494296585E+02  0.10780406167E+03  0.00000000000E+00 0. -1.
         -2    1    6    6    0  503  0.11161475857E+03 -0.31458560650E+01  0.19381734216E+03  0.22368038104E+03  0.00000000000E+00 0.  1.
<mgrwt>
<rscale>  0 0.28225218E+04</rscale>
<asrwt>0</asrwt>
<pdfrwt beam="1">  1        2 0.16980231E+00 0.28225218E+04</pdfrwt>
<pdfrwt beam="2">  1       -1 0.27761589E+00 0.28225218E+04</pdfrwt>
<totfact> 0.98916647E-01</totfact>
</mgrwt>
</event>
<event>
12    6  0.1542110E-007  0.2135130E+04  0.7818608E-02  0.8545924E-01
         -1   -1    0    0    0  501 -0.00000000000E+00  0.00000000000E+00  0.14134886725E+04  0.14134886725E+04  0.00000000000E+00 0.  1.
          2   -1    0    0  501    0  0.00000000000E+00 -0.00000000000E+00 -0.80629907446E+03  0.80629907446E+03  0.00000000000E+00 0. -1.
         24    2    1    2    0    0 -0.41462214116E+03  0.32632405937E+03 -0.45180250719E+03  0.69935509915E+03  0.81074888452E+02 0.  0.
        254    2    1    2    0    0  0.41462214116E+03 -0.32632405937E+03  0.10589921052E+04  0.15204326478E+04  0.95490954854E+03 0.  0.
         23    2    4    4    0    0  0.11162835590E+02 -0.58433789317E+03  0.69097834743E+03  0.90968291288E+03  0.92176694894E+02 0.  0.
         23    2    4    4    0    0  0.40345930557E+03  0.25801383380E+03  0.36801375781E+03  0.61074973492E+03  0.90722450854E+02 0.  0.
          4    1    3    3  502    0 -0.36529083182E+03  0.26920538617E+03 -0.35235276593E+03  0.57450970698E+03  0.00000000000E+00 0. -1.
         -3    1    3    3    0  502 -0.49331309342E+02  0.57118673197E+02 -0.99449741259E+02  0.12484539217E+03  0.00000000000E+00 0.  1.
         11    1    5    5    0    0 -0.80998402171E+00 -0.36537018018E+03  0.36216415713E+03  0.51445009607E+03  0.00000000000E+00 0.  1.
        -11    1    5    5    0    0  0.11972819612E+02 -0.21896771299E+03  0.32881419030E+03  0.39523281681E+03  0.00000000000E+00 0. -1.
          4    1    6    6  503    0 -0.93829592803E+00 -0.28804157442E+01 -0.20571554809E+01  0.36618414467E+01  0.00000000000E+00 0. -1.
         -4    1    6    6    0  503  0.40439760150E+03  0.26089424954E+03  0.37007091329E+03  0.60708789348E+03  0.00000000000E+00 0.  1.
<mgrwt>
<rscale>  0 0.21351296E+04</rscale>
<asrwt>0</asrwt>
<pdfrwt beam="1">  1        2 0.12404601E+00 0.21351296E+04</pdfrwt>
<pdfrwt beam="2">  1       -1 0.21745979E+00 0.21351296E+04</pdfrwt>
<totfact> 0.40905288E+00</totfact>
</mgrwt>
</event>
<event>
12    6  0.1542110E-007  0.1592218E+04  0.7818608E-02  0.8825343E-01
          2   -1    0    0  501    0  0.00000000000E+00  0.00000000000E+00  0.26034607740E+03  0.26034607740E+03  0.00000000000E+00 0. -1.
         -1   -1    0    0    0  501 -0.00000000000E+00 -0.00000000000E+00 -0.24344111137E+04  0.24344111137E+04  0.00000000000E+00 0.  1.
         24    2    1    2    0    0 -0.48655098792E+03  0.74526590276E+02 -0.36528535920E+03  0.61835129061E+03  0.81479128927E+02 0.  0.
        254    2    1    2    0    0  0.48655098792E+03 -0.74526590276E+02 -0.18087796771E+04  0.20764059005E+04  0.89302377727E+03 0.  0.
         23    2    4    4    0    0  0.55491703015E+03 -0.34543247918E+03 -0.86311758496E+03  0.10860714400E+04  0.85572771745E+02 0.  0.
         23    2    4    4    0    0 -0.68366042227E+02  0.27090588890E+03 -0.94566209211E+03  0.99033446048E+03  0.91769465363E+02 0.  0.
          2    1    3    3  502    0 -0.80764984776E+02  0.49683045391E+01 -0.26409739667E+02  0.85118394987E+02  0.00000000000E+00 0. -1.
         -1    1    3    3    0  502 -0.40578600315E+03  0.69558285737E+02 -0.33887561953E+03  0.53323289563E+03  0.00000000000E+00 0.  1.
         11    1    5    5    0    0  0.32173039782E+03 -0.22609868454E+03 -0.45809938213E+03  0.60372684878E+03  0.00000000000E+00 0. -1.
        -11    1    5    5    0    0  0.23318663233E+03 -0.11933379464E+03 -0.40501820283E+03  0.48234459121E+03  0.00000000000E+00 0.  1.
          1    1    6    6  503    0  0.29231390033E+00  0.89144827536E+02 -0.43316522030E+03  0.44224313878E+03  0.00000000000E+00 0. -1.
         -1    1    6    6    0  503 -0.68658356127E+02  0.18176106137E+03 -0.51249687182E+03  0.54809132170E+03  0.00000000000E+00 0.  1.
<mgrwt>
<rscale>  0 0.15922178E+04</rscale>
<asrwt>0</asrwt>
<pdfrwt beam="1">  1        2 0.40053245E-01 0.15922178E+04</pdfrwt>
<pdfrwt beam="2">  1       -1 0.37452477E+00 0.15922178E+04</pdfrwt>
<totfact> 0.15130644E+00</totfact>
</mgrwt>
</event>
<event>
12    6  0.1542110E-007  0.1203483E+04  0.7818608E-02  0.9109813E-01
         -1   -1    0    0    0  501 -0.00000000000E+00  0.00000000000E+00  0.12786987360E+03  0.12786987360E+03  0.00000000000E+00 0.  1.
          2   -1    0    0  501    0  0.00000000000E+00 -0.00000000000E+00 -0.28317300308E+04  0.28317300308E+04  0.00000000000E+00 0. -1.
         24    2    1    2    0    0 -0.22380917583E+03  0.76165633502E+02 -0.82232062678E+03  0.85939311641E+03  0.80334079838E+02 0.  0.
        254    2    1    2    0    0  0.22380917583E+03 -0.76165633502E+02 -0.18815395304E+04  0.21002067880E+04  0.90265486031E+03 0.  0.
         23    2    4    4    0    0 -0.27123475389E+03  0.51293072787E+02 -0.23905959488E+03  0.37750308793E+03  0.95706950934E+02 0.  0.
         23    2    4    4    0    0  0.49504392972E+03 -0.12745870629E+03 -0.16424799355E+04  0.17227037000E+04  0.93024111837E+02 0.  0.
          4    1    3    3  502    0 -0.19989380878E+03  0.92946312807E+02 -0.72182056195E+03  0.75473271792E+03  0.00000000000E+00 0. -1.
         -3    1    3    3    0  502 -0.23915367057E+02 -0.16780679305E+02 -0.10050006484E+03  0.10466039849E+03  0.00000000000E+00 0.  1.
         11    1    5    5    0    0 -0.12527016118E+02  0.19563196311E+02 -0.51165859718E+02  0.56192437067E+02  0.00000000000E+00 0. -1.
        -11    1    5    5    0    0 -0.25870773777E+03  0.31729876476E+02 -0.18789373517E+03  0.32131065086E+03  0.00000000000E+00 0.  1.
          1    1    6    6  503    0  0.40435845531E+01  0.66149931112E+00 -0.75447194320E+02  0.75558370073E+02  0.00000000000E+00 0. -1.
         -1    1    6    6    0  503  0.49100034517E+03 -0.12812020560E+03 -0.15670327412E+04  0.16471453300E+04  0.00000000000E+00 0.  1.
<mgrwt>
<rscale>  0 0.12034832E+04</rscale>
<asrwt>0</asrwt>
<pdfrwt beam="1">  1        2 0.43565072E+00 0.12034832E+04</pdfrwt>
<pdfrwt beam="2">  1       -1 0.19672291E-01 0.12034832E+04</pdfrwt>
<totfact> 0.52865179E+01</totfact>
</mgrwt>
</event>
<event>
12    6  0.1542110E-007  0.2674794E+04  0.7818608E-02  0.8343230E-01
          2   -1    0    0  501    0  0.00000000000E+00  0.00000000000E+00  0.30334887228E+04  0.30334887228E+04  0.00000000000E+00 0. -1.
         -1   -1    0    0    0  501 -0.00000000000E+00 -0.00000000000E+00 -0.58962816249E+03  0.58962816249E+03  0.00000000000E+00 0.  1.
         24    2    1    2    0    0 -0.25786376723E+03  0.11332646504E+04  0.12412787134E+04  0.17025360484E+04  0.84105062380E+02 0.  0.
        254    2    1    2    0    0  0.25786376723E+03 -0.11332646504E+04  0.12025818469E+04  0.19205808369E+04  0.94426964491E+03 0.  0.
         23    2    4    4    0    0 -0.97901811669E+02  0.35195086720E+02 -0.69654292348E+02  0.15461415523E+03  0.90721318876E+02 0.  0.
         23    2    4    4    0    0  0.35576557890E+03 -0.11684597371E+04  0.12722361392E+04  0.17659666816E+04  0.90477745264E+02 0.  0.
          4    1    3    3  502    0 -0.10018558621E+03  0.43788224994E+03  0.54032273279E+03  0.70265686652E+03  0.00000000000E+00 0. -1.
         -3    1    3    3    0  502 -0.15767818103E+03  0.69538240042E+03  0.70095598062E+03  0.99987918188E+03  0.00000000000E+00 0.  1.
         11    1    5    5    0    0 -0.18560485343E+02 -0.29462903883E+02 -0.25423098512E+02  0.43114826445E+02  0.00000000000E+00 0. -1.
        -11    1    5    5    0    0 -0.79341326326E+02  0.64657990603E+02 -0.44231193836E+02  0.11149932879E+03  0.00000000000E+00 0.  1.
          2    1    6    6  503    0  0.15663282387E+03 -0.47778300518E+03  0.46188367648E+03  0.68274956767E+03  0.00000000000E+00 0. -1.
         -2    1    6    6    0  503  0.19913275504E+03 -0.69067673189E+03  0.81035246275E+03  0.10832171140E+04  0.00000000000E+00 0.  1.
<mgrwt>
<rscale>  0 0.26747937E+04</rscale>
<asrwt>0</asrwt>
<pdfrwt beam="1">  1        2 0.46669056E+00 0.26747937E+04</pdfrwt>
<pdfrwt beam="2">  1       -1 0.90712027E-01 0.26747937E+04</pdfrwt>
<totfact> 0.19672991E+00</totfact>
</mgrwt>
</event>
<event>
12    6  0.1542110E-007  0.1436195E+04  0.7818608E-02  0.8928027E-01
         -1   -1    0    0    0  501 -0.00000000000E+00  0.00000000000E+00  0.58945531709E+03  0.58945531709E+03  0.00000000000E+00 0.  1.
          2   -1    0    0  501    0  0.00000000000E+00 -0.00000000000E+00 -0.87481494232E+03  0.87481494232E+03  0.00000000000E+00 0. -1.
         24    2    1    2    0    0 -0.89052857024E+02 -0.42191338331E+03 -0.75356600401E+02  0.44318598086E+03  0.69237865665E+02 0.  0.
        254    2    1    2    0    0  0.89052857024E+02  0.42191338331E+03 -0.21000302483E+03  0.10210842786E+04  0.90142693498E+03 0.  0.
         23    2    4    4    0    0  0.16994306138E+03  0.30579923200E+03  0.30995050127E+03  0.47622771767E+03  0.91267252828E+02 0.  0.
         23    2    4    4    0    0 -0.80890204354E+02  0.11611415131E+03 -0.51995352610E+03  0.54485656088E+03  0.80568488473E+02 0.  0.
          2    1    3    3  502    0 -0.66998922650E+02 -0.39457715012E+03 -0.59403196394E+02  0.40460934588E+03  0.00000000000E+00 0. -1.
         -1    1    3    3    0  502 -0.22053934374E+02 -0.27336233190E+02 -0.15953404007E+02  0.38576634972E+02  0.00000000000E+00 0.  1.
         11    1    5    5    0    0  0.27428414107E+02  0.44968344791E+01  0.30577376984E+02  0.41322093412E+02  0.00000000000E+00 0.  1.
        -11    1    5    5    0    0  0.14251464727E+03  0.30130239753E+03  0.27937312429E+03  0.43490562426E+03  0.00000000000E+00 0. -1.
          2    1    6    6  503    0 -0.67802583175E+02  0.88586274324E+02 -0.25732894026E+03  0.28046907455E+03  0.00000000000E+00 0. -1.
         -2    1    6    6    0  503 -0.13087621178E+02  0.27527876982E+02 -0.26262458584E+03  0.26438748633E+03  0.00000000000E+00 0.  1.
<mgrwt>
<rscale>  0 0.14361954E+04</rscale>
<asrwt>0</asrwt>
<pdfrwt beam="1">  1        2 0.13458692E+00 0.14361954E+04</pdfrwt>
<pdfrwt beam="2">  1       -1 0.90685433E-01 0.14361954E+04</pdfrwt>
<totfact> 0.40164131E+01</totfact>
</mgrwt>
</event>
